Title
81314
    1CHL1    C3    1   4.160   5.623  10.383  0.2538  0.3494 -0.0269
    1CHL1    H3    2   4.231   5.685  10.324 -0.8554  1.9015  0.2325
    1CHL1    O3    3   4.150   5.670  10.517 -0.5787  0.2548  0.6798
    1CHL1   H3'    4   4.066   5.716  10.530 -1.2558 -0.4113 -1.1144
    1CHL1    C4    5   4.025   5.630  10.322 -0.6676  0.1118  0.1508
    1CHL1   H4A    6   3.951   5.565  10.371 -0.7597  0.0864 -0.0225
    1CHL1   H4B    7   3.986   5.734  10.331 -1.4036 -0.3018  2.3197
    1CHL1    C5    8   4.028   5.578  10.185 -0.1048  0.8219 -0.0184
    1CHL1    C6    9   3.990   5.651  10.079 -0.6704  0.0944 -0.4880
    1CHL1    H6   10   3.953   5.753  10.097  0.2435  0.0656  1.8565
    1CHL1    C7   11   3.996   5.604   9.938 -0.0880 -0.7017  0.0127
    1CHL1   H7A   12   3.908   5.644   9.883  0.3882 -0.1210 -0.3411
    1CHL1   H7B   13   4.081   5.651   9.883 -0.1766 -2.3547 -1.6583
    1CHL1    C8   14   4.002   5.453   9.923 -0.4338  1.0132  0.0384
    1CHL1    H8   15   3.906   5.415   9.963 -0.7861  3.8254  2.1538
    1CHL1   C14   16   4.031   5.406   9.782 -0.4422 -0.2727  0.4933
    1CHL1   H14   17   4.124   5.463   9.758 -1.4474  0.7055 -1.2728
    1CHL1   C15   18   3.933   5.463   9.671  0.0745 -0.4931  0.4194
    1CHL1  H15A   19   3.826   5.452   9.697 -0.1133  0.6787  0.1866
    1CHL1  H15B   20   3.957   5.569   9.650  0.2641  0.3536  4.1973
    1CHL1   C16   21   3.962   5.370   9.545 -0.3827 -0.6329 -0.1796
    1CHL1  H16A   22   3.861   5.334   9.515 -1.0741  0.4929  0.7050
    1CHL1  H16B   23   4.001   5.433   9.462 -1.3269  0.2643  0.0283
    1CHL1   C17   24   4.072   5.266   9.599  0.0655  0.1293  0.4728
    1CHL1   H17   25   4.166   5.324   9.591  1.0698 -1.6059 -1.3308
    1CHL1   C13   26   4.051   5.260   9.752 -0.6488 -0.1160  0.1709
    1CHL1   C18   27   3.925   5.173   9.779 -0.3701 -0.3271 -0.0673
    1CHL1  H18A   28   3.878   5.194   9.878  2.0710  2.4264  0.6339
    1CHL1  H18B   29   3.850   5.185   9.698  1.6228  1.8924 -1.7321
    1CHL1  H18C   30   3.945   5.064   9.784 -0.1260 -0.4363 -2.5291
    1CHL1   C12   31   4.171   5.211   9.841 -0.6633  0.0474  0.4712
    1CHL1  H12A   32   4.186   5.101   9.843 -2.1133 -0.1713  0.8859
    1CHL1  H12B   33   4.267   5.251   9.803 -1.2225  0.5387 -0.4777
    1CHL1   C11   34   4.130   5.245   9.988 -0.2620 -0.5647 -0.2226
    1CHL1  H11A   35   4.036   5.193  10.016  1.0762 -2.5359  0.9008
    1CHL1  H11B   36   4.213   5.207  10.052  0.1373 -0.5347 -0.7191
    1CHL1    C9   37   4.108   5.399  10.019  0.2403 -0.7224  1.0347
    1CHL1    H9   38   4.203   5.442   9.982  0.0870 -1.9574 -0.9655
    1CHL1   C10   39   4.082   5.439  10.163  0.1287 -0.2635 -0.0178
    1CHL1   C19   40   3.986   5.338  10.231 -0.0368  0.2008  0.5261
    1CHL1  H19A   41   4.043   5.243  10.236 -0.6504 -0.3208 -1.4032
    1CHL1  H19B   42   3.960   5.364  10.336 -1.3598 -0.3717  0.3655
    1CHL1  H19C   43   3.895   5.315  10.171  0.4432  0.3854 -0.2818
    1CHL1    C1   44   4.225   5.437  10.236 -0.7234  0.2269  0.5488
    1CHL1   H1A   45   4.250   5.329  10.229 -0.2426  0.4180 -1.7341
    1CHL1   H1B   46   4.302   5.488  10.174  0.0743 -0.9716  0.5196
    1CHL1    C2   47   4.221   5.487  10.375  0.2148  0.0459 -0.0732
    1CHL1   H2A   48   4.318   5.481  10.430  1.2926 -1.0119 -1.9528
    1CHL1   H2B   49   4.162   5.417  10.438 -1.4883  0.5453 -1.0656
    1CHL1   C20   50   4.080   5.132   9.524 -0.3685  0.2106  0.1577
    1CHL1   H20   51   4.000   5.066   9.563 -0.6253 -1.0135 -2.2189
    1CHL1   C21   52   4.217   5.067   9.540  0.3329  0.7451  0.7772
    1CHL1  H21A   53   4.264   5.076   9.640  0.5646  0.5680  0.6858
    1CHL1  H21B   54   4.293   5.112   9.473 -0.0741 -0.2921 -0.4295
    1CHL1  H21C   55   4.213   4.960   9.511  0.7082  1.3145 -1.5550
    1CHL1   C22   56   4.045   5.147   9.367  0.2842  0.4819  0.2512
    1CHL1  H22A   57   3.957   5.214   9.354 -1.9941 -2.2402  0.6151
    1CHL1  H22B   58   4.139   5.189   9.328  0.6190  1.1825  1.7272
    1CHL1   C23   59   4.013   5.005   9.308  0.4006 -0.3116 -0.1871
    1CHL1  H23A   60   4.102   4.941   9.326  0.9530  0.6888  0.7888
    1CHL1  H23B   61   3.931   4.964   9.371  2.0766  0.8436  2.9210
    1CHL1   C24   62   3.956   5.015   9.165  0.6718 -0.4975 -0.7326
    1CHL1  H24A   63   3.867   5.082   9.156  1.4537  1.0842  1.9497
    1CHL1  H24B   64   4.035   5.057   9.100  1.0886  0.2668  0.2412
    1CHL1   C25   65   3.933   4.866   9.114 -1.0421  0.0037 -0.1303
    1CHL1   H25   66   4.029   4.820   9.143 -0.3884  0.6399 -1.2168
    1CHL1   C26   67   3.818   4.789   9.183 -0.3444 -0.0529  0.2783
    1CHL1  H26A   68   3.714   4.827   9.168 -0.4297 -0.1462  0.6285
    1CHL1  H26B   69   3.827   4.683   9.150 -2.8414  0.2162 -1.6191
    1CHL1  H26C   70   3.830   4.789   9.293  0.1943  2.6588  0.2838
    1CHL1   C27   71   3.924   4.861   8.962  1.2672 -0.5235 -0.1586
    1CHL1  H27A   72   4.017   4.911   8.927  2.1997 -0.1755  2.6182
    1CHL1  H27B   73   3.913   4.755   8.928  2.0202 -0.8002  0.4236
    1CHL1  H27C   74   3.834   4.914   8.924  0.6853 -2.7351 -2.1605
    2CHL1    C3   75   5.437   3.568   9.992 -0.1155  1.3125 -0.0791
    2CHL1    H3   76   5.337   3.537  10.031  0.4900 -0.0592  0.4695
    2CHL1    O3   77   5.516   3.596  10.105  0.3325 -0.4636  0.1462
    2CHL1   H3'   78   5.524   3.518  10.161 -0.3285  0.8098  2.1194
    2CHL1    C4   79   5.519   3.462   9.912 -0.2008 -0.3238  0.5056
    2CHL1   H4A   80   5.621   3.501   9.891  0.3347 -1.4819  0.8822
    2CHL1   H4B   81   5.529   3.371   9.976 -0.7869 -0.5241  0.3202
    2CHL1    C5   82   5.457   3.433   9.778  0.2214 -0.0417  0.3625
    2CHL1    C6   83   5.426   3.303   9.748 -0.5849  0.0981  0.2898
    2CHL1    H6   84   5.444   3.224   9.822 -2.7992  0.4236  1.2380
    2CHL1    C7   85   5.361   3.259   9.620  0.3780  0.2751 -0.2070
    2CHL1   H7A   86   5.412   3.180   9.561  0.1873  0.4166 -0.5589
    2CHL1   H7B   87   5.259   3.220   9.636  0.3140 -0.0054 -1.2336
    2CHL1    C8   88   5.362   3.376   9.513  0.1882  0.3380  0.4979
    2CHL1    H8   89   5.464   3.385   9.472  0.4656  2.7596  1.5231
    2CHL1   C14   90   5.269   3.336   9.397 -0.2905 -0.0717  0.0511
    2CHL1   H14   91   5.171   3.312   9.444  0.3592 -2.6017  0.2216
    2CHL1   C15   92   5.305   3.203   9.334  0.5071  0.6204 -0.3549
    2CHL1  H15A   93   5.413   3.216   9.310  0.1720  3.7917 -0.4851
    2CHL1  H15B   94   5.275   3.108   9.384  0.9926  1.4959  1.6968
    2CHL1   C16   95   5.233   3.205   9.200 -0.1198  0.1735  0.4447
    2CHL1  H16A   96   5.308   3.189   9.119  0.4894  0.4613  0.9436
    2CHL1  H16B   97   5.149   3.134   9.184 -0.3872  1.2226 -4.1288
    2CHL1   C17   98   5.186   3.352   9.183 -0.1181 -0.2951 -0.2723
    2CHL1   H17   99   5.079   3.352   9.213 -0.1337  0.9931 -0.2985
    2CHL1   C13  100   5.265   3.441   9.282 -0.6599  0.7217 -0.6680
    2CHL1   C18  101   5.404   3.477   9.230  0.1911  0.5331  0.2440
    2CHL1  H18A  102   5.460   3.534   9.306 -0.1363  2.2452 -0.7573
    2CHL1  H18B  103   5.471   3.400   9.185  0.0955  0.7723 -0.3196
    2CHL1  H18C  104   5.400   3.547   9.143  0.5080 -0.2754 -0.4402
    2CHL1   C12  105   5.185   3.561   9.346 -0.5977 -0.1458  0.4004
    2CHL1  H12A  106   5.159   3.649   9.283  0.4833  0.2428  0.4768
    2CHL1  H12B  107   5.085   3.529   9.383  0.1814 -1.2666  1.6269
    2CHL1   C11  108   5.257   3.616   9.472 -0.3858 -0.0442 -0.6330
    2CHL1  H11A  109   5.345   3.679   9.448 -0.5977  1.4110  2.0230
    2CHL1  H11B  110   5.198   3.693   9.527  0.3445 -0.2486  0.4627
    2CHL1    C9  111   5.309   3.506   9.570  0.3723 -0.2054 -0.0669
    2CHL1    H9  112   5.220   3.467   9.623 -0.0233 -1.6038 -1.6634
    2CHL1   C10  113   5.407   3.553   9.689  0.8262 -0.5821  0.6153
    2CHL1   C19  114   5.541   3.606   9.626  0.5617  0.0680 -0.1588
    2CHL1  H19A  115   5.620   3.623   9.702  1.2166 -1.8061 -0.3771
    2CHL1  H19B  116   5.588   3.537   9.552  1.7622 -0.4311  1.0355
    2CHL1  H19C  117   5.526   3.694   9.560  0.3676  0.6428  0.6448
    2CHL1    C1  118   5.347   3.672   9.771  0.1136 -0.0980  1.0166
    2CHL1   H1A  119   5.353   3.764   9.710  1.2607 -0.4130  0.6244
    2CHL1   H1B  120   5.243   3.648   9.799  1.5218 -4.0396  3.7286
    2CHL1    C2  121   5.420   3.696   9.905  0.7584 -0.0246  0.8351
    2CHL1   H2A  122   5.356   3.769   9.959 -1.0988 -1.0911  0.1714
    2CHL1   H2B  123   5.517   3.748   9.891 -0.0043  1.3137  0.2699
    2CHL1   C20  124   5.183   3.402   9.032 -0.8545  0.0187 -0.3166
    2CHL1   H20  125   5.287   3.407   8.994 -0.8245 -0.5063 -0.3172
    2CHL1   C21  126   5.129   3.544   9.033  0.3844 -0.3705 -0.1716
    2CHL1  H21A  127   5.205   3.612   9.079 -0.7891 -0.1763  1.5484
    2CHL1  H21B  128   5.032   3.559   9.085  0.1531 -0.1639 -0.6498
    2CHL1  H21C  129   5.113   3.581   8.929  1.5383 -1.7645 -0.8661
    2CHL1   C22  130   5.108   3.313   8.932 -0.2264 -0.1191 -0.5893
    2CHL1  H22A  131   5.164   3.217   8.932 -1.1519 -0.6767 -0.8693
    2CHL1  H22B  132   5.009   3.302   8.980 -0.6710  2.9777 -0.5690
    2CHL1   C23  133   5.079   3.361   8.780 -0.7193  0.0442 -0.4493
    2CHL1  H23A  134   5.011   3.449   8.782 -0.8301  0.0109 -1.7640
    2CHL1  H23B  135   5.167   3.375   8.713 -1.3591 -1.4276 -1.6371
    2CHL1   C24  136   5.019   3.250   8.693  0.4247 -0.5567  0.0764
    2CHL1  H24A  137   5.069   3.153   8.717 -1.2280 -1.6155 -0.5742
    2CHL1  H24B  138   4.920   3.233   8.739  0.0046 -0.1588 -0.6662
    2CHL1   C25  139   5.004   3.278   8.539 -0.6255  0.1909 -0.8495
    2CHL1   H25  140   5.108   3.292   8.501  0.3368  2.4759  2.1979
    2CHL1   C26  141   4.943   3.162   8.463 -0.4382 -0.1079 -0.0893
    2CHL1  H26A  142   4.940   3.181   8.353  0.3497  0.4220 -0.0268
    2CHL1  H26B  143   5.009   3.076   8.483  0.2771  0.4651  0.0412
    2CHL1  H26C  144   4.839   3.148   8.498 -0.5444  1.9469  0.5589
    2CHL1   C27  145   4.905   3.393   8.524 -0.2996 -0.2625 -0.3188
    2CHL1  H27A  146   4.887   3.413   8.417 -0.0213  3.3080  0.1808
    2CHL1  H27B  147   4.805   3.376   8.571 -0.6446  1.0983 -0.5078
    2CHL1  H27C  148   4.948   3.486   8.569  1.2215 -0.4891 -1.2539
    3CHL1    C3  149   6.419   4.186  10.381  0.4004 -0.6602  0.5460
    3CHL1    H3  150   6.315   4.147  10.378  0.6566 -1.3394 -2.1853
    3CHL1    O3  151   6.437   4.203  10.518 -0.5976 -0.1394  0.3185
    3CHL1   H3'  152   6.498   4.131  10.537  0.9065  0.7933 -0.7082
    3CHL1    C4  153   6.515   4.087  10.311 -0.1373 -0.5332  0.3881
    3CHL1   H4A  154   6.620   4.119  10.326 -0.4672  1.3059 -0.9371
    3CHL1   H4B  155   6.513   3.987  10.359 -0.1816 -0.6258  0.1961
    3CHL1    C5  156   6.486   4.077  10.160  0.2541  0.4238 -0.6376
    3CHL1    C6  157   6.452   3.959  10.100  0.3731  0.0131 -0.3497
    3CHL1    H6  158   6.443   3.866  10.158 -2.7786 -1.2902 -2.6986
    3CHL1    C7  159   6.421   3.944   9.955 -0.1913 -0.0394  0.5443
    3CHL1   H7A  160   6.467   3.861   9.896 -1.0411 -0.1427  0.0084
    3CHL1   H7B  161   6.312   3.938   9.940 -0.1896 -2.5005  1.0575
    3CHL1    C8  162   6.465   4.071   9.871  0.1710  0.1841 -0.3364
    3CHL1    H8  163   6.575   4.068   9.861  0.1567  2.3660 -1.8633
    3CHL1   C14  164   6.389   4.063   9.729 -0.3750  0.5261  0.4709
    3CHL1   H14  165   6.280   4.072   9.751 -0.8600  3.0896 -2.2870
    3CHL1   C15  166   6.409   3.935   9.653  0.2264  0.0062  0.0172
    3CHL1  H15A  167   6.518   3.912   9.664  0.8923  3.3887  2.0283
    3CHL1  H15B  168   6.355   3.840   9.675  0.7922 -1.1050 -2.8968
    3CHL1   C16  169   6.380   3.983   9.508 -0.0539 -0.8688 -0.1357
    3CHL1  H16A  170   6.461   3.953   9.439  0.3480  0.0567 -0.0654
    3CHL1  H16B  171   6.288   3.930   9.474 -0.3956  0.1238 -0.7811
    3CHL1   C17  172   6.362   4.139   9.511 -0.2234  0.5451  0.5578
    3CHL1   H17  173   6.253   4.161   9.515 -0.3435 -0.1976  2.7597
    3CHL1   C13  174   6.428   4.185   9.643 -0.0967  0.6647 -0.0139
    3CHL1   C18  175   6.581   4.186   9.606 -1.0189  0.4384 -0.2457
    3CHL1  H18A  176   6.595   4.268   9.532 -2.6665  0.8926 -0.1001
    3CHL1  H18B  177   6.648   4.207   9.692 -0.3719 -1.1100 -0.3403
    3CHL1  H18C  178   6.604   4.085   9.567  0.2947  0.5428  0.2071
    3CHL1   C12  179   6.378   4.319   9.709  0.4880 -0.0894  0.7734
    3CHL1  H12A  180   6.405   4.411   9.653 -1.0271 -0.8926 -1.3977
    3CHL1  H12B  181   6.267   4.314   9.703  0.2127 -1.1630  4.1509
    3CHL1   C11  182   6.434   4.328   9.850  0.1539  0.0006  0.0167
    3CHL1  H11A  183   6.540   4.360   9.844  0.9692 -2.7512 -1.6006
    3CHL1  H11B  184   6.381   4.416   9.893 -2.0895 -1.2797  0.0281
    3CHL1    C9  185   6.425   4.204   9.937  0.8936  0.2382  0.4080
    3CHL1    H9  186   6.316   4.191   9.956  0.1075  0.3168 -3.2358
    3CHL1   C10  187   6.485   4.210  10.080  0.3620  0.8822  0.1043
    3CHL1   C19  188   6.630   4.262  10.071 -0.9178  0.3291  0.3021
    3CHL1  H19A  189   6.673   4.290  10.169  1.0353 -2.8343  0.4922
    3CHL1  H19B  190   6.695   4.187  10.022 -1.4344 -0.5116  0.8649
    3CHL1  H19C  191   6.643   4.353  10.009 -0.4838  0.7388  0.9879
    3CHL1    C1  192   6.401   4.312  10.164 -0.2666  1.1937  0.3342
    3CHL1   H1A  193   6.426   4.411  10.122  0.9757  0.9347  0.4165
    3CHL1   H1B  194   6.295   4.284  10.146  0.0531  0.6260 -0.7642
    3CHL1    C2  195   6.433   4.323  10.316  0.5208  0.5097 -0.2443
    3CHL1   H2A  196   6.358   4.388  10.365  1.3226  0.6218  0.8813
    3CHL1   H2B  197   6.536   4.364  10.324  0.3476  0.7314  0.9624
    3CHL1   C20  198   6.407   4.200   9.374  0.3601  0.0221  0.5874
    3CHL1   H20  199   6.514   4.180   9.351  0.7433  0.5180  1.8602
    3CHL1   C21  200   6.376   4.345   9.389 -0.8460 -0.6320  0.3450
    3CHL1  H21A  201   6.277   4.367   9.433 -1.5567 -0.6381 -1.1974
    3CHL1  H21B  202   6.356   4.395   9.292 -0.9800  0.2896  0.8338
    3CHL1  H21C  203   6.447   4.400   9.455 -1.6990 -0.9084  1.5422
    3CHL1   C22  204   6.328   4.145   9.255  0.0733  0.0100  0.2643
    3CHL1  H22A  205   6.298   4.038   9.254 -1.2470  0.2981 -2.7189
    3CHL1  H22B  206   6.223   4.182   9.253  0.1157  0.1239  0.1404
    3CHL1   C23  207   6.395   4.181   9.118 -0.9164 -0.2056 -0.3150
    3CHL1  H23A  208   6.388   4.290   9.099 -0.9129 -0.2777 -0.7354
    3CHL1  H23B  209   6.503   4.153   9.121 -1.2259 -1.4607 -0.4461
    3CHL1   C24  210   6.329   4.102   9.004  0.2350 -0.7255 -0.2834
    3CHL1  H24A  211   6.318   3.993   9.025 -1.8578 -1.0451 -2.6580
    3CHL1  H24B  212   6.222   4.128   9.019  0.9064  1.3763  1.4515
    3CHL1   C25  213   6.376   4.134   8.864 -0.1794  0.5948 -0.9077
    3CHL1   H25  214   6.379   4.244   8.858 -0.2126  0.7309  1.0751
    3CHL1   C26  215   6.517   4.079   8.839  0.4493 -0.3446  0.3109
    3CHL1  H26A  216   6.527   3.969   8.844  1.1905 -0.3618 -1.0991
    3CHL1  H26B  217   6.556   4.100   8.737  1.7107 -1.1737  0.5949
    3CHL1  H26C  218   6.588   4.128   8.909  0.5512 -1.4445  0.9916
    3CHL1   C27  219   6.275   4.079   8.761 -1.0973 -0.3442  0.5013
    3CHL1  H27A  220   6.251   3.972   8.782  0.9126 -1.0770 -0.6379
    3CHL1  H27B  221   6.181   4.137   8.765 -0.3641  0.8320  1.3896
    3CHL1  H27C  222   6.323   4.076   8.660  1.1091  1.4157  1.4244
    4CHL1    C3  223   5.589   4.875  10.646 -0.4719 -0.3261  0.2146
    4CHL1    H3  224   5.582   4.764  10.639  2.6342 -0.6407  0.6264
    4CHL1    O3  225   5.541   4.929  10.769 -0.5547 -0.1229 -0.1208
    4CHL1   H3'  226   5.552   5.021  10.747 -1.0832  0.0912  0.4855
    4CHL1    C4  227   5.743   4.897  10.644  0.5094 -0.5045  0.1214
    4CHL1   H4A  228   5.759   5.005  10.664 -1.3351 -0.2802  0.5467
    4CHL1   H4B  229   5.785   4.835  10.726  0.0260  0.1553  0.8829
    4CHL1    C5  230   5.810   4.873  10.508  1.0030  0.2348  0.1663
    4CHL1    C6  231   5.903   4.775  10.502 -0.0871 -0.3261  0.5367
    4CHL1    H6  232   5.943   4.723  10.590  1.9664 -0.3925 -0.3788
    4CHL1    C7  233   5.966   4.729  10.373  0.2722 -1.1503  0.1136
    4CHL1   H7A  234   6.076   4.732  10.385 -0.0155  1.5940  3.5799
    4CHL1   H7B  235   5.923   4.628  10.351 -3.1024 -0.0398  1.0146
    4CHL1    C8  236   5.942   4.835  10.256  1.0108  0.0049  0.0135
    4CHL1    H8  237   5.991   4.934  10.268  0.0387  0.6412 -1.0215
    4CHL1   C14  238   5.988   4.777  10.114 -0.6109  1.0308 -0.4297
    4CHL1   H14  239   5.923   4.688  10.103  0.3023  0.3765 -0.6319
    4CHL1   C15  240   6.133   4.728  10.083  0.6204  0.1154 -0.9676
    4CHL1  H15A  241   6.192   4.805  10.137 -3.4766  0.2498  4.0889
    4CHL1  H15B  242   6.141   4.629  10.133 -0.4152 -0.5399 -2.0574
    4CHL1   C16  243   6.150   4.724   9.933  0.3075 -1.2315  0.3169
    4CHL1  H16A  244   6.225   4.803   9.915 -3.0887  2.0361 -0.7173
    4CHL1  H16B  245   6.184   4.625   9.896  0.1395 -1.5226  0.9311
    4CHL1   C17  246   6.006   4.771   9.883 -0.0402  0.3923 -0.0786
    4CHL1   H17  247   5.950   4.675   9.888  1.6465 -0.6322  0.1099
    4CHL1   C13  248   5.950   4.862   9.995 -0.2948 -0.6391  0.2010
    4CHL1   C18  249   6.026   5.001   9.996 -0.4622  0.1366 -0.3054
    4CHL1  H18A  250   6.136   4.985   9.991 -0.4942  0.0306 -0.6905
    4CHL1  H18B  251   5.995   5.065   9.910 -0.0401  1.5460  0.5458
    4CHL1  H18C  252   5.990   5.059  10.084 -0.6893 -1.0697  0.4084
    4CHL1   C12  253   5.800   4.881   9.994  0.0549  0.7187  0.3854
    4CHL1  H12A  254   5.771   4.940   9.904 -0.9764  1.7298  1.3570
    4CHL1  H12B  255   5.760   4.779   9.976  2.6863 -0.7727  2.2562
    4CHL1   C11  256   5.742   4.945  10.124 -0.4109  0.1921 -0.2950
    4CHL1  H11A  257   5.799   5.039  10.141  1.3518 -1.0499  1.1846
    4CHL1  H11B  258   5.634   4.969  10.122 -0.5179 -0.2751 -0.2539
    4CHL1    C9  259   5.790   4.870  10.253  0.0604 -0.0358 -0.5301
    4CHL1    H9  260   5.741   4.771  10.244  2.0696 -1.1117 -0.1738
    4CHL1   C10  261   5.737   4.939  10.388  0.4209 -0.4847  0.5321
    4CHL1   C19  262   5.765   5.092  10.389 -0.1305 -0.2937  0.2875
    4CHL1  H19A  263   5.724   5.144  10.478  1.5451  0.4076  0.6739
    4CHL1  H19B  264   5.870   5.118  10.411 -0.5817  0.8288  1.2336
    4CHL1  H19C  265   5.715   5.148  10.307 -1.5507  1.3178  2.1373
    4CHL1    C1  266   5.575   4.928  10.388  0.3103  0.2866 -0.3672
    4CHL1   H1A  267   5.534   5.009  10.324 -3.2192 -0.3063  0.9105
    4CHL1   H1B  268   5.546   4.826  10.354  0.9152 -0.0322  0.0615
    4CHL1    C2  269   5.520   4.955  10.531 -0.1977  0.0303  0.6888
    4CHL1   H2A  270   5.410   4.938  10.540 -0.4249  2.0437  2.4776
    4CHL1   H2B  271   5.547   5.061  10.547  0.6369 -0.2189  0.9917
    4CHL1   C20  272   5.987   4.829   9.743  0.6923  0.0725 -0.1774
    4CHL1   H20  273   5.983   4.940   9.749  1.6486  0.0261  2.7920
    4CHL1   C21  274   5.849   4.780   9.691  0.2759 -0.0438  0.3060
    4CHL1  H21A  275   5.818   4.820   9.592 -1.2338  1.1292  1.2213
    4CHL1  H21B  276   5.755   4.811   9.740  0.6868 -0.0311  1.1006
    4CHL1  H21C  277   5.850   4.669   9.679 -0.4508 -0.1453  1.1257
    4CHL1   C22  278   6.102   4.792   9.650  0.5078  0.7966  0.8563
    4CHL1  H22A  279   6.192   4.846   9.689 -0.0782  2.8092 -0.3933
    4CHL1  H22B  280   6.125   4.684   9.655 -0.0713  0.6507  0.4670
    4CHL1   C23  281   6.093   4.840   9.505 -0.2664  0.3695  0.7429
    4CHL1  H23A  282   6.004   4.797   9.454  1.6697 -1.4154 -1.3877
    4CHL1  H23B  283   6.077   4.949   9.498 -3.8554 -0.1216 -0.9025
    4CHL1   C24  284   6.215   4.784   9.425 -0.4871  0.4462 -0.0119
    4CHL1  H24A  285   6.310   4.811   9.475  1.0967 -3.0657 -0.7913
    4CHL1  H24B  286   6.209   4.673   9.425 -1.3529  0.4506 -1.7758
    4CHL1   C25  287   6.220   4.822   9.273 -0.1754 -0.0301 -0.0732
    4CHL1   H25  288   6.145   4.756   9.224 -0.3072 -0.6291  0.9237
    4CHL1   C26  289   6.193   4.968   9.248  0.3556  0.2384  0.9444
    4CHL1  H26A  290   6.212   4.997   9.142 -1.1169 -0.8632  0.3593
    4CHL1  H26B  291   6.084   4.985   9.261 -0.3685 -0.5735 -2.9409
    4CHL1  H26C  292   6.258   5.032   9.312 -0.0104 -0.8416  2.4597
    4CHL1   C27  293   6.358   4.774   9.212  0.5596  0.5510 -0.3025
    4CHL1  H27A  294   6.340   4.666   9.193  0.2287  0.9788 -2.6443
    4CHL1  H27B  295   6.369   4.812   9.108  0.4318 -0.5349 -0.7176
    4CHL1  H27C  296   6.432   4.799   9.291  0.4646 -3.2682  1.1847
    5CHL1    C3  297   0.075   3.602  10.224  0.3188 -0.0886  0.9124
    5CHL1    H3  298   0.086   3.504  10.171 -0.9599  0.8254 -1.1929
    5CHL1    O3  299   0.063   3.586  10.361 -0.1324  0.5954  0.3347
    5CHL1   H3'  300   0.031   3.670  10.392 -0.5401 -0.0595  1.7706
    5CHL1    C4  301   0.193   3.696  10.192 -0.0098  0.3425  0.3562
    5CHL1   H4A  302   0.173   3.793  10.242 -1.1930 -1.5548  3.9184
    5CHL1   H4B  303   0.286   3.657  10.238  1.3999  2.0424 -0.9389
    5CHL1    C5  304   0.217   3.716  10.039 -0.1537  0.2855  0.3361
    5CHL1    C6  305   0.334   3.678   9.983 -0.2067  0.1503  0.0974
    5CHL1    H6  306   0.415   3.632  10.043  0.0222  0.8528  0.3352
    5CHL1    C7  307   0.359   3.683   9.838 -0.7602 -0.6086  0.1546
    5CHL1   H7A  308   0.462   3.721   9.822 -1.8795  1.6312 -2.5652
    5CHL1   H7B  309   0.352   3.580   9.798 -0.2060  0.0782 -1.8193
    5CHL1    C8  310   0.260   3.783   9.765  0.2786 -0.3742 -0.0123
    5CHL1    H8  311   0.285   3.885   9.800  1.6772 -0.3838 -0.8791
    5CHL1   C14  312   0.264   3.767   9.611 -0.3966 -0.1239 -0.6815
    5CHL1   H14  313   0.245   3.660   9.590 -0.6456  0.4307 -3.6857
    5CHL1   C15  314   0.402   3.791   9.550 -0.2428  0.1044  0.5661
    5CHL1  H15A  315   0.449   3.880   9.598  0.3465  0.2778 -0.3125
    5CHL1  H15B  316   0.458   3.695   9.552 -1.3879 -0.5970  0.0673
    5CHL1   C16  317   0.367   3.817   9.404 -0.0458  0.2263 -1.0095
    5CHL1  H16A  318   0.402   3.920   9.380 -0.2853  0.1383 -1.7412
    5CHL1  H16B  319   0.415   3.742   9.338  3.0298  2.1763 -1.2113
    5CHL1   C17  320   0.216   3.810   9.396  0.0467 -0.1729  0.2941
    5CHL1   H17  321   0.187   3.704   9.382  1.9863 -0.6863 -0.1922
    5CHL1   C13  322   0.164   3.842   9.536  0.2127  0.7169 -0.6396
    5CHL1   C18  323   0.174   3.994   9.552  0.4094 -0.1642 -0.9057
    5CHL1  H18A  324   0.272   4.036   9.519  1.1082  0.2198  1.4335
    5CHL1  H18B  325   0.096   4.053   9.499  0.3293  0.9121  0.3511
    5CHL1  H18C  326   0.166   4.024   9.659  0.1896 -0.4964 -0.8304
    5CHL1   C12  327   0.025   3.797   9.576  0.3928  0.3196  0.0091
    5CHL1  H12A  328  -0.049   3.851   9.514 -0.0730  2.7706  2.4693
    5CHL1  H12B  329   0.015   3.689   9.554  0.2215  0.6757 -1.8174
    5CHL1   C11  330   0.005   3.812   9.723 -0.2684  0.4655  0.2720
    5CHL1  H11A  331   0.007   3.920   9.749  0.3856  0.2177  1.3215
    5CHL1  H11B  332  -0.091   3.764   9.752 -1.1244  0.6862 -1.9322
    5CHL1    C9  333   0.114   3.749   9.815  0.3929  0.1185 -0.4431
    5CHL1    H9  334   0.110   3.639   9.801 -1.5272  0.0764  0.1010
    5CHL1   C10  335   0.097   3.768   9.962 -0.2257  0.3032 -0.3651
    5CHL1   C19  336   0.076   3.916   9.986 -0.3231 -0.5022 -0.4679
    5CHL1  H19A  337  -0.018   3.959   9.946 -0.0922  1.4413  0.9224
    5CHL1  H19B  338   0.068   3.939  10.095 -1.2384  1.2699 -0.8738
    5CHL1  H19C  339   0.164   3.974   9.950 -0.8334  0.0660 -0.8041
    5CHL1    C1  340  -0.030   3.697  10.014 -0.1152  0.2617 -0.3987
    5CHL1   H1A  341  -0.127   3.745   9.987 -0.9598 -0.4574  1.1590
    5CHL1   H1B  342  -0.038   3.596   9.968 -0.1763  0.0717  0.0203
    5CHL1    C2  343  -0.048   3.676  10.162  0.1335  0.5473 -0.0578
    5CHL1   H2A  344  -0.138   3.616  10.187 -0.4047  1.2627 -0.2275
    5CHL1   H2B  345  -0.060   3.770  10.221 -0.9605 -1.6250  3.4757
    5CHL1   C20  346   0.146   3.866   9.273 -0.0002 -0.3917 -0.0587
    5CHL1   H20  347   0.071   3.941   9.305  0.1932  1.1060 -2.7436
    5CHL1   C21  348   0.059   3.752   9.215  0.2932  0.3433  0.2325
    5CHL1  H21A  349  -0.004   3.794   9.133 -0.1599 -2.1015 -0.7563
    5CHL1  H21B  350  -0.000   3.693   9.288 -0.2328  0.7527  0.1449
    5CHL1  H21C  351   0.127   3.679   9.165  1.9572  0.6512  1.9521
    5CHL1   C22  352   0.242   3.922   9.168 -0.0830 -0.5192 -0.0791
    5CHL1  H22A  353   0.317   3.987   9.218  0.8447 -0.8906 -0.9463
    5CHL1  H22B  354   0.298   3.831   9.138 -0.7605 -0.7932 -0.5196
    5CHL1   C23  355   0.175   4.004   9.051  0.3039 -0.1175 -0.5204
    5CHL1  H23A  356   0.099   3.946   8.994  1.0054  1.6081 -3.4597
    5CHL1  H23B  357   0.121   4.090   9.095 -1.8750 -2.1069  0.9827
    5CHL1   C24  358   0.278   4.058   8.951  0.5081 -0.1569 -0.1447
    5CHL1  H24A  359   0.355   4.116   9.007  1.9822  0.2187 -2.4279
    5CHL1  H24B  360   0.328   3.969   8.907  0.1112 -1.5813  2.1254
    5CHL1   C25  361   0.220   4.128   8.824  0.0077 -0.7195 -0.5506
    5CHL1   H25  362   0.294   4.155   8.745  1.0382 -1.7177  0.0452
    5CHL1   C26  363   0.128   4.033   8.752 -0.2065  0.0348  0.4479
    5CHL1  H26A  364   0.027   4.025   8.798 -0.8596  1.3678 -0.7110
    5CHL1  H26B  365   0.115   4.060   8.646 -2.0146 -0.7045  0.4348
    5CHL1  H26C  366   0.173   3.931   8.752 -1.4139 -0.6077  3.2312
    5CHL1   C27  367   0.137   4.256   8.854 -0.0352  0.4581 -0.7536
    5CHL1  H27A  368   0.206   4.319   8.914  1.1136 -1.7899  0.4077
    5CHL1  H27B  369   0.116   4.307   8.758 -0.0928 -0.9581 -1.5274
    5CHL1  H27C  370   0.044   4.232   8.910 -0.5819  1.2979 -1.2845
    6CHL1    C3  371   4.527   5.861  10.385  0.0142  0.4629  0.1438
    6CHL1    H3  372   4.451   5.780  10.396  0.1479  0.4414  0.9785
    6CHL1    O3  373   4.540   5.931  10.509 -0.1083  0.1065  0.3158
    6CHL1   H3'  374   4.569   6.018  10.480 -0.4769 -0.2188 -1.0962
    6CHL1    C4  375   4.656   5.799  10.332  0.0930 -0.4862 -0.1250
    6CHL1   H4A  376   4.726   5.885  10.326  0.8194 -1.1023 -0.5432
    6CHL1   H4B  377   4.682   5.727  10.412  0.0480  1.5612  1.8247
    6CHL1    C5  378   4.650   5.733  10.197  0.2165  0.1279 -0.2402
    6CHL1    C6  379   4.689   5.607  10.181 -0.4149 -0.2122 -0.0344
    6CHL1    H6  380   4.739   5.541  10.253  1.0561 -1.4726 -2.0984
    6CHL1    C7  381   4.676   5.533  10.046 -0.6314 -0.2170 -0.4922
    6CHL1   H7A  382   4.775   5.489  10.020  0.1485  0.5454  1.0453
    6CHL1   H7B  383   4.601   5.454  10.065 -0.6395  0.0680  0.7118
    6CHL1    C8  384   4.616   5.616   9.933 -0.0312  0.0065  0.1706
    6CHL1    H8  385   4.700   5.672   9.885 -0.4810  0.8527  0.3622
    6CHL1   C14  386   4.560   5.521   9.826 -0.2989 -0.4344 -0.2958
    6CHL1   H14  387   4.477   5.467   9.876  0.5541 -1.9140 -0.4261
    6CHL1   C15  388   4.648   5.410   9.763  0.1049 -1.2293 -0.8145
    6CHL1  H15A  389   4.750   5.442   9.735  0.3520 -1.6695 -0.4379
    6CHL1  H15B  390   4.657   5.321   9.830  2.8774  1.0779  2.1843
    6CHL1   C16  391   4.568   5.368   9.635  0.3839 -0.3347 -0.7203
    6CHL1  H16A  392   4.635   5.371   9.547  1.5633  0.1599  0.1651
    6CHL1  H16B  393   4.511   5.274   9.646 -1.2254  0.7764  1.2525
    6CHL1   C17  394   4.459   5.478   9.616  0.0369 -0.0602 -0.1728
    6CHL1   H17  395   4.371   5.435   9.668  1.7412 -1.1995  1.9250
    6CHL1   C13  396   4.506   5.601   9.702 -0.1430 -0.3073  0.7690
    6CHL1   C18  397   4.608   5.685   9.623  0.1374 -0.6485  0.2969
    6CHL1  H18A  398   4.656   5.754   9.697 -0.8140  1.5519 -1.0636
    6CHL1  H18B  399   4.684   5.614   9.583 -1.6054 -1.4826 -1.6908
    6CHL1  H18C  400   4.554   5.738   9.543 -1.3858 -3.3575 -0.5672
    6CHL1   C12  401   4.397   5.698   9.754 -0.0045  0.7443  0.2892
    6CHL1  H12A  402   4.353   5.766   9.677  2.8407  3.4636  0.8899
    6CHL1  H12B  403   4.320   5.632   9.800 -0.3593 -0.8816 -2.3875
    6CHL1   C11  404   4.452   5.796   9.865 -0.2046  0.1983  0.7441
    6CHL1  H11A  405   4.516   5.875   9.820  1.0472 -1.2796 -0.1637
    6CHL1  H11B  406   4.358   5.845   9.897 -0.6751 -1.0553  1.3440
    6CHL1    C9  407   4.519   5.716   9.986 -0.1092  0.5466  0.1923
    6CHL1    H9  408   4.437   5.657  10.031  0.3655 -1.1189 -1.0173
    6CHL1   C10  409   4.579   5.809  10.092  0.0558 -0.9980  0.5922
    6CHL1   C19  410   4.675   5.912  10.034 -0.4279  0.0406 -0.2282
    6CHL1  H19A  411   4.627   5.982   9.962 -0.9214 -0.8632 -0.7886
    6CHL1  H19B  412   4.711   5.983  10.112 -1.6611 -0.2060  0.5961
    6CHL1  H19C  413   4.763   5.856   9.996  0.2822 -0.9979  2.6573
    6CHL1    C1  414   4.452   5.881  10.151 -0.7631  0.6951  0.6106
    6CHL1   H1A  415   4.410   5.951  10.076  0.2884 -0.6169 -1.2616
    6CHL1   H1B  416   4.382   5.800  10.181 -1.1884  0.9883  0.4395
    6CHL1    C2  417   4.470   5.956  10.280 -0.0985 -0.6883 -0.4937
    6CHL1   H2A  418   4.384   6.016  10.317 -1.4859 -3.1317  0.4390
    6CHL1   H2B  419   4.552   6.027  10.254 -0.8963  0.7226  0.7119
    6CHL1   C20  420   4.414   5.496   9.471  0.4051  0.5253  0.1097
    6CHL1   H20  421   4.491   5.558   9.420  1.7482 -0.4116  0.9360
    6CHL1   C21  422   4.277   5.565   9.471  0.2288  0.1613  0.0572
    6CHL1  H21A  423   4.200   5.510   9.530  0.1803 -0.7560 -0.8369
    6CHL1  H21B  424   4.229   5.559   9.371  0.7303 -0.5787 -0.1490
    6CHL1  H21C  425   4.298   5.668   9.506  0.6001 -0.2545  1.1162
    6CHL1   C22  426   4.406   5.376   9.383 -0.3439  0.7455  0.7223
    6CHL1  H22A  427   4.491   5.310   9.409 -1.6892 -0.2466  2.8778
    6CHL1  H22B  428   4.311   5.324   9.410 -0.6015  0.3611 -0.8369
    6CHL1   C23  429   4.415   5.412   9.237 -1.1330 -0.6758 -0.2597
    6CHL1  H23A  430   4.350   5.493   9.197 -1.1601 -1.1528 -1.2279
    6CHL1  H23B  431   4.515   5.456   9.217 -1.4766  0.2811  0.0810
    6CHL1   C24  432   4.392   5.293   9.148 -0.6135  0.0883 -0.2988
    6CHL1  H24A  433   4.464   5.215   9.182 -2.0369 -0.2715  2.1809
    6CHL1  H24B  434   4.298   5.253   9.191 -0.3816  0.5210  0.6448
    6CHL1   C25  435   4.392   5.311   8.994  0.3762  1.1577 -0.6546
    6CHL1   H25  436   4.327   5.397   8.968 -0.5917  1.0456  1.1859
    6CHL1   C26  437   4.527   5.329   8.935  0.4853  0.2680  0.0256
    6CHL1  H26A  438   4.580   5.415   8.982 -0.9763  1.0643  0.2557
    6CHL1  H26B  439   4.591   5.244   8.969 -1.9601 -2.9327 -2.6701
    6CHL1  H26C  440   4.530   5.338   8.824  0.9484 -0.1453 -0.0043
    6CHL1   C27  441   4.309   5.192   8.932  0.4923 -0.5201 -0.0027
    6CHL1  H27A  442   4.349   5.089   8.945 -0.4904 -0.5908  3.6319
    6CHL1  H27B  443   4.211   5.200   8.983  1.1545 -0.5549  1.3151
    6CHL1  H27C  444   4.281   5.202   8.825 -1.9323 -0.7919  0.5632
    7CHL1    C3  445   1.172   3.993  10.628  0.3828  0.0197  0.4245
    7CHL1    H3  446   1.280   4.012  10.650 -0.4583  1.1376  4.3921
    7CHL1    O3  447   1.098   3.987  10.745  0.5412 -0.3172 -0.0697
    7CHL1   H3'  448   1.037   4.061  10.738  0.3903 -0.5281 -1.1462
    7CHL1    C4  449   1.111   4.120  10.555  0.1236  0.5501  0.1478
    7CHL1   H4A  450   1.000   4.122  10.553  0.1305  1.3269 -2.0967
    7CHL1   H4B  451   1.144   4.212  10.607 -0.7123  0.0823  1.5394
    7CHL1    C5  452   1.158   4.136  10.413 -0.2060  0.3526 -0.0485
    7CHL1    C6  453   1.222   4.245  10.376 -0.4752  0.3862 -0.2074
    7CHL1    H6  454   1.234   4.333  10.441 -0.9193 -0.0639  0.4971
    7CHL1    C7  455   1.272   4.269  10.234  0.7298  0.1389  0.1118
    7CHL1   H7A  456   1.253   4.375  10.206  1.3872 -0.2654 -2.1231
    7CHL1   H7B  457   1.380   4.250  10.220  0.5139 -0.9216 -0.1894
    7CHL1    C8  458   1.203   4.170  10.132 -0.1513  0.8528  0.3342
    7CHL1    H8  459   1.094   4.189  10.123 -0.3035 -0.8854 -2.6787
    7CHL1   C14  460   1.252   4.187   9.982  0.0557  0.0204 -0.6761
    7CHL1   H14  461   1.360   4.164   9.984 -0.1406 -0.9445 -0.5661
    7CHL1   C15  462   1.227   4.322   9.918  1.1451 -0.1360 -0.3740
    7CHL1  H15A  463   1.122   4.355   9.933  2.9074  5.1332  3.9106
    7CHL1  H15B  464   1.288   4.402   9.967  0.2917  1.4344 -1.7507
    7CHL1   C16  465   1.255   4.295   9.771 -0.8250  0.2608 -0.2924
    7CHL1  H16A  466   1.183   4.346   9.703 -2.5850  0.9045  1.9430
    7CHL1  H16B  467   1.356   4.331   9.743 -1.4362  1.7750 -0.6683
    7CHL1   C17  468   1.267   4.135   9.764  0.5247  0.0684 -0.4029
    7CHL1   H17  469   1.375   4.115   9.781  0.5960  0.7344 -0.0410
    7CHL1   C13  470   1.197   4.086   9.893  0.4386  0.7468 -0.0047
    7CHL1   C18  471   1.045   4.105   9.854 -0.3564 -0.4883 -0.4210
    7CHL1  H18A  472   0.984   4.104   9.947 -0.2823  0.2724 -0.3579
    7CHL1  H18B  473   1.021   4.189   9.786  0.4754 -1.0154 -1.4063
    7CHL1  H18C  474   1.024   4.013   9.795 -0.4523  0.3441 -1.7107
    7CHL1   C12  475   1.236   3.945   9.943  0.4027  0.4019  0.3443
    7CHL1  H12A  476   1.186   3.865   9.885  1.1759 -0.1032  0.3480
    7CHL1  H12B  477   1.346   3.929   9.939  0.1967 -0.7100 -1.4975
    7CHL1   C11  478   1.181   3.922  10.085  0.5685 -0.1326  0.2554
    7CHL1  H11A  479   1.072   3.928  10.062  0.3549 -0.0593  1.2579
    7CHL1  H11B  480   1.199   3.818  10.117 -2.6561 -0.0069  3.0543
    7CHL1    C9  481   1.216   4.029  10.184 -1.6049  0.6093 -0.0742
    7CHL1    H9  482   1.322   4.008  10.212 -2.1152 -1.3193  0.5468
    7CHL1   C10  483   1.143   4.010  10.319  0.3901  0.3838  0.3332
    7CHL1   C19  484   0.983   4.002  10.292 -0.2308  0.5566 -0.2334
    7CHL1  H19A  485   0.928   3.994  10.388 -2.4116  1.4920 -1.3438
    7CHL1  H19B  486   0.949   4.096  10.243 -2.0643  1.8009  3.1331
    7CHL1  H19C  487   0.964   3.910  10.233 -0.1888 -0.3680  1.1466
    7CHL1    C1  488   1.196   3.885  10.394 -0.0273  0.1660 -0.1851
    7CHL1   H1A  489   1.194   3.790  10.337  0.0223  0.6163 -0.9383
    7CHL1   H1B  490   1.303   3.907  10.411 -0.1134  2.4945 -2.2231
    7CHL1    C2  491   1.140   3.876  10.540  0.7510  0.7526  0.2260
    7CHL1   H2A  492   1.188   3.787  10.585  1.5993  0.3368 -1.4102
    7CHL1   H2B  493   1.031   3.856  10.531  1.2762 -2.2827 -0.6023
    7CHL1   C20  494   1.229   4.071   9.632  0.0980  0.3939 -0.2056
    7CHL1   H20  495   1.119   4.077   9.622  0.1853  2.6836 -0.2782
    7CHL1   C21  496   1.286   3.924   9.633  0.8857  0.0453 -0.1173
    7CHL1  H21A  497   1.319   3.891   9.532  0.7113  1.9570 -0.8318
    7CHL1  H21B  498   1.215   3.857   9.685  0.0917  0.9985  0.0510
    7CHL1  H21C  499   1.383   3.927   9.689  1.3256  1.9832 -0.9109
    7CHL1   C22  500   1.288   4.146   9.506 -0.5939 -0.1394 -0.7223
    7CHL1  H22A  501   1.271   4.254   9.528  0.3620 -0.4371  1.8867
    7CHL1  H22B  502   1.397   4.127   9.517 -0.8030 -1.0025 -0.0159
    7CHL1   C23  503   1.228   4.102   9.375  0.9706  0.1211  0.3480
    7CHL1  H23A  504   1.270   4.172   9.299  2.2735  0.1626  1.0860
    7CHL1  H23B  505   1.259   3.997   9.357  2.5276  0.2462  2.0381
    7CHL1   C24  506   1.077   4.115   9.357 -0.5157  0.4617 -0.2316
    7CHL1  H24A  507   1.023   4.046   9.425  0.6650  0.3455  0.6299
    7CHL1  H24B  508   1.038   4.218   9.373  1.7776  1.2017  1.0233
    7CHL1   C25  509   1.028   4.066   9.218 -0.5852 -0.1040  0.5702
    7CHL1   H25  510   1.079   3.968   9.205  0.0861  0.2622  0.4072
    7CHL1   C26  511   0.880   4.033   9.229 -0.0028 -0.0645 -0.1165
    7CHL1  H26A  512   0.854   3.976   9.137  3.5857 -0.6565 -0.9178
    7CHL1  H26B  513   0.852   3.974   9.319 -1.0836 -1.5033 -1.3459
    7CHL1  H26C  514   0.820   4.126   9.237  1.7571  1.2024 -0.7752
    7CHL1   C27  515   1.058   4.165   9.104 -0.2492  0.0743 -0.2056
    7CHL1  H27A  516   1.045   4.267   9.146  2.8952 -0.9986  4.1135
    7CHL1  H27B  517   1.165   4.159   9.076 -0.8502 -0.8508 -2.5536
    7CHL1  H27C  518   0.990   4.145   9.018  0.3357  0.0305 -0.6649
    8CHL1    C3  519   2.215   6.076  10.350  0.6197  1.0495 -0.7334
    8CHL1    H3  520   2.319   6.042  10.329  0.8455  0.9377  0.4919
    8CHL1    O3  521   2.204   6.078  10.496  0.0466 -0.4106  0.1075
    8CHL1   H3'  522   2.199   6.171  10.520 -0.5197 -0.2128 -0.7478
    8CHL1    C4  523   2.185   6.203  10.282 -0.1443  0.3063 -0.1677
    8CHL1   H4A  524   2.083   6.235  10.312  0.1406  1.2747 -0.2120
    8CHL1   H4B  525   2.256   6.282  10.315 -1.4056  2.0900 -1.5367
    8CHL1    C5  526   2.194   6.201  10.128  0.0595 -0.1176 -0.0123
    8CHL1    C6  527   2.270   6.282  10.050 -0.3479 -0.3630  0.6290
    8CHL1    H6  528   2.319   6.365  10.103 -1.8879  0.6339  0.5537
    8CHL1    C7  529   2.288   6.277   9.899  0.2735 -0.0914 -0.2953
    8CHL1   H7A  530   2.281   6.378   9.854 -2.5051  0.4539  1.1252
    8CHL1   H7B  531   2.390   6.245   9.871  0.0296  1.7027 -3.7382
    8CHL1    C8  532   2.186   6.175   9.833  0.2653  0.1362 -0.4443
    8CHL1    H8  533   2.091   6.233   9.840  1.0779  1.5117 -0.3142
    8CHL1   C14  534   2.236   6.137   9.697  0.8776  0.6549  0.4201
    8CHL1   H14  535   2.332   6.082   9.714  1.2435  1.0692 -0.2656
    8CHL1   C15  536   2.283   6.252   9.601 -0.2973 -0.1177 -0.5626
    8CHL1  H15A  537   2.206   6.332   9.611 -0.8218 -0.4959 -1.4793
    8CHL1  H15B  538   2.378   6.297   9.638  0.4130 -1.6964 -0.3933
    8CHL1   C16  539   2.286   6.188   9.464 -0.0573  0.1895  0.1760
    8CHL1  H16A  540   2.244   6.250   9.381  0.3758 -2.6689 -2.3471
    8CHL1  H16B  541   2.387   6.157   9.432 -0.9071 -2.4041 -0.2111
    8CHL1   C17  542   2.218   6.051   9.481 -0.4726 -0.4442  0.5939
    8CHL1   H17  543   2.292   5.970   9.499  1.9275  1.1723 -1.2519
    8CHL1   C13  544   2.141   6.059   9.609  0.2598 -0.3357 -0.7600
    8CHL1   C18  545   2.010   6.134   9.582  0.5665  0.2004 -0.3695
    8CHL1  H18A  546   1.954   6.148   9.676 -0.0810  0.5832 -0.8033
    8CHL1  H18B  547   2.025   6.231   9.529 -0.6106  0.3450 -0.4700
    8CHL1  H18C  548   1.939   6.072   9.524 -1.4972 -0.7887  2.9529
    8CHL1   C12  549   2.128   5.930   9.692  1.0349  0.8052 -0.1261
    8CHL1  H12A  550   2.055   5.858   9.650  0.3669  1.7498 -0.6231
    8CHL1  H12B  551   2.221   5.868   9.697 -0.9427 -2.3376  0.4338
    8CHL1   C11  552   2.083   5.944   9.838  0.0354  0.3364  0.9872
    8CHL1  H11A  553   1.977   5.976   9.826 -0.0641  0.3505  1.8636
    8CHL1  H11B  554   2.088   5.845   9.888  1.1556 -0.3703 -0.4282
    8CHL1    C9  555   2.162   6.052   9.915 -0.0306  0.6372 -0.1737
    8CHL1    H9  556   2.256   5.996   9.937 -0.3772 -0.6090 -1.6891
    8CHL1   C10  557   2.117   6.080  10.063  0.5996  0.3033 -0.2941
    8CHL1   C19  558   1.963   6.106  10.069 -0.2543  0.6842  0.6432
    8CHL1  H19A  559   1.946   6.207  10.026 -2.1827  0.2827  0.3823
    8CHL1  H19B  560   1.909   6.020  10.024  1.7893 -0.7771  0.8065
    8CHL1  H19C  561   1.924   6.116  10.172  0.1765 -1.3177  1.0589
    8CHL1    C1  562   2.138   5.948  10.149  0.3170 -0.4661  0.3281
    8CHL1   H1A  563   2.057   5.878  10.116 -2.1938  2.5512 -0.4310
    8CHL1   H1B  564   2.239   5.904  10.140 -0.4637 -2.5907  1.3470
    8CHL1    C2  565   2.113   5.965  10.302  0.3987  0.4141  0.0019
    8CHL1   H2A  566   2.135   5.872  10.360 -1.1494  0.6611  1.0497
    8CHL1   H2B  567   2.008   5.994  10.319 -0.0498  1.1558 -3.3207
    8CHL1   C20  568   2.149   6.000   9.353  0.4110 -0.2778  0.3125
    8CHL1   H20  569   2.060   6.063   9.329  2.1841  1.9105 -1.0264
    8CHL1   C21  570   2.099   5.857   9.377 -0.0002  0.0370  0.6112
    8CHL1  H21A  571   2.181   5.790   9.411 -0.6998 -1.8172 -1.1357
    8CHL1  H21B  572   2.065   5.815   9.280 -2.1680  1.4660  0.6876
    8CHL1  H21C  573   2.007   5.847   9.438 -1.6509 -0.5555 -1.7992
    8CHL1   C22  574   2.249   6.004   9.233  0.1006  0.1930 -0.3786
    8CHL1  H22A  575   2.315   6.093   9.229 -1.0655  1.0933 -0.3043
    8CHL1  H22B  576   2.318   5.918   9.233  0.7202  0.6528  1.2649
    8CHL1   C23  577   2.180   5.998   9.098  0.2283 -0.3680 -0.1892
    8CHL1  H23A  578   2.134   5.897   9.093  0.5021 -0.4466 -1.3832
    8CHL1  H23B  579   2.091   6.065   9.101 -0.3460 -1.0938 -0.5279
    8CHL1   C24  580   2.262   6.036   8.976  0.0310  0.0115  0.1783
    8CHL1  H24A  581   2.286   6.144   8.982 -1.7754  0.3905  1.1164
    8CHL1  H24B  582   2.351   5.969   8.972 -1.1218 -1.5548 -0.3083
    8CHL1   C25  583   2.186   6.022   8.835  0.0836 -0.6323 -0.6262
    8CHL1   H25  584   2.168   5.917   8.802 -1.4004 -0.5852 -0.0548
    8CHL1   C26  585   2.052   6.095   8.833  0.0680  0.8149  0.0459
    8CHL1  H26A  586   2.014   6.096   8.729 -1.0566 -2.4339  0.3028
    8CHL1  H26B  587   1.969   6.046   8.889  1.4850 -1.7133  0.0791
    8CHL1  H26C  588   2.065   6.195   8.880 -0.5842  0.0015  2.0877
    8CHL1   C27  589   2.273   6.085   8.729 -0.1836 -0.1132  0.7220
    8CHL1  H27A  590   2.377   6.046   8.732 -0.5160 -1.1086 -0.3410
    8CHL1  H27B  591   2.238   6.069   8.625  0.9430 -2.1985  0.6161
    8CHL1  H27C  592   2.279   6.195   8.747  2.0661 -0.1573  0.4647
    9CHL1    C3  593   4.406   0.840  10.227 -0.4899 -0.5618  0.1135
    9CHL1    H3  594   4.516   0.852  10.230 -0.6637  1.9963 -1.3083
    9CHL1    O3  595   4.343   0.802  10.346  0.5181  0.4648 -0.2402
    9CHL1   H3'  596   4.249   0.797  10.327  0.8643 -0.5562 -1.8031
    9CHL1    C4  597   4.345   0.975  10.192  0.1959 -0.4258  0.0759
    9CHL1   H4A  598   4.239   0.974  10.226  0.4543 -1.8677  0.9298
    9CHL1   H4B  599   4.376   1.049  10.269 -2.7711 -0.6434  1.6248
    9CHL1    C5  600   4.374   1.032  10.058 -0.1693 -0.2778 -0.0091
    9CHL1    C6  601   4.434   1.145  10.034  0.2828  0.6133  0.3374
    9CHL1    H6  602   4.454   1.211  10.120 -4.2233  2.4516  0.2391
    9CHL1    C7  603   4.475   1.201   9.901  0.1293 -0.5177  0.1097
    9CHL1   H7A  604   4.448   1.309   9.906  0.2596 -0.5420  1.9236
    9CHL1   H7B  605   4.586   1.212   9.905 -0.0660  1.5800  2.6340
    9CHL1    C8  606   4.424   1.129   9.775 -0.0141  0.2176  0.2410
    9CHL1    H8  607   4.315   1.146   9.761  0.3927  1.1250 -2.2668
    9CHL1   C14  608   4.511   1.165   9.658  0.7268  0.0845  0.7796
    9CHL1   H14  609   4.615   1.143   9.688  3.2665  5.0281 -2.8015
    9CHL1   C15  610   4.523   1.310   9.625  0.0065 -0.0724  0.5785
    9CHL1  H15A  611   4.430   1.368   9.645 -0.0653 -1.0833  3.6288
    9CHL1  H15B  612   4.607   1.356   9.682  2.0968  0.8747 -2.9568
    9CHL1   C16  613   4.553   1.303   9.475  0.3044  0.4890  0.7349
    9CHL1  H16A  614   4.477   1.359   9.416 -0.3766  0.6169  1.7100
    9CHL1  H16B  615   4.654   1.341   9.451  0.9266 -2.4238 -1.9305
    9CHL1   C17  616   4.564   1.149   9.432  0.2597 -0.8072 -0.0576
    9CHL1   H17  617   4.669   1.118   9.450  0.6344 -1.0146 -2.2897
    9CHL1   C13  618   4.473   1.083   9.536 -0.6258  0.1509 -0.2039
    9CHL1   C18  619   4.328   1.110   9.494 -0.2314 -0.0480  0.2611
    9CHL1  H18A  620   4.319   1.219   9.475  0.6594 -0.0880 -0.4698
    9CHL1  H18B  621   4.296   1.060   9.401 -1.8429  1.7887 -0.2164
    9CHL1  H18C  622   4.255   1.077   9.571 -0.2468  1.4545  0.9410
    9CHL1   C12  623   4.497   0.937   9.568 -0.5993  0.6370 -0.4686
    9CHL1  H12A  624   4.488   0.872   9.479 -0.5569 -0.3373  0.2320
    9CHL1  H12B  625   4.602   0.920   9.598 -0.0506  2.0206 -1.5064
    9CHL1   C11  626   4.423   0.880   9.686  0.6737  0.0030 -0.4487
    9CHL1  H11A  627   4.316   0.879   9.655 -0.1010  3.5126  1.5106
    9CHL1  H11B  628   4.440   0.773   9.710 -3.8991 -1.3338 -2.0605
    9CHL1    C9  629   4.431   0.974   9.813  0.6214 -0.0913 -0.4306
    9CHL1    H9  630   4.539   0.969   9.836  0.9984 -1.1556 -2.2423
    9CHL1   C10  631   4.353   0.932   9.939 -0.7459  0.4964  0.8733
    9CHL1   C19  632   4.210   0.937   9.899 -0.7966  0.5937  0.9291
    9CHL1  H19A  633   4.172   1.034   9.860  0.4720  1.0793  0.8551
    9CHL1  H19B  634   4.183   0.858   9.825 -1.9044  0.1206  1.8097
    9CHL1  H19C  635   4.152   0.908   9.989  1.0317  0.2549  2.0536
    9CHL1    C1  636   4.397   0.788   9.967 -0.0124 -0.3866  0.1959
    9CHL1   H1A  637   4.342   0.726   9.893  2.5241 -0.7192 -1.5260
    9CHL1   H1B  638   4.506   0.774   9.949 -0.2666  0.4159 -2.4474
    9CHL1    C2  639   4.365   0.744  10.111 -0.1104  0.3508 -1.2523
    9CHL1   H2A  640   4.424   0.651  10.125 -1.8721 -0.6925 -0.4271
    9CHL1   H2B  641   4.254   0.734  10.116  0.0130 -2.3044 -1.9833
    9CHL1   C20  642   4.539   1.119   9.277  0.0673 -0.6588 -0.2467
    9CHL1   H20  643   4.447   1.175   9.252  1.0109  1.2018  0.3150
    9CHL1   C21  644   4.518   0.969   9.242 -0.3106  0.1203  0.0441
    9CHL1  H21A  645   4.591   0.902   9.291 -1.7896 -0.2003  1.9366
    9CHL1  H21B  646   4.530   0.953   9.132  0.0873 -0.6180  0.1928
    9CHL1  H21C  647   4.416   0.928   9.260  0.1193 -0.8889  0.2148
    9CHL1   C22  648   4.658   1.174   9.192 -0.6006 -0.1349  0.2724
    9CHL1  H22A  649   4.678   1.273   9.238  0.6223 -1.1560  2.0492
    9CHL1  H22B  650   4.750   1.114   9.208 -0.7446 -0.7260 -0.9752
    9CHL1   C23  651   4.628   1.181   9.044 -0.2600  0.1226  0.9906
    9CHL1  H23A  652   4.575   1.095   8.997 -0.6108 -0.7390  2.8861
    9CHL1  H23B  653   4.561   1.268   9.023 -0.4362 -0.4701 -1.2050
    9CHL1   C24  654   4.754   1.214   8.958 -0.5561  0.0376 -0.0266
    9CHL1  H24A  655   4.798   1.310   8.994 -1.0464 -0.4524  1.9586
    9CHL1  H24B  656   4.816   1.127   8.987 -1.1208  0.6964  3.6971
    9CHL1   C25  657   4.725   1.217   8.805 -0.1961 -0.1756 -0.2803
    9CHL1   H25  658   4.706   1.113   8.771  1.3912 -0.7877  0.6045
    9CHL1   C26  659   4.615   1.313   8.768 -0.0736  0.7015  0.0542
    9CHL1  H26A  660   4.611   1.309   8.657  0.0697 -3.1021  0.0719
    9CHL1  H26B  661   4.517   1.281   8.809 -0.3193 -0.0493 -1.0750
    9CHL1  H26C  662   4.637   1.420   8.788  0.7502  1.1331 -2.6730
    9CHL1   C27  663   4.860   1.252   8.733  0.4646  0.1053 -0.6570
    9CHL1  H27A  664   4.941   1.196   8.786 -0.8879 -0.7349  0.5975
    9CHL1  H27B  665   4.849   1.212   8.630  0.3141  0.8036 -0.9185
    9CHL1  H27C  666   4.881   1.361   8.732  0.2714  0.1442 -0.5566
   10CHL1    C3  667   3.552   6.174  10.212 -0.0838  0.1846 -0.3194
   10CHL1    H3  668   3.628   6.245  10.174  2.6677 -1.8173  1.1248
   10CHL1    O3  669   3.495   6.216  10.335 -0.3588  0.9462 -0.9565
   10CHL1   H3'  670   3.456   6.137  10.372  1.1661  0.3099 -0.6036
   10CHL1    C4  671   3.433   6.180  10.110 -0.0255 -0.2341 -0.3313
   10CHL1   H4A  672   3.356   6.116  10.159 -0.7728 -0.3715 -1.6514
   10CHL1   H4B  673   3.379   6.276  10.106 -0.0791 -0.2896 -0.9716
   10CHL1    C5  674   3.489   6.134   9.975  0.4420 -0.3601 -0.6312
   10CHL1    C6  675   3.470   6.217   9.879 -1.3238 -0.1057  1.1110
   10CHL1    H6  676   3.418   6.311   9.902 -0.4282  0.4998  0.7013
   10CHL1    C7  677   3.525   6.192   9.744 -0.3426  0.7757  0.2103
   10CHL1   H7A  678   3.452   6.220   9.666 -2.7495  0.9398  2.3994
   10CHL1   H7B  679   3.621   6.244   9.720  0.5624 -0.3376  1.2930
   10CHL1    C8  680   3.567   6.044   9.717  0.4509  1.1740 -0.2832
   10CHL1    H8  681   3.473   5.986   9.714  0.4092  1.1215  1.2480
   10CHL1   C14  682   3.634   6.025   9.582 -1.2139  0.4990  0.3114
   10CHL1   H14  683   3.724   6.091   9.583 -1.0134  0.2334 -0.0266
   10CHL1   C15  684   3.561   6.060   9.448  0.4640  0.4099 -0.9747
   10CHL1  H15A  685   3.457   6.020   9.449  0.4660  0.3532  1.1308
   10CHL1  H15B  686   3.556   6.166   9.416 -0.0636  1.4533  2.1928
   10CHL1   C16  687   3.634   5.990   9.338  0.0165 -0.0412 -0.9650
   10CHL1  H16A  688   3.566   5.937   9.267 -1.7148 -0.1944  0.7161
   10CHL1  H16B  689   3.694   6.065   9.282  0.6301 -0.9960 -1.6327
   10CHL1   C17  690   3.741   5.899   9.413 -0.2899  0.2141  0.2979
   10CHL1   H17  691   3.831   5.962   9.427 -1.4689  2.7385 -2.4577
   10CHL1   C13  692   3.682   5.879   9.554 -0.1654 -0.2977 -0.0290
   10CHL1   C18  693   3.562   5.784   9.544 -0.0689 -0.1718  0.6415
   10CHL1  H18A  694   3.513   5.790   9.445  1.9481 -1.6444 -0.5154
   10CHL1  H18B  695   3.608   5.682   9.547 -2.1405 -1.1501  1.8096
   10CHL1  H18C  696   3.491   5.783   9.630 -0.3101 -0.8049  0.4481
   10CHL1   C12  697   3.781   5.845   9.669  0.5569  0.4655 -0.0190
   10CHL1  H12A  698   3.823   5.743   9.661 -1.9472 -0.6590  0.4397
   10CHL1  H12B  699   3.863   5.920   9.671  1.0455 -0.0506 -0.4687
   10CHL1   C11  700   3.721   5.864   9.810 -0.0567  0.2803  0.4540
   10CHL1  H11A  701   3.650   5.779   9.815 -0.3266  0.4531 -0.2953
   10CHL1  H11B  702   3.790   5.850   9.896 -0.6431 -2.6162  0.5528
   10CHL1    C9  703   3.652   6.001   9.837  0.2608  0.1459  0.3398
   10CHL1    H9  704   3.740   6.069   9.848  1.5437 -0.7494 -3.0855
   10CHL1   C10  705   3.565   6.008   9.964  0.0168 -1.4307 -0.4459
   10CHL1   C19  706   3.467   5.891   9.970  0.0690 -0.0461 -0.7321
   10CHL1  H19A  707   3.417   5.865   9.874 -1.8845  0.0502  0.2298
   10CHL1  H19B  708   3.520   5.802  10.012  2.0824  2.0954  1.5664
   10CHL1  H19C  709   3.399   5.914  10.054  0.9673  0.1015 -0.0250
   10CHL1    C1  710   3.675   6.004  10.077 -0.0620 -0.1936 -0.1027
   10CHL1   H1A  711   3.716   5.901  10.081  2.7708  0.8968  1.1349
   10CHL1   H1B  712   3.759   6.072  10.055 -1.3745  2.5475  2.6405
   10CHL1    C2  713   3.623   6.040  10.219 -0.8622 -0.1373 -0.2571
   10CHL1   H2A  714   3.699   6.035  10.301 -0.9368 -0.1454 -0.1883
   10CHL1   H2B  715   3.552   5.961  10.251 -1.6080  0.6121 -0.0262
   10CHL1   C20  716   3.772   5.773   9.321  0.1372 -0.2669 -0.0642
   10CHL1   H20  717   3.677   5.719   9.303  0.6486 -1.0908 -0.3515
   10CHL1   C21  718   3.858   5.671   9.397  0.4761  0.2478 -0.5729
   10CHL1  H21A  719   3.791   5.628   9.475  0.4672 -0.7130 -1.1028
   10CHL1  H21B  720   3.948   5.722   9.437  0.1006  1.0620 -0.7398
   10CHL1  H21C  721   3.881   5.583   9.334 -0.4552 -0.9291  0.6436
   10CHL1   C22  722   3.837   5.815   9.182 -0.3934 -0.6267  0.8720
   10CHL1  H22A  723   3.755   5.876   9.139 -0.2237  0.5671  2.1735
   10CHL1  H22B  724   3.929   5.872   9.206 -0.5643 -0.0920  0.2627
   10CHL1   C23  725   3.871   5.697   9.097 -0.1837  0.0752  0.2476
   10CHL1  H23A  726   3.967   5.652   9.130  0.6493  1.5631 -0.0283
   10CHL1  H23B  727   3.792   5.620   9.104  0.4153 -0.7067 -1.0695
   10CHL1   C24  728   3.888   5.743   8.949  0.5503  0.3917 -1.2607
   10CHL1  H24A  729   3.784   5.774   8.926  0.4831  0.1257 -1.3141
   10CHL1  H24B  730   3.944   5.839   8.958  2.0703 -0.6214  0.6935
   10CHL1   C25  731   3.958   5.649   8.856 -0.3463  0.3768 -0.0738
   10CHL1   H25  732   3.954   5.700   8.758  0.1966  0.4463 -0.0632
   10CHL1   C26  733   4.112   5.635   8.882  0.3107 -0.2420  0.9560
   10CHL1  H26A  734   4.134   5.609   8.988  0.0364 -0.9928  0.8375
   10CHL1  H26B  735   4.148   5.555   8.814  1.5035  1.1468 -0.1196
   10CHL1  H26C  736   4.149   5.737   8.859 -0.7976  0.0338  0.3658
   10CHL1   C27  737   3.890   5.507   8.857 -0.4178  0.0787  0.6419
   10CHL1  H27A  738   3.783   5.504   8.828 -1.2705 -2.4218  3.5451
   10CHL1  H27B  739   3.944   5.434   8.793  0.1332 -1.1265  2.3948
   10CHL1  H27C  740   3.885   5.483   8.965  0.7183  2.0086  1.1655
   11CHL1    C3  741   5.834   2.556  10.084  0.4611 -0.5868 -0.3445
   11CHL1    H3  742   5.737   2.559  10.030  0.3439  0.7884 -0.0857
   11CHL1    O3  743   5.823   2.532  10.230  0.3725 -0.4046  0.4796
   11CHL1   H3'  744   5.762   2.458  10.237 -1.6495  1.0726 -0.5126
   11CHL1    C4  745   5.914   2.442  10.007 -0.4337 -0.2980  1.1299
   11CHL1   H4A  746   6.012   2.420  10.054 -0.2892 -0.9315  0.5517
   11CHL1   H4B  747   5.857   2.351  10.035 -0.1579 -0.7359  0.2975
   11CHL1    C5  748   5.934   2.472   9.858 -0.1737 -0.0323 -0.4122
   11CHL1    C6  749   5.894   2.387   9.757  0.3746 -0.1464 -0.8138
   11CHL1    H6  750   5.850   2.293   9.794  1.0373 -0.0615  0.2109
   11CHL1    C7  751   5.935   2.408   9.614  0.0154  0.3011  0.6329
   11CHL1   H7A  752   5.968   2.312   9.569  0.0314 -0.5123  2.3094
   11CHL1   H7B  753   5.843   2.444   9.562  1.2840 -0.2776 -2.1997
   11CHL1    C8  754   6.039   2.518   9.590  0.8891  0.6754 -0.3042
   11CHL1    H8  755   6.136   2.472   9.620  1.1513  1.7743  0.5686
   11CHL1   C14  756   6.033   2.558   9.444 -0.5506  0.6681 -0.0227
   11CHL1   H14  757   5.928   2.583   9.421 -0.9781 -0.5503  0.5318
   11CHL1   C15  758   6.070   2.444   9.349  0.8457 -0.1215 -0.1801
   11CHL1  H15A  759   6.141   2.366   9.381 -0.2944 -0.7351  0.9437
   11CHL1  H15B  760   5.981   2.382   9.323  1.3252 -0.3311 -1.3923
   11CHL1   C16  761   6.118   2.509   9.219 -0.4316 -0.7279  0.1572
   11CHL1  H16A  762   6.220   2.474   9.193 -0.9478 -1.2190 -1.3236
   11CHL1  H16B  763   6.045   2.493   9.137 -0.0648  1.0500 -0.5657
   11CHL1   C17  764   6.108   2.664   9.251 -1.1154  0.1837 -0.2671
   11CHL1   H17  765   6.005   2.698   9.226 -1.1972  0.2223  0.1079
   11CHL1   C13  766   6.127   2.665   9.404 -0.2977 -0.9090 -0.0718
   11CHL1   C18  767   6.279   2.639   9.438 -0.0182 -0.8072 -0.1250
   11CHL1  H18A  768   6.347   2.714   9.394 -0.5558 -0.7950 -0.9519
   11CHL1  H18B  769   6.296   2.627   9.547 -0.4078 -2.0820 -0.1846
   11CHL1  H18C  770   6.299   2.541   9.389 -1.5789 -0.5579 -1.3289
   11CHL1   C12  771   6.080   2.789   9.489 -0.1262  0.0918 -0.4906
   11CHL1  H12A  772   6.136   2.883   9.472 -0.4184 -0.0016 -2.1079
   11CHL1  H12B  773   5.972   2.813   9.475 -0.0112  1.7415  1.0644
   11CHL1   C11  774   6.079   2.773   9.641 -0.5292  0.2210 -0.3973
   11CHL1  H11A  775   6.181   2.751   9.679 -1.3976 -0.4425  1.6500
   11CHL1  H11B  776   6.028   2.862   9.685 -0.5907 -0.5571  1.1738
   11CHL1    C9  777   6.006   2.640   9.679  0.3727  0.1948  0.7335
   11CHL1    H9  778   5.901   2.667   9.656  1.0271  0.7782 -1.8951
   11CHL1   C10  779   6.005   2.609   9.829 -0.2100 -0.0083 -0.8457
   11CHL1   C19  780   6.142   2.602   9.883 -0.2196  0.4111  0.5031
   11CHL1  H19A  781   6.210   2.533   9.828 -1.1936  0.9331 -1.4603
   11CHL1  H19B  782   6.185   2.704   9.873  0.4691  0.0495 -0.3712
   11CHL1  H19C  783   6.146   2.581   9.992 -2.8980  2.1332  1.0222
   11CHL1    C1  784   5.928   2.713   9.917  0.3374  0.3258 -0.0028
   11CHL1   H1A  785   5.987   2.807   9.916 -1.5298  1.5558  0.7248
   11CHL1   H1B  786   5.827   2.724   9.870  0.6928  1.7494 -0.4709
   11CHL1    C2  787   5.904   2.689  10.069  0.0121 -0.3383 -0.0288
   11CHL1   H2A  788   5.845   2.774  10.107 -2.6606 -2.5077  1.0413
   11CHL1   H2B  789   6.000   2.688  10.125  0.5690  0.3398 -0.9498
   11CHL1   C20  790   6.203   2.750   9.171  0.4435 -0.1092  0.2135
   11CHL1   H20  791   6.308   2.718   9.187 -0.0382 -1.8575  0.0622
   11CHL1   C21  792   6.184   2.897   9.212  0.2181 -0.2832 -0.1433
   11CHL1  H21A  793   6.226   2.925   9.311 -1.7359  0.0055  0.6418
   11CHL1  H21B  794   6.075   2.919   9.210  0.1826 -0.3915  0.5267
   11CHL1  H21C  795   6.226   2.974   9.142 -0.2301  0.5733  0.5144
   11CHL1   C22  796   6.181   2.750   9.018 -0.3627  0.2244  0.0005
   11CHL1  H22A  797   6.176   2.644   8.983 -0.5060 -0.5634  2.2447
   11CHL1  H22B  798   6.073   2.776   9.012  0.0339  2.1476  0.5364
   11CHL1   C23  799   6.277   2.829   8.933 -0.0423  0.1306 -0.6278
   11CHL1  H23A  800   6.263   2.939   8.945  0.4388  0.0223  1.2505
   11CHL1  H23B  801   6.384   2.813   8.958 -0.1008 -0.7034 -0.8744
   11CHL1   C24  802   6.282   2.775   8.787 -0.2494  0.1415 -0.7799
   11CHL1  H24A  803   6.307   2.667   8.783  1.1889  0.2187  2.8347
   11CHL1  H24B  804   6.174   2.790   8.765 -0.7236  3.0094  2.6198
   11CHL1   C25  805   6.351   2.854   8.680  0.5111  0.4240 -0.1684
   11CHL1   H25  806   6.460   2.842   8.701  0.1933 -1.6207  0.6326
   11CHL1   C26  807   6.317   2.797   8.550 -0.0279  0.7077  0.4724
   11CHL1  H26A  808   6.222   2.741   8.565  1.9876 -1.9936  5.2560
   11CHL1  H26B  809   6.304   2.870   8.467  0.4490  1.5669  1.1404
   11CHL1  H26C  810   6.398   2.729   8.514 -0.7454  0.4735 -0.7486
   11CHL1   C27  811   6.328   3.004   8.670 -0.3251  1.0158 -0.4373
   11CHL1  H27A  812   6.377   3.042   8.762 -1.2288 -2.3159  1.5945
   11CHL1  H27B  813   6.358   3.050   8.573 -1.7459 -0.3079 -1.5639
   11CHL1  H27C  814   6.219   3.026   8.678 -0.5092  0.1671 -0.5639
   12CHL1    C3  815   1.983   4.960  10.494  0.3812 -0.2197  0.8147
   12CHL1    H3  816   2.037   4.864  10.483  2.3337  1.0420 -1.6207
   12CHL1    O3  817   1.946   4.967  10.633 -0.2021 -0.0126  0.5340
   12CHL1   H3'  818   1.889   5.044  10.641 -0.2199  0.3847 -2.2719
   12CHL1    C4  819   2.079   5.065  10.470 -0.5205  0.1530 -0.5229
   12CHL1   H4A  820   2.047   5.163  10.511  0.5668 -0.2078  1.2823
   12CHL1   H4B  821   2.173   5.042  10.525 -1.2423 -2.0381 -0.0969
   12CHL1    C5  822   2.119   5.063  10.324  0.3767  1.1570 -0.2430
   12CHL1    C6  823   2.247   5.039  10.288  0.0754  0.5208 -0.0523
   12CHL1    H6  824   2.325   5.032  10.366 -0.6005  0.6622  0.6473
   12CHL1    C7  825   2.294   5.014  10.145  0.1926  0.2278  0.3369
   12CHL1   H7A  826   2.395   5.050  10.116  0.0353 -0.4655 -1.2047
   12CHL1   H7B  827   2.298   4.904  10.132 -0.7738  0.3684 -1.7279
   12CHL1    C8  828   2.187   5.062  10.043  0.7343 -1.1725 -0.1806
   12CHL1    H8  829   2.198   5.172  10.043 -0.9992 -0.9606 -0.5509
   12CHL1   C14  830   2.222   5.004   9.905 -0.2028 -0.2814 -0.6440
   12CHL1   H14  831   2.209   4.893   9.910 -1.3944 -0.5453 -5.3589
   12CHL1   C15  832   2.373   5.017   9.855  0.1669  0.5353  0.3017
   12CHL1  H15A  833   2.419   5.116   9.876  3.8682 -0.3450 -2.3640
   12CHL1  H15B  834   2.436   4.935   9.897  0.2709  0.5261  0.1318
   12CHL1   C16  835   2.365   5.002   9.700  0.5647  0.4890 -0.9846
   12CHL1  H16A  836   2.406   5.096   9.658  1.5041 -0.1769 -1.5974
   12CHL1  H16B  837   2.430   4.926   9.652 -0.0413 -1.8712  1.6639
   12CHL1   C17  838   2.215   4.983   9.671 -0.1130 -0.0148  0.2569
   12CHL1   H17  839   2.207   4.874   9.690  2.0158 -0.8305 -2.8110
   12CHL1   C13  840   2.131   5.043   9.786 -0.5737 -0.3329  0.0673
   12CHL1   C18  841   2.127   5.197   9.761 -0.6207 -0.2932 -0.4532
   12CHL1  H18A  842   2.096   5.255   9.850  1.1481  0.3299 -0.2000
   12CHL1  H18B  843   2.227   5.238   9.734 -0.2142  0.3001  1.7558
   12CHL1  H18C  844   2.059   5.218   9.676  0.6384  0.3586 -1.3329
   12CHL1   C12  845   1.991   4.982   9.817  0.1611 -0.3733 -0.2869
   12CHL1  H12A  846   1.912   5.019   9.749  1.2905 -0.1594 -1.5329
   12CHL1  H12B  847   2.005   4.873   9.831 -0.2122 -0.3814  0.0390
   12CHL1   C11  848   1.942   5.041   9.957  0.0262  0.0888 -0.1235
   12CHL1  H11A  849   1.922   5.147   9.932  1.7166  0.2447 -0.9236
   12CHL1  H11B  850   1.843   4.992   9.971  0.5592 -1.5394 -1.6913
   12CHL1    C9  851   2.042   5.019  10.069  0.1670 -0.4951  0.2194
   12CHL1    H9  852   2.053   4.909  10.079  1.7843 -0.3119  0.8412
   12CHL1   C10  853   1.999   5.056  10.219  0.3273 -0.9350 -0.3967
   12CHL1   C19  854   1.947   5.204  10.209  0.0486 -0.7240 -0.6023
   12CHL1  H19A  855   1.947   5.249  10.311 -0.2991  1.4175 -1.5008
   12CHL1  H19B  856   2.026   5.263  10.157  0.1981 -1.8744 -1.7232
   12CHL1  H19C  857   1.846   5.210  10.165  0.2054  0.0300 -0.8733
   12CHL1    C1  858   1.884   4.959  10.260  0.1011  0.1106 -0.5354
   12CHL1   H1A  859   1.794   4.973  10.197  2.4097 -1.6112 -4.6048
   12CHL1   H1B  860   1.920   4.854  10.247  2.0388  0.2161  2.8006
   12CHL1    C2  861   1.856   4.981  10.410  0.0112 -0.4851 -0.3636
   12CHL1   H2A  862   1.776   4.908  10.433 -0.9598  0.9956  1.1153
   12CHL1   H2B  863   1.817   5.082  10.431  2.2614  0.1637  1.1489
   12CHL1   C20  864   2.171   5.021   9.522  0.1591  0.7776 -0.4088
   12CHL1   H20  865   2.138   5.127   9.516  0.5381  0.8966 -0.4364
   12CHL1   C21  866   2.044   4.936   9.490 -0.8666 -0.2585  0.4200
   12CHL1  H21A  867   1.953   4.984   9.532 -0.0290  0.5989  1.3030
   12CHL1  H21B  868   2.049   4.839   9.543  0.3242  1.1800  3.1198
   12CHL1  H21C  869   2.025   4.909   9.384 -3.2720  0.2672  0.6630
   12CHL1   C22  870   2.285   4.999   9.420  0.0057  0.2922 -0.6311
   12CHL1  H22A  871   2.363   5.075   9.441  2.0120 -2.3690  2.4852
   12CHL1  H22B  872   2.347   4.910   9.439  1.6196  1.8042  1.6415
   12CHL1   C23  873   2.237   5.000   9.266 -0.6335  0.2409 -0.0609
   12CHL1  H23A  874   2.199   4.902   9.230 -2.9424  0.4899  1.5028
   12CHL1  H23B  875   2.157   5.075   9.249 -1.1528 -0.6659 -1.8796
   12CHL1   C24  876   2.356   5.051   9.184 -0.2116  0.5253  0.8357
   12CHL1  H24A  877   2.412   5.131   9.238  1.1570  1.3112 -1.5930
   12CHL1  H24B  878   2.434   4.973   9.166 -0.2331  0.2374  1.8788
   12CHL1   C25  879   2.321   5.110   9.037  0.0186 -0.1995 -0.1404
   12CHL1   H25  880   2.301   5.216   9.060  3.3913  0.5303 -0.0228
   12CHL1   C26  881   2.458   5.106   8.959 -0.3166  0.3946 -0.4200
   12CHL1  H26A  882   2.535   5.158   9.021 -0.2093  1.2526 -1.2615
   12CHL1  H26B  883   2.497   5.002   8.957 -3.4667 -0.9862  2.0032
   12CHL1  H26C  884   2.452   5.157   8.861 -3.2746  0.7242 -0.1495
   12CHL1   C27  885   2.217   5.036   8.956 -0.2990  0.4080  0.3712
   12CHL1  H27A  886   2.196   5.085   8.858 -0.8366 -1.2092 -0.3685
   12CHL1  H27B  887   2.266   4.941   8.925  3.9119  2.2144  0.8578
   12CHL1  H27C  888   2.128   5.014   9.019  0.0904 -1.9768  0.1810
   13CHL1    C3  889   1.021   1.448  10.107  0.0680 -0.6251  1.1248
   13CHL1    H3  890   0.931   1.511  10.093 -0.5218 -1.7993 -0.7679
   13CHL1    O3  891   1.036   1.419  10.237 -0.6488 -0.1563 -0.6889
   13CHL1   H3'  892   1.048   1.500  10.287  0.0983 -0.7968  0.2180
   13CHL1    C4  893   1.004   1.317  10.033 -0.0904 -0.2571  0.7038
   13CHL1   H4A  894   1.093   1.252  10.048 -1.0748 -1.3176  2.2409
   13CHL1   H4B  895   0.910   1.269  10.068  0.6363 -1.6394  0.8357
   13CHL1    C5  896   0.976   1.365   9.885  0.4361  0.1412 -0.8259
   13CHL1    C6  897   0.861   1.334   9.819 -0.1145  0.4450 -0.5734
   13CHL1    H6  898   0.788   1.275   9.877  1.5802  0.3277  1.5705
   13CHL1    C7  899   0.836   1.356   9.673 -0.2098 -0.0300  0.7506
   13CHL1   H7A  900   0.799   1.266   9.620  0.8110 -0.7794  1.2582
   13CHL1   H7B  901   0.759   1.432   9.649  0.6212  1.2604  1.9858
   13CHL1    C8  902   0.967   1.377   9.595  0.2624 -0.1249  0.2285
   13CHL1    H8  903   1.008   1.274   9.588  0.2339 -0.0521 -1.4166
   13CHL1   C14  904   0.940   1.437   9.452  0.0540 -0.1418 -0.8172
   13CHL1   H14  905   0.907   1.542   9.464  1.7287  0.7406 -3.1649
   13CHL1   C15  906   0.821   1.380   9.370  0.5532 -0.2431 -0.4776
   13CHL1  H15A  907   0.822   1.271   9.386  0.5394 -0.1536  0.1802
   13CHL1  H15B  908   0.727   1.428   9.405  0.3055  0.7410 -2.3615
   13CHL1   C16  909   0.849   1.423   9.226  0.1549 -0.6043 -0.9045
   13CHL1  H16A  910   0.858   1.353   9.140  0.6505  1.0280 -2.2211
   13CHL1  H16B  911   0.763   1.488   9.198  0.0949 -0.5125 -0.5152
   13CHL1   C17  912   0.975   1.512   9.232  0.3409  0.3210  0.4426
   13CHL1   H17  913   0.939   1.615   9.251 -0.1944  0.6011 -1.8471
   13CHL1   C13  914   1.053   1.460   9.358  0.2526  0.3805 -0.1537
   13CHL1   C18  915   1.121   1.327   9.313  0.1409 -0.3898 -0.5362
   13CHL1  H18A  916   1.062   1.272   9.237  0.2188  1.6942 -2.2119
   13CHL1  H18B  917   1.215   1.360   9.263 -1.6469  1.5084 -2.8874
   13CHL1  H18C  918   1.138   1.257   9.397 -1.8505  0.9067  1.0299
   13CHL1   C12  919   1.150   1.557   9.435 -0.3379 -0.4341  0.2464
   13CHL1  H12A  920   1.236   1.585   9.371 -0.9869  1.1993  0.0594
   13CHL1  H12B  921   1.091   1.650   9.448 -0.6380 -0.2527 -2.0100
   13CHL1   C11  922   1.189   1.494   9.571  0.2173 -0.3243  0.3376
   13CHL1  H11A  923   1.230   1.394   9.547  1.1063 -0.2724  1.5355
   13CHL1  H11B  924   1.266   1.554   9.625 -0.9963 -0.1740  1.9555
   13CHL1    C9  925   1.064   1.472   9.669  0.2693  0.3168 -0.2771
   13CHL1    H9  926   1.022   1.575   9.676  0.2297  0.2203  1.0213
   13CHL1   C10  927   1.103   1.425   9.815 -0.6094  0.0270  0.2349
   13CHL1   C19  928   1.227   1.332   9.807 -0.8167  0.1483 -0.0868
   13CHL1  H19A  929   1.194   1.236   9.763 -1.9568  0.8563 -0.8348
   13CHL1  H19B  930   1.309   1.366   9.740 -2.0310  2.0764 -0.6822
   13CHL1  H19C  931   1.267   1.315   9.909  1.1720 -0.4344 -0.9132
   13CHL1    C1  932   1.140   1.550   9.903 -0.0154  0.1402 -0.2791
   13CHL1   H1A  933   1.243   1.577   9.870 -0.2920  1.1359 -0.3570
   13CHL1   H1B  934   1.067   1.632   9.888  1.0797  0.9551 -1.4362
   13CHL1    C2  935   1.153   1.512  10.058  0.2110 -0.1005  0.9683
   13CHL1   H2A  936   1.168   1.607  10.115  1.0384  0.2678  0.1590
   13CHL1   H2B  937   1.243   1.451  10.084  0.4783  0.9984  2.8139
   13CHL1   C20  938   1.043   1.521   9.093 -0.1342 -1.3591  0.3306
   13CHL1   H20  939   1.055   1.432   9.029 -0.3731 -1.9532  1.0937
   13CHL1   C21  940   1.184   1.585   9.114  0.3853 -0.6082  0.0466
   13CHL1  H21A  941   1.258   1.507   9.142 -1.1424 -1.2255  2.6220
   13CHL1  H21B  942   1.184   1.670   9.185 -2.1188 -0.3921 -0.1162
   13CHL1  H21C  943   1.210   1.628   9.014  0.9238  1.4083  0.9992
   13CHL1   C22  944   0.952   1.617   9.007  0.1924  0.0065 -0.1324
   13CHL1  H22A  945   0.848   1.578   9.017 -0.9773  2.9953  0.4740
   13CHL1  H22B  946   0.953   1.719   9.050  0.2880  0.1131 -0.3869
   13CHL1   C23  947   0.986   1.611   8.859 -0.3741  0.0530  0.2356
   13CHL1  H23A  948   1.087   1.655   8.851 -1.1293  1.9732  0.7503
   13CHL1  H23B  949   0.999   1.505   8.827  1.7253  0.1710  0.5541
   13CHL1   C24  950   0.896   1.694   8.767 -0.6900 -0.5160 -0.1842
   13CHL1  H24A  951   0.800   1.638   8.761 -0.8559 -0.1559 -1.0697
   13CHL1  H24B  952   0.892   1.794   8.816  2.9114 -0.2405 -0.2138
   13CHL1   C25  953   0.949   1.719   8.625 -0.1303  0.3365 -0.2081
   13CHL1   H25  954   1.050   1.765   8.628 -0.9331  2.1499  1.5119
   13CHL1   C26  955   0.960   1.591   8.555  0.9982  0.1505  0.5934
   13CHL1  H26A  956   0.860   1.543   8.544  1.0895  0.1529 -0.3078
   13CHL1  H26B  957   0.986   1.603   8.448 -3.2228 -1.2981 -0.8056
   13CHL1  H26C  958   1.022   1.514   8.606  2.9132 -0.3926 -2.3077
   13CHL1   C27  959   0.847   1.807   8.552  0.2476  0.1780  0.6190
   13CHL1  H27A  960   0.868   1.797   8.443 -1.1018  1.8137  0.1836
   13CHL1  H27B  961   0.746   1.761   8.560  1.3690 -2.8411 -0.9463
   13CHL1  H27C  962   0.841   1.913   8.584  1.8421  0.4572  0.0736
   14CHL1    C3  963   1.344   3.288  10.412 -0.3564  0.4424 -0.5259
   14CHL1    H3  964   1.445   3.334  10.407 -0.6850  1.2586  0.1550
   14CHL1    O3  965   1.316   3.279  10.555  0.4540  0.0047  0.1396
   14CHL1   H3'  966   1.226   3.246  10.556 -0.3886  2.1421  0.8096
   14CHL1    C4  967   1.246   3.389  10.350 -0.4695  0.1703  0.0850
   14CHL1   H4A  968   1.142   3.350  10.363  0.2304 -1.4554  1.1234
   14CHL1   H4B  969   1.266   3.485  10.403  1.9211 -0.1693 -0.0891
   14CHL1    C5  970   1.267   3.409  10.201  0.1813 -0.0199  0.0112
   14CHL1    C6  971   1.302   3.525  10.138  0.5127  0.4369 -0.5513
   14CHL1    H6  972   1.318   3.612  10.203 -1.2362 -0.5114  1.3008
   14CHL1    C7  973   1.319   3.539   9.990 -0.1200 -0.2739  0.0738
   14CHL1   H7A  974   1.291   3.637   9.946 -0.1983  0.0261  0.7704
   14CHL1   H7B  975   1.425   3.523   9.963  0.3500 -1.2724  2.2913
   14CHL1    C8  976   1.247   3.425   9.907  0.0686 -0.5355 -0.4409
   14CHL1    H8  977   1.137   3.434   9.914 -0.1419 -2.0379 -1.4106
   14CHL1   C14  978   1.295   3.440   9.763 -0.2563 -0.2051 -0.0469
   14CHL1   H14  979   1.405   3.422   9.772 -0.1254  0.5398 -0.0159
   14CHL1   C15  980   1.273   3.568   9.689  0.1401 -0.2626 -1.2939
   14CHL1  H15A  981   1.182   3.620   9.726 -0.3974 -0.2477 -2.5930
   14CHL1  H15B  982   1.358   3.641   9.694  0.3857 -0.6444  1.4629
   14CHL1   C16  983   1.246   3.527   9.544 -0.4970  0.1354  0.6427
   14CHL1  H16A  984   1.141   3.553   9.518 -0.5605 -0.1791  0.5845
   14CHL1  H16B  985   1.291   3.595   9.468 -2.2883  1.9220  1.0763
   14CHL1   C17  986   1.267   3.372   9.534  0.3466 -0.2116  0.1685
   14CHL1   H17  987   1.378   3.367   9.529  0.4251  0.5329  0.7838
   14CHL1   C13  988   1.225   3.332   9.675  0.0735  0.5911  0.3473
   14CHL1   C18  989   1.067   3.335   9.680  0.3025 -0.5162 -0.5079
   14CHL1  H18A  990   1.029   3.434   9.648  0.1861 -0.3609  0.0929
   14CHL1  H18B  991   1.012   3.266   9.613  0.1985 -0.4657 -0.4744
   14CHL1  H18C  992   1.021   3.324   9.781  2.4201 -0.8425  0.4950
   14CHL1   C12  993   1.260   3.193   9.731 -0.9778 -0.8202  0.4476
   14CHL1  H12A  994   1.201   3.116   9.675 -1.8102  1.0261 -1.3594
   14CHL1  H12B  995   1.367   3.171   9.712 -0.7452 -1.0128  1.9092
   14CHL1   C11  996   1.233   3.178   9.878 -0.4137 -0.5900  0.5548
   14CHL1  H11A  997   1.123   3.168   9.884 -0.5595  0.3249 -0.3125
   14CHL1  H11B  998   1.271   3.078   9.908  1.2124  0.4160  2.0541
   14CHL1    C9  999   1.285   3.291   9.973 -0.0715  0.1755 -0.6171
   14CHL1    H9 1000   1.395   3.283   9.969 -0.1610 -1.5091 -0.3422
   14CHL1   C10 1001   1.241   3.280  10.122 -0.1387  0.1703 -0.7890
   14CHL1   C19 1002   1.093   3.244  10.133 -0.2886  0.0108 -0.5614
   14CHL1  H19A 1003   1.032   3.336  10.123 -0.9891 -0.3329  0.3538
   14CHL1  H19B 1004   1.058   3.172  10.056 -1.8596 -0.7160  0.7623
   14CHL1  H19C 1005   1.058   3.190  10.224 -0.3814  1.1335  0.0868
   14CHL1    C1 1006   1.338   3.166  10.185  0.0039 -0.1366  0.1033
   14CHL1   H1A 1007   1.307   3.073  10.134 -1.6610  0.7234 -0.5116
   14CHL1   H1B 1008   1.442   3.186  10.151 -0.3111  1.4420 -0.0077
   14CHL1    C2 1009   1.338   3.151  10.342 -0.3422 -0.1468  0.0851
   14CHL1   H2A 1010   1.434   3.103  10.371  0.7222  3.1025  2.4710
   14CHL1   H2B 1011   1.250   3.102  10.389 -0.7064  1.2577  0.9182
   14CHL1   C20 1012   1.226   3.275   9.423  0.7245  0.1861  0.4487
   14CHL1   H20 1013   1.128   3.228   9.446  0.8926  0.3144  1.4371
   14CHL1   C21 1014   1.337   3.171   9.383 -0.7470 -0.9406 -0.6382
   14CHL1  H21A 1015   1.433   3.215   9.350 -0.8399  0.3386  0.6855
   14CHL1  H21B 1016   1.297   3.096   9.311 -2.5829 -0.1756 -0.4675
   14CHL1  H21C 1017   1.361   3.118   9.478  0.4932  0.5849 -0.0551
   14CHL1   C22 1018   1.196   3.350   9.290 -0.2049 -0.8568 -0.6258
   14CHL1  H22A 1019   1.150   3.282   9.215  0.6649 -1.2206 -0.8373
   14CHL1  H22B 1020   1.112   3.420   9.311 -0.2391 -1.7254  2.5224
   14CHL1   C23 1021   1.318   3.415   9.213 -0.1974 -0.1548 -0.1253
   14CHL1  H23A 1022   1.387   3.461   9.287  1.3655 -1.5088 -0.6909
   14CHL1  H23B 1023   1.387   3.344   9.163  1.2226  0.5334  0.7875
   14CHL1   C24 1024   1.274   3.535   9.120  0.2518  0.2174  0.5128
   14CHL1  H24A 1025   1.204   3.481   9.053 -0.6887 -0.0503  1.6749
   14CHL1  H24B 1026   1.218   3.613   9.175 -0.4927 -0.1866  0.3447
   14CHL1   C25 1027   1.398   3.603   9.061  0.0557  1.1862  0.4800
   14CHL1   H25 1028   1.477   3.537   9.021 -0.2219  0.1925  1.5245
   14CHL1   C26 1029   1.343   3.690   8.953  0.1381 -0.3156  0.6497
   14CHL1  H26A 1030   1.427   3.743   8.905  1.0336 -1.4202  0.9641
   14CHL1  H26B 1031   1.279   3.637   8.879 -0.0695 -0.0373  0.6257
   14CHL1  H26C 1032   1.284   3.772   8.999 -0.1583 -0.7244  1.0058
   14CHL1   C27 1033   1.472   3.697   9.163  0.0165  0.0421 -0.7807
   14CHL1  H27A 1034   1.533   3.770   9.106 -1.6456  1.3511 -0.9561
   14CHL1  H27B 1035   1.401   3.756   9.224 -1.8956 -3.0381  0.2366
   14CHL1  H27C 1036   1.524   3.629   9.234 -0.4315 -0.4920 -0.9574
   15CHL1    C3 1037   6.500   1.712  10.172  0.2974 -0.2389  0.6496
   15CHL1    H3 1038   6.598   1.726  10.120 -0.0028  2.7448  0.7134
   15CHL1    O3 1039   6.514   1.749  10.309  0.6602 -0.3704 -0.3406
   15CHL1   H3' 1040   6.426   1.762  10.343  0.3398  1.0602 -1.6116
   15CHL1    C4 1041   6.391   1.800  10.112 -0.1385  0.0574 -0.1549
   15CHL1   H4A 1042   6.301   1.771  10.171  0.5976 -1.0619  0.4429
   15CHL1   H4B 1043   6.413   1.908  10.128 -1.4459  0.4605 -0.8843
   15CHL1    C5 1044   6.369   1.758   9.969  0.6193 -0.6730  0.5878
   15CHL1    C6 1045   6.393   1.835   9.863 -0.3634 -0.0722 -0.2787
   15CHL1    H6 1046   6.425   1.938   9.883 -2.2556  0.3790  0.5585
   15CHL1    C7 1047   6.355   1.801   9.724  0.1271 -0.0319 -0.1496
   15CHL1   H7A 1048   6.303   1.885   9.673  2.3123  1.4522 -0.0659
   15CHL1   H7B 1049   6.447   1.764   9.673 -0.1552  1.1025 -1.5431
   15CHL1    C8 1050   6.259   1.688   9.719  0.5508  0.5743 -0.5945
   15CHL1    H8 1051   6.160   1.715   9.759  0.0157 -0.1915 -1.3638
   15CHL1   C14 1052   6.240   1.649   9.573 -0.5550  1.0969  0.3703
   15CHL1   H14 1053   6.337   1.617   9.529 -1.9343 -0.5959 -1.6874
   15CHL1   C15 1054   6.204   1.759   9.475  0.0026  0.1616  0.2315
   15CHL1  H15A 1055   6.127   1.827   9.518 -1.3123  0.1736 -1.9600
   15CHL1  H15B 1056   6.288   1.822   9.439 -1.3276  1.6680 -0.3966
   15CHL1   C16 1057   6.132   1.682   9.365 -0.2792 -0.2219  0.0603
   15CHL1  H16A 1058   6.033   1.727   9.344 -0.5534 -1.0952 -0.5540
   15CHL1  H16B 1059   6.178   1.689   9.264 -1.8052 -0.5088 -0.6858
   15CHL1   C17 1060   6.135   1.532   9.395  0.3333 -0.1464 -0.0721
   15CHL1   H17 1061   6.234   1.508   9.353  0.2329  0.0559 -0.4221
   15CHL1   C13 1062   6.152   1.525   9.548  0.1534  0.3220 -0.8067
   15CHL1   C18 1063   6.009   1.552   9.597  1.5030  0.3790  0.1066
   15CHL1  H18A 1064   5.948   1.460   9.583  0.2962  1.3950 -1.5277
   15CHL1  H18B 1065   6.012   1.564   9.708  1.3996  1.8041 -0.0265
   15CHL1  H18C 1066   5.950   1.634   9.552  2.8692  1.9295  1.0284
   15CHL1   C12 1067   6.218   1.400   9.626 -0.2815 -0.0296  0.4043
   15CHL1  H12A 1068   6.157   1.309   9.607  2.2406 -1.2191 -2.9565
   15CHL1  H12B 1069   6.319   1.392   9.581 -0.3948  1.4035 -0.1587
   15CHL1   C11 1070   6.227   1.439   9.777 -0.0259  0.7317 -0.1061
   15CHL1  H11A 1071   6.129   1.441   9.828  0.4769  1.6215  0.8510
   15CHL1  H11B 1072   6.291   1.361   9.824 -0.9242 -0.6645 -1.1028
   15CHL1    C9 1073   6.309   1.568   9.803  0.5962 -0.5076 -0.4897
   15CHL1    H9 1074   6.416   1.553   9.776  0.7936 -1.2994  0.6561
   15CHL1   C10 1075   6.319   1.614   9.955  0.2076 -0.0616  0.0863
   15CHL1   C19 1076   6.173   1.612  10.019 -0.7503 -0.3469  0.5987
   15CHL1  H19A 1077   6.177   1.622  10.129  1.9657 -0.9644  0.6043
   15CHL1  H19B 1078   6.114   1.697   9.979  1.5227  1.2212  0.3886
   15CHL1  H19C 1079   6.109   1.523   9.999 -1.6229  0.5102 -0.6059
   15CHL1    C1 1080   6.406   1.513  10.026 -0.4480  0.5920 -0.6047
   15CHL1   H1A 1081   6.372   1.408  10.039  0.1143  0.6680  1.8650
   15CHL1   H1B 1082   6.502   1.516   9.971  0.2538  1.2226  0.6234
   15CHL1    C2 1083   6.451   1.566  10.165 -0.4173  0.6030  0.1793
   15CHL1   H2A 1084   6.531   1.497  10.197 -1.0700 -1.0096 -1.5328
   15CHL1   H2B 1085   6.370   1.549  10.239  1.3306 -2.7120  1.5333
   15CHL1   C20 1086   6.030   1.451   9.325 -0.0105  0.6436  0.3567
   15CHL1   H20 1087   5.930   1.468   9.371 -0.1336  0.4263  0.1682
   15CHL1   C21 1088   6.062   1.301   9.323 -0.1885  0.1472 -0.3636
   15CHL1  H21A 1089   6.152   1.279   9.262 -1.1882 -1.9091 -1.2058
   15CHL1  H21B 1090   5.974   1.248   9.280 -0.5466 -0.4839  1.0863
   15CHL1  H21C 1091   6.089   1.261   9.423  1.0686  0.8159 -0.4083
   15CHL1   C22 1092   5.992   1.497   9.179  0.1171  0.0327 -0.5903
   15CHL1  H22A 1093   5.896   1.451   9.147  0.7933 -2.2751  0.4365
   15CHL1  H22B 1094   5.968   1.605   9.181 -1.4792 -0.2640 -1.8382
   15CHL1   C23 1095   6.094   1.475   9.071 -0.1367  0.2817 -0.2656
   15CHL1  H23A 1096   6.178   1.544   9.096  0.3272 -0.1123 -0.7048
   15CHL1  H23B 1097   6.144   1.377   9.087 -2.4371 -0.8421  0.3984
   15CHL1   C24 1098   6.049   1.492   8.921 -0.1892  0.2285 -0.2382
   15CHL1  H24A 1099   6.034   1.601   8.912 -1.7284  0.0367 -0.2398
   15CHL1  H24B 1100   6.124   1.455   8.847  1.0029  0.0396  1.0374
   15CHL1   C25 1101   5.912   1.420   8.884 -0.6177  0.0387  0.3376
   15CHL1   H25 1102   5.825   1.476   8.924 -1.0290  1.0195 -1.7677
   15CHL1   C26 1103   5.888   1.438   8.734 -0.5104 -0.1726 -0.6167
   15CHL1  H26A 1104   5.971   1.404   8.669 -0.1372  0.3697 -0.4265
   15CHL1  H26B 1105   5.803   1.386   8.684 -1.6987  2.4105 -1.4783
   15CHL1  H26C 1106   5.874   1.548   8.722 -1.8237 -0.3917 -1.3062
   15CHL1   C27 1107   5.897   1.274   8.925  0.4656 -0.0630 -0.3277
   15CHL1  H27A 1108   5.798   1.243   8.885 -0.1951 -0.9262  1.8716
   15CHL1  H27B 1109   5.964   1.212   8.862  0.2970  1.1557 -1.7747
   15CHL1  H27C 1110   5.899   1.256   9.034 -1.3180  0.7618 -0.1076
   16CHL1    C3 1111   0.386   2.371  10.308  0.7527 -0.2823 -0.1114
   16CHL1    H3 1112   0.337   2.272  10.325 -0.9500  0.4026 -0.7498
   16CHL1    O3 1113   0.408   2.426  10.437  0.1383 -0.0368  0.1586
   16CHL1   H3' 1114   0.356   2.506  10.445  2.2472  1.3058  0.9576
   16CHL1    C4 1115   0.518   2.373  10.237  0.4027 -0.1824 -0.0788
   16CHL1   H4A 1116   0.562   2.475  10.233  0.6717 -0.2628  0.6607
   16CHL1   H4B 1117   0.595   2.315  10.290  0.6525 -0.0796 -0.3279
   16CHL1    C5 1118   0.500   2.326  10.091  0.3401 -0.3822 -0.6216
   16CHL1    C6 1119   0.553   2.218  10.031 -0.4330 -0.7810 -0.0052
   16CHL1    H6 1120   0.616   2.152  10.092 -2.0051  0.4264  3.1494
   16CHL1    C7 1121   0.528   2.182   9.889  0.3500 -0.8843  0.2320
   16CHL1   H7A 1122   0.623   2.138   9.851  0.0386 -0.3744 -1.2141
   16CHL1   H7B 1123   0.457   2.098   9.885  0.1190 -0.8713  2.8099
   16CHL1    C8 1124   0.480   2.299   9.799  0.2358  0.1175 -0.1370
   16CHL1    H8 1125   0.564   2.371   9.797  0.8590 -0.6139 -1.0036
   16CHL1   C14 1126   0.439   2.246   9.660  0.4176  0.7702  0.1302
   16CHL1   H14 1127   0.355   2.176   9.676 -0.2370  1.8059  1.4240
   16CHL1   C15 1128   0.546   2.167   9.585 -0.2183 -0.2506  0.5038
   16CHL1  H15A 1129   0.646   2.216   9.589 -1.1800  2.1275 -1.4736
   16CHL1  H15B 1130   0.545   2.059   9.610  1.1893 -0.7872 -1.4657
   16CHL1   C16 1131   0.492   2.187   9.441  0.0151  0.5361 -0.4425
   16CHL1  H16A 1132   0.569   2.230   9.373  0.5513  1.1941  0.5348
   16CHL1  H16B 1133   0.459   2.088   9.404  1.9676 -1.2975  2.2729
   16CHL1   C17 1134   0.365   2.273   9.443  0.3656 -0.0870  0.8381
   16CHL1   H17 1135   0.275   2.213   9.470 -1.5337  1.1952 -2.1943
   16CHL1   C13 1136   0.388   2.359   9.568  0.2568  0.0524 -0.8881
   16CHL1   C18 1137   0.491   2.462   9.539 -0.0444 -0.5022 -0.0368
   16CHL1  H18A 1138   0.533   2.510   9.630  0.1198  1.6201 -1.1623
   16CHL1  H18B 1139   0.570   2.431   9.467  1.4978  0.4433  1.1786
   16CHL1  H18C 1140   0.438   2.543   9.485  0.5614 -0.7375 -1.0261
   16CHL1   C12 1141   0.258   2.423   9.631 -0.5365 -0.0416 -0.1755
   16CHL1  H12A 1142   0.218   2.505   9.567  0.8431 -0.1983 -1.2747
   16CHL1  H12B 1143   0.180   2.343   9.633 -0.6191  0.0519  1.7913
   16CHL1   C11 1144   0.287   2.466   9.774  0.0778 -0.5828  1.0076
   16CHL1  H11A 1145   0.339   2.559   9.743 -1.0041 -0.8586 -1.9397
   16CHL1  H11B 1146   0.195   2.504   9.823  1.0421  1.4996  1.3307
   16CHL1    C9 1147   0.358   2.362   9.865  1.0662 -0.7720 -0.7313
   16CHL1    H9 1148   0.287   2.279   9.880  1.4724 -0.7410  1.7141
   16CHL1   C10 1149   0.388   2.407  10.010 -0.3348  0.2620 -0.2133
   16CHL1   C19 1150   0.440   2.554   9.986 -0.5890  0.5020 -0.4961
   16CHL1  H19A 1151   0.494   2.590  10.076 -1.4759 -2.7601  1.5306
   16CHL1  H19B 1152   0.521   2.562   9.910  0.3316  0.1480  0.4111
   16CHL1  H19C 1153   0.358   2.625   9.966 -0.0325  1.0432 -0.8967
   16CHL1    C1 1154   0.256   2.406  10.094 -0.0703  0.5288 -0.1174
   16CHL1   H1A 1155   0.165   2.458  10.057 -0.7588  0.2378  1.1186
   16CHL1   H1B 1156   0.240   2.296  10.104  0.8496  0.2745 -1.2447
   16CHL1    C2 1157   0.274   2.453  10.239 -0.1876  1.0995 -0.1783
   16CHL1   H2A 1158   0.187   2.428  10.304  0.6736 -2.2629 -0.1192
   16CHL1   H2B 1159   0.300   2.560  10.247  0.7694  1.0274 -1.8452
   16CHL1   C20 1160   0.340   2.338   9.302  1.0762 -0.9039  0.2915
   16CHL1   H20 1161   0.420   2.411   9.280 -1.1241  1.4994 -0.2176
   16CHL1   C21 1162   0.199   2.417   9.298 -0.4628  0.4598  0.1188
   16CHL1  H21A 1163   0.169   2.465   9.202  0.3771  1.0937  0.1588
   16CHL1  H21B 1164   0.191   2.497   9.375  0.1924 -1.2280  2.0452
   16CHL1  H21C 1165   0.126   2.338   9.326 -0.8833  0.1927 -1.6323
   16CHL1   C22 1166   0.338   2.239   9.181 -0.2338 -0.6718  0.2445
   16CHL1  H22A 1167   0.434   2.183   9.183 -0.3908 -0.9316  0.4391
   16CHL1  H22B 1168   0.256   2.169   9.209 -1.4225  0.5097 -0.1622
   16CHL1   C23 1169   0.339   2.307   9.049 -0.6451 -0.7473  0.5701
   16CHL1  H23A 1170   0.246   2.362   9.025 -0.2447 -0.8223 -1.2915
   16CHL1  H23B 1171   0.418   2.384   9.037 -0.4167 -0.9343  0.8671
   16CHL1   C24 1172   0.347   2.197   8.938  0.2374  0.5475  0.3213
   16CHL1  H24A 1173   0.454   2.169   8.941  0.3195  0.9255  1.2408
   16CHL1  H24B 1174   0.272   2.119   8.966 -0.1724 -0.2506 -2.6953
   16CHL1   C25 1175   0.310   2.231   8.792  0.9036  0.1451 -0.1278
   16CHL1   H25 1176   0.350   2.333   8.772  2.1856 -0.2463  0.3000
   16CHL1   C26 1177   0.369   2.137   8.688 -0.1990 -0.5040 -0.5829
   16CHL1  H26A 1178   0.332   2.161   8.586 -0.2310  2.6386  0.0849
   16CHL1  H26B 1179   0.480   2.135   8.695 -0.2642 -1.0918  0.6882
   16CHL1  H26C 1180   0.346   2.030   8.711  0.4145 -0.5285 -0.0493
   16CHL1   C27 1181   0.156   2.249   8.770 -1.0818 -0.5736  0.4885
   16CHL1  H27A 1182   0.141   2.276   8.664 -1.6860  0.7729  0.9036
   16CHL1  H27B 1183   0.107   2.150   8.785 -1.7671  0.0357  2.5848
   16CHL1  H27C 1184   0.115   2.335   8.827 -2.9084 -1.5696  0.7741
   17CHL1    C3 1185   3.950   6.165  10.523  0.3469 -0.5547 -0.6540
   17CHL1    H3 1186   3.865   6.108  10.480  0.7177 -2.0871  0.5814
   17CHL1    O3 1187   3.946   6.152  10.664 -0.0581  0.3195  0.3976
   17CHL1   H3' 1188   3.872   6.203  10.698 -0.2985  1.0382 -1.1098
   17CHL1    C4 1189   4.082   6.118  10.468 -0.2384  0.3255  0.8125
   17CHL1   H4A 1190   4.164   6.184  10.505  1.3184 -0.4467 -1.0624
   17CHL1   H4B 1191   4.099   6.012  10.495  0.3734  0.0967 -0.3674
   17CHL1    C5 1192   4.076   6.122  10.319 -0.6516 -0.4522  0.3556
   17CHL1    C6 1193   4.098   6.011  10.246 -1.3563 -0.4163  0.6458
   17CHL1    H6 1194   4.091   5.918  10.305 -2.0716 -1.3043 -0.7902
   17CHL1    C7 1195   4.098   6.003  10.095 -0.3895 -0.3315  0.5925
   17CHL1   H7A 1196   4.182   5.946  10.051  0.2571  0.5025  0.7360
   17CHL1   H7B 1197   4.014   5.943  10.053 -0.5226  0.4736 -0.3526
   17CHL1    C8 1198   4.105   6.141  10.016 -0.0707 -0.6708 -0.4595
   17CHL1    H8 1199   4.208   6.179  10.000  0.8323 -3.4432 -1.7790
   17CHL1   C14 1200   4.049   6.131   9.869  0.1437  0.1713 -0.3119
   17CHL1   H14 1201   3.950   6.085   9.887  0.4901  0.1210  1.7482
   17CHL1   C15 1202   4.128   6.034   9.771 -0.3451 -0.2386 -0.3193
   17CHL1  H15A 1203   4.236   6.038   9.800 -0.0799  0.9044 -1.3708
   17CHL1  H15B 1204   4.089   5.933   9.794 -1.5539 -0.1482 -1.8279
   17CHL1   C16 1205   4.097   6.091   9.636  0.1820 -0.0759 -0.0069
   17CHL1  H16A 1206   4.189   6.127   9.585 -0.0021 -1.1711 -1.1604
   17CHL1  H16B 1207   4.052   6.015   9.569 -0.7471 -1.2802  1.8895
   17CHL1   C17 1208   4.000   6.210   9.661 -0.7569  0.1067 -0.4921
   17CHL1   H17 1209   3.899   6.166   9.675 -1.0494  0.5995 -1.0102
   17CHL1   C13 1210   4.038   6.264   9.801 -0.6624 -0.3112 -0.0410
   17CHL1   C18 1211   4.182   6.333   9.777  0.2522 -0.2907  0.3476
   17CHL1  H18A 1212   4.166   6.439   9.747 -0.3655  1.1642  4.9221
   17CHL1  H18B 1213   4.230   6.352   9.876 -0.5388 -0.8926  0.8600
   17CHL1  H18C 1214   4.250   6.274   9.713 -1.5675 -0.5717 -1.4202
   17CHL1   C12 1215   3.951   6.347   9.876 -0.0586 -0.0693  0.0211
   17CHL1  H12A 1216   3.917   6.442   9.830  0.7953  0.1192 -0.2199
   17CHL1  H12B 1217   3.854   6.295   9.891 -0.7436  0.5472 -1.9282
   17CHL1   C11 1218   4.010   6.379  10.017  0.1414  0.4919 -0.3401
   17CHL1  H11A 1219   4.112   6.424  10.013  0.8998 -1.1293 -0.3127
   17CHL1  H11B 1220   3.943   6.445  10.075  0.3046 -0.1274  0.5643
   17CHL1    C9 1221   4.023   6.250  10.097  0.1532  0.0825 -0.2491
   17CHL1    H9 1222   3.919   6.210  10.089 -0.1679  0.8525 -0.0451
   17CHL1   C10 1223   4.063   6.260  10.250  0.5332  0.1083 -0.1403
   17CHL1   C19 1224   4.183   6.345  10.272  0.4524 -0.2591  0.5388
   17CHL1  H19A 1225   4.173   6.438  10.212  1.7138 -0.8082 -0.5697
   17CHL1  H19B 1226   4.214   6.370  10.376 -0.5924 -0.2867  0.8719
   17CHL1  H19C 1227   4.276   6.311  10.223  0.2115  1.7048 -1.4505
   17CHL1    C1 1228   3.939   6.318  10.327  0.0976 -0.0574  0.2132
   17CHL1   H1A 1229   3.940   6.427  10.302 -1.1912  0.0948  0.7458
   17CHL1   H1B 1230   3.848   6.272  10.282 -0.0367  0.3625  0.0475
   17CHL1    C2 1231   3.939   6.312  10.477  0.5632  0.0753 -0.3521
   17CHL1   H2A 1232   3.843   6.352  10.517  0.9817  2.1189 -1.2693
   17CHL1   H2B 1233   4.019   6.379  10.514  2.5583 -1.1274 -2.2688
   17CHL1   C20 1234   3.988   6.300   9.535 -0.5609 -0.3592  0.0417
   17CHL1   H20 1235   4.089   6.340   9.511 -1.6859  0.9117 -3.0908
   17CHL1   C21 1236   3.891   6.415   9.558  1.2341  0.4720 -0.3462
   17CHL1  H21A 1237   3.946   6.502   9.599 -1.2170  1.9014  0.0645
   17CHL1  H21B 1238   3.801   6.392   9.618  2.3359 -2.9488  0.2333
   17CHL1  H21C 1239   3.857   6.447   9.457 -0.1369 -1.4643 -0.5562
   17CHL1   C22 1240   3.955   6.224   9.403  0.0537 -0.3895 -0.3834
   17CHL1  H22A 1241   4.013   6.129   9.401  1.9237  0.6994 -1.0518
   17CHL1  H22B 1242   3.847   6.200   9.411  0.4585 -2.7421 -1.2536
   17CHL1   C23 1243   3.984   6.299   9.275 -0.3271 -0.6588  0.9098
   17CHL1  H23A 1244   3.975   6.409   9.271  2.2925 -0.3586  1.5424
   17CHL1  H23B 1245   4.090   6.278   9.250 -0.0758  0.6807  0.7910
   17CHL1   C24 1246   3.906   6.232   9.159 -0.4319 -0.4757 -1.1586
   17CHL1  H24A 1247   3.940   6.127   9.143  1.0117  0.0637 -1.8287
   17CHL1  H24B 1248   3.796   6.243   9.171 -0.3015  0.3601 -0.6351
   17CHL1   C25 1249   3.915   6.298   9.021 -0.2750 -0.0268 -0.5106
   17CHL1   H25 1250   4.015   6.281   8.974 -0.5466  0.0083 -1.1141
   17CHL1   C26 1251   3.819   6.226   8.928  0.3151 -0.1206 -0.3413
   17CHL1  H26A 1252   3.825   6.116   8.943 -2.4223 -0.0909  1.7645
   17CHL1  H26B 1253   3.714   6.259   8.946  0.3370  0.5777 -1.3974
   17CHL1  H26C 1254   3.840   6.243   8.821 -1.0189 -0.3059 -0.6418
   17CHL1   C27 1255   3.887   6.456   9.014  0.0065  0.3524 -0.7796
   17CHL1  H27A 1256   3.933   6.497   8.922  1.7071 -0.4652 -0.3249
   17CHL1  H27B 1257   3.779   6.482   9.026  0.2918  1.1386  0.2423
   17CHL1  H27C 1258   3.946   6.513   9.089 -0.1955  1.0941 -1.1709
   18CHL1    C3 1259   3.130   5.813  10.253 -0.0326  0.4112  0.0669
   18CHL1    H3 1260   3.238   5.838  10.247  0.2584 -0.5769  0.9641
   18CHL1    O3 1261   3.081   5.824  10.386 -0.0041  0.1388  0.2774
   18CHL1   H3' 1262   3.149   5.774  10.432 -0.2967 -0.1725  0.3720
   18CHL1    C4 1263   3.045   5.908  10.167 -0.0528  0.3084  1.1120
   18CHL1   H4A 1264   2.940   5.888  10.197  0.0259 -0.6056  0.7891
   18CHL1   H4B 1265   3.078   6.010  10.199 -0.1148  1.6493 -2.6193
   18CHL1    C5 1266   3.066   5.897  10.018  0.0524  0.0202  0.9367
   18CHL1    C6 1267   3.102   6.005   9.945  0.1690  0.2565 -0.5442
   18CHL1    H6 1268   3.113   6.104   9.989 -0.4902 -0.7178  1.9625
   18CHL1    C7 1269   3.128   5.998   9.795  0.1619  0.2612 -0.1108
   18CHL1   H7A 1270   3.063   6.068   9.737 -1.1516 -1.7189 -1.1382
   18CHL1   H7B 1271   3.235   6.013   9.772  0.8322 -3.2246  0.2653
   18CHL1    C8 1272   3.081   5.862   9.735  0.5110  0.2327 -0.0794
   18CHL1    H8 1273   2.972   5.849   9.720  0.8935 -1.9191 -1.4415
   18CHL1   C14 1274   3.136   5.856   9.604  0.1194 -0.1012 -0.2783
   18CHL1   H14 1275   3.245   5.860   9.626 -0.0786 -1.1999  1.0339
   18CHL1   C15 1276   3.103   5.970   9.502 -0.0160 -0.4969 -0.6474
   18CHL1  H15A 1277   3.000   6.005   9.527  0.8070  0.8920  0.9519
   18CHL1  H15B 1278   3.178   6.050   9.517 -0.6162 -0.2833  1.6972
   18CHL1   C16 1279   3.112   5.894   9.368 -0.0094 -0.2988  0.6030
   18CHL1  H16A 1280   3.005   5.889   9.339 -0.5078 -1.2221  2.4429
   18CHL1  H16B 1281   3.164   5.948   9.286  0.3377  1.0266  1.6688
   18CHL1   C17 1282   3.167   5.753   9.391 -0.1699  0.0642 -0.2654
   18CHL1   H17 1283   3.277   5.755   9.403 -0.1449 -1.4038 -0.0285
   18CHL1   C13 1284   3.118   5.722   9.533  0.2600  0.4511 -0.7841
   18CHL1   C18 1285   2.969   5.684   9.516  0.1757  0.9146  0.2304
   18CHL1  H18A 1286   2.920   5.776   9.478 -0.7018  0.2880 -0.1956
   18CHL1  H18B 1287   2.958   5.600   9.444 -0.1546  0.6025  0.6394
   18CHL1  H18C 1288   2.921   5.651   9.611 -0.9376 -0.4195 -0.7468
   18CHL1   C12 1289   3.200   5.605   9.611  0.6262 -0.4336 -0.0597
   18CHL1  H12A 1290   3.184   5.505   9.567  0.2143 -0.0716 -0.7549
   18CHL1  H12B 1291   3.307   5.635   9.608 -0.0484  2.1834 -1.2095
   18CHL1   C11 1292   3.156   5.607   9.761 -0.4312 -0.1350  0.0977
   18CHL1  H11A 1293   3.059   5.555   9.746 -0.3143  0.0667 -1.5301
   18CHL1  H11B 1294   3.222   5.549   9.828  2.8200 -0.6872 -3.2314
   18CHL1    C9 1295   3.136   5.751   9.823  0.5003  0.0045 -0.6812
   18CHL1    H9 1296   3.239   5.784   9.848  1.0345 -0.4509 -2.1703
   18CHL1   C10 1297   3.058   5.749   9.961  0.0054 -1.3276 -0.1798
   18CHL1   C19 1298   2.911   5.697   9.948  0.1919 -0.6330 -0.1242
   18CHL1  H19A 1299   2.860   5.771   9.882 -0.3073  0.6997  1.6547
   18CHL1  H19B 1300   2.900   5.595   9.907 -0.4210 -0.9259  0.7294
   18CHL1  H19C 1301   2.873   5.694  10.053  0.3633 -0.3277 -0.0510
   18CHL1    C1 1302   3.132   5.653  10.054  1.0118  0.7258  0.2670
   18CHL1   H1A 1303   3.101   5.549  10.030  0.6163  1.2846 -1.8446
   18CHL1   H1B 1304   3.242   5.658  10.036  1.0259  0.0278  0.1105
   18CHL1    C2 1305   3.096   5.669  10.203 -0.4025 -0.0122  0.8052
   18CHL1   H2A 1306   3.172   5.604  10.250  0.3034  0.7469  0.7374
   18CHL1   H2B 1307   2.990   5.640  10.218 -1.6983  1.6105 -3.5752
   18CHL1   C20 1308   3.136   5.661   9.270  0.1030  0.0826 -0.0942
   18CHL1   H20 1309   3.029   5.631   9.267 -0.1424  0.7112  1.3732
   18CHL1   C21 1310   3.217   5.532   9.280  0.2971 -0.0236 -0.3005
   18CHL1  H21A 1311   3.317   5.547   9.326  0.0315  2.6371 -0.4389
   18CHL1  H21B 1312   3.227   5.480   9.182  0.3715  2.6614 -1.7997
   18CHL1  H21C 1313   3.171   5.454   9.346  1.6528 -0.2203  0.4379
   18CHL1   C22 1314   3.173   5.720   9.135 -0.2976 -0.3574  0.2534
   18CHL1  H22A 1315   3.143   5.654   9.051 -1.8543  0.5945  0.0144
   18CHL1  H22B 1316   3.124   5.820   9.122  0.5889 -0.1531 -2.1536
   18CHL1   C23 1317   3.322   5.748   9.116  0.8319  0.3214  0.1921
   18CHL1  H23A 1318   3.375   5.794   9.202 -0.1772  1.0455  0.4466
   18CHL1  H23B 1319   3.374   5.650   9.103  2.6636  1.4640 -1.8525
   18CHL1   C24 1320   3.348   5.842   8.995  0.4286  0.5328 -0.3855
   18CHL1  H24A 1321   3.267   5.823   8.922  0.9711  1.3951 -1.2461
   18CHL1  H24B 1322   3.333   5.949   9.021 -1.3242  0.9434 -2.7049
   18CHL1   C25 1323   3.481   5.808   8.940 -0.5018  0.8095  0.5902
   18CHL1   H25 1324   3.545   5.775   9.024 -1.1104  2.2620  1.6772
   18CHL1   C26 1325   3.458   5.700   8.824  0.1346 -0.2647 -1.1579
   18CHL1  H26A 1326   3.357   5.707   8.779  0.1033 -3.0174 -1.7336
   18CHL1  H26B 1327   3.545   5.699   8.755  0.9332 -0.5990 -0.1782
   18CHL1  H26C 1328   3.456   5.603   8.879 -1.7671  1.3209  1.8836
   18CHL1   C27 1329   3.535   5.938   8.877 -0.1536  0.3488  0.1173
   18CHL1  H27A 1330   3.642   5.941   8.848  0.2017  2.5530  1.4208
   18CHL1  H27B 1331   3.486   5.969   8.782  1.2522  0.4020 -0.6174
   18CHL1  H27C 1332   3.522   6.021   8.950 -0.6717 -1.2163  1.8799
   19CHL1    C3 1333   5.335   1.435   9.919  0.4264 -0.7348 -0.0808
   19CHL1    H3 1334   5.233   1.428   9.877 -0.0502 -2.0861  1.1974
   19CHL1    O3 1335   5.331   1.395  10.057 -0.3950 -0.4372 -0.0812
   19CHL1   H3' 1336   5.296   1.473  10.101 -1.5869 -1.5503  1.0218
   19CHL1    C4 1337   5.425   1.336   9.846  0.2129  0.1310 -0.5381
   19CHL1   H4A 1338   5.524   1.343   9.897 -1.2428  2.1432  2.3060
   19CHL1   H4B 1339   5.385   1.233   9.857 -0.7647  0.5027 -0.5836
   19CHL1    C5 1340   5.426   1.385   9.699 -0.8716  0.7552 -0.1289
   19CHL1    C6 1341   5.398   1.293   9.596 -0.8684  0.0845  0.2887
   19CHL1    H6 1342   5.364   1.193   9.626  0.0582 -0.4811 -0.4835
   19CHL1    C7 1343   5.417   1.321   9.451  0.2404 -0.1193  0.0876
   19CHL1   H7A 1344   5.462   1.234   9.398 -0.3167 -0.9049  0.8955
   19CHL1   H7B 1345   5.322   1.333   9.395 -0.6974 -0.0845  1.6582
   19CHL1    C8 1346   5.500   1.449   9.433 -0.1764 -0.5925  0.6138
   19CHL1    H8 1347   5.609   1.430   9.444 -0.0925 -0.5059 -0.0628
   19CHL1   C14 1348   5.472   1.497   9.287 -0.4525 -0.1212 -0.2629
   19CHL1   H14 1349   5.362   1.514   9.280 -0.3734  0.7055  0.3452
   19CHL1   C15 1350   5.502   1.395   9.173  0.4527  0.3456  0.1208
   19CHL1  H15A 1351   5.606   1.357   9.188  0.8740  0.5264 -1.9424
   19CHL1  H15B 1352   5.430   1.313   9.154  2.2723 -1.3901  0.3994
   19CHL1   C16 1353   5.508   1.487   9.044  0.0644  0.2193  0.2494
   19CHL1  H16A 1354   5.606   1.474   8.994 -0.2553 -0.0995 -0.3034
   19CHL1  H16B 1355   5.424   1.457   8.978  0.0575  0.5547  0.1032
   19CHL1   C17 1356   5.495   1.639   9.093 -0.0401  0.1369  0.2115
   19CHL1   H17 1357   5.385   1.657   9.086  0.0276  0.1266 -1.2188
   19CHL1   C13 1358   5.536   1.634   9.243  0.1534  0.4860 -0.5502
   19CHL1   C18 1359   5.689   1.622   9.257 -0.1003  0.1016  0.1859
   19CHL1  H18A 1360   5.715   1.613   9.365 -0.9983 -0.9700  0.3240
   19CHL1  H18B 1361   5.732   1.533   9.207  1.8271  1.1916 -0.1947
   19CHL1  H18C 1362   5.739   1.713   9.216 -0.7310  1.1502  1.6186
   19CHL1   C12 1363   5.466   1.745   9.334  0.0432 -0.3680 -0.1699
   19CHL1  H12A 1364   5.506   1.847   9.312 -2.6202  1.0623  1.1013
   19CHL1  H12B 1365   5.359   1.758   9.307  0.1676  0.3944 -0.3156
   19CHL1   C11 1366   5.485   1.706   9.478  0.3516  0.5061 -0.7238
   19CHL1  H11A 1367   5.594   1.719   9.498  0.0827  1.3911  0.2983
   19CHL1  H11B 1368   5.421   1.768   9.544 -0.3645  0.5382 -1.4370
   19CHL1    C9 1369   5.446   1.562   9.517 -0.1630 -0.0779 -0.1158
   19CHL1    H9 1370   5.336   1.562   9.499 -0.3359  0.1012  0.8545
   19CHL1   C10 1371   5.474   1.528   9.670  0.1505 -0.3007 -0.0165
   19CHL1   C19 1372   5.625   1.541   9.698  0.8057  0.0686 -0.6438
   19CHL1  H19A 1373   5.640   1.545   9.808 -0.9661 -0.2458 -0.3567
   19CHL1  H19B 1374   5.680   1.452   9.662  1.0851  0.4262 -1.1098
   19CHL1  H19C 1375   5.678   1.629   9.654  1.5176 -0.0106  0.0431
   19CHL1    C1 1376   5.389   1.625   9.758  0.1535  0.7322 -0.1968
   19CHL1   H1A 1377   5.436   1.726   9.749  1.8491  0.4268  3.4479
   19CHL1   H1B 1378   5.286   1.620   9.716  0.7419 -0.0366 -1.6080
   19CHL1    C2 1379   5.382   1.585   9.904  0.5792  0.0040 -0.1930
   19CHL1   H2A 1380   5.305   1.642   9.961  2.5952  1.2221  1.4537
   19CHL1   H2B 1381   5.475   1.585   9.964  0.5925 -0.7999 -0.1999
   19CHL1   C20 1382   5.546   1.742   8.997 -0.1719  0.4158  1.2973
   19CHL1   H20 1383   5.654   1.756   9.018  0.7390 -0.8873 -1.9065
   19CHL1   C21 1384   5.488   1.878   9.024 -0.1485 -0.0705  0.0439
   19CHL1  H21A 1385   5.512   1.950   8.944  1.5480  0.1980  0.7608
   19CHL1  H21B 1386   5.520   1.915   9.124  1.7010 -0.6722 -0.2876
   19CHL1  H21C 1387   5.377   1.868   9.017 -0.4033  2.5670 -0.7404
   19CHL1   C22 1388   5.532   1.695   8.845  0.5177 -0.0990  0.1768
   19CHL1  H22A 1389   5.539   1.585   8.833  2.9666 -0.0140  0.2484
   19CHL1  H22B 1390   5.429   1.723   8.815  0.7462  1.9567  1.1178
   19CHL1   C23 1391   5.638   1.754   8.746  0.4073  0.3571 -0.0249
   19CHL1  H23A 1392   5.672   1.853   8.785 -1.3715  0.3267  1.7825
   19CHL1  H23B 1393   5.729   1.691   8.748  0.2411  0.1057 -0.3739
   19CHL1   C24 1394   5.595   1.752   8.604  0.0885  0.6340 -0.4884
   19CHL1  H24A 1395   5.680   1.755   8.532  0.6123 -1.2913 -0.0347
   19CHL1  H24B 1396   5.545   1.653   8.596  0.0088  0.5204  1.0176
   19CHL1   C25 1397   5.480   1.851   8.566 -0.2216 -0.0184  0.5739
   19CHL1   H25 1398   5.391   1.817   8.624 -1.6455  0.2102 -1.3599
   19CHL1   C26 1399   5.518   1.996   8.609  0.2200 -0.3210 -0.2952
   19CHL1  H26A 1400   5.618   2.031   8.576  0.2954 -1.8500 -1.9004
   19CHL1  H26B 1401   5.444   2.068   8.569 -0.3224 -0.3962  0.5550
   19CHL1  H26C 1402   5.513   2.004   8.720 -0.8776 -1.0177 -0.2695
   19CHL1   C27 1403   5.448   1.851   8.417  0.4165 -0.5694 -0.2261
   19CHL1  H27A 1404   5.535   1.896   8.366  0.4931  1.6915  1.7201
   19CHL1  H27B 1405   5.389   1.767   8.375 -1.4181  0.1860  0.6768
   19CHL1  H27C 1406   5.372   1.929   8.393 -0.3189 -0.7872  1.2835
   20CHL1    C3 1407   1.878   3.222  10.349  0.6816 -0.2366 -0.3340
   20CHL1    H3 1408   1.949   3.307  10.333 -1.1829  1.1679 -1.5491
   20CHL1    O3 1409   1.863   3.196  10.488  0.6610  0.4387  0.2518
   20CHL1   H3' 1410   1.770   3.184  10.506  0.8246  0.2459  0.9992
   20CHL1    C4 1411   1.739   3.262  10.296  0.8613 -0.1856  0.4464
   20CHL1   H4A 1412   1.671   3.175  10.308  0.4579 -0.2899 -1.9784
   20CHL1   H4B 1413   1.687   3.344  10.348  1.8391  1.4868 -1.0906
   20CHL1    C5 1414   1.745   3.291  10.145 -0.5685  0.4966 -0.3107
   20CHL1    C6 1415   1.706   3.405  10.095 -0.3609  0.1195  0.6869
   20CHL1    H6 1416   1.674   3.482  10.167  0.7962  0.5124  0.7982
   20CHL1    C7 1417   1.715   3.435   9.947  0.1123 -0.5763 -0.3553
   20CHL1   H7A 1418   1.626   3.492   9.914  0.6762 -0.7612 -2.3245
   20CHL1   H7B 1419   1.796   3.511   9.941 -1.5149  1.2607 -0.1589
   20CHL1    C8 1420   1.730   3.307   9.860  0.1878  0.1988  0.9781
   20CHL1    H8 1421   1.633   3.253   9.862 -0.5942  1.4231 -0.9991
   20CHL1   C14 1422   1.760   3.339   9.712  0.1418 -0.0040 -0.1385
   20CHL1   H14 1423   1.854   3.397   9.718  1.0390 -1.5299  1.2720
   20CHL1   C15 1424   1.659   3.426   9.640 -0.2348  0.2499  0.1413
   20CHL1  H15A 1425   1.556   3.387   9.658  1.4667 -4.2436  1.4979
   20CHL1  H15B 1426   1.668   3.530   9.679 -0.7457  0.4879 -0.3589
   20CHL1   C16 1427   1.706   3.401   9.495  0.6995 -0.5835  0.7602
   20CHL1  H16A 1428   1.616   3.371   9.438 -1.1721  2.9094  1.5717
   20CHL1  H16B 1429   1.755   3.491   9.451  1.7984 -1.1315  0.8154
   20CHL1   C17 1430   1.805   3.286   9.493 -0.1255  0.3396 -0.0908
   20CHL1   H17 1431   1.901   3.342   9.494  0.7119 -1.0204 -0.6724
   20CHL1   C13 1432   1.794   3.209   9.630 -0.6747 -0.2809  0.2915
   20CHL1   C18 1433   1.683   3.104   9.611  0.0658 -0.0150  0.2890
   20CHL1  H18A 1434   1.595   3.163   9.577 -0.4056  0.5142  2.3275
   20CHL1  H18B 1435   1.707   3.024   9.537 -1.5944 -1.4284  1.2036
   20CHL1  H18C 1436   1.657   3.051   9.705 -1.3525 -0.7926 -0.4838
   20CHL1   C12 1437   1.923   3.153   9.686 -0.0629  0.4671  0.0456
   20CHL1  H12A 1438   1.957   3.065   9.627 -2.6050 -0.1714 -0.5839
   20CHL1  H12B 1439   1.997   3.236   9.685  2.2055 -1.4459 -0.5528
   20CHL1   C11 1440   1.911   3.104   9.829 -0.3035  0.1331 -1.0347
   20CHL1  H11A 1441   1.851   3.010   9.830  3.5727 -2.6047 -0.6329
   20CHL1  H11B 1442   2.009   3.071   9.869 -1.4592 -1.6994  0.4650
   20CHL1    C9 1443   1.849   3.224   9.915 -0.5522  0.5097 -0.1763
   20CHL1    H9 1444   1.933   3.296   9.925  1.0157 -1.2900  0.2075
   20CHL1   C10 1445   1.810   3.183  10.064  0.1726  0.0350 -0.4347
   20CHL1   C19 1446   1.707   3.065  10.054 -0.0062  0.0552 -0.0716
   20CHL1  H19A 1447   1.750   2.966  10.025 -0.3051  0.0580 -0.5365
   20CHL1  H19B 1448   1.655   3.039  10.149 -3.8065 -1.8212 -2.4274
   20CHL1  H19C 1449   1.612   3.090  10.004 -1.5735  3.6557  4.0519
   20CHL1    C1 1450   1.938   3.135  10.136 -0.4044  0.3310  0.7545
   20CHL1   H1A 1451   1.975   3.046  10.080 -0.3256 -0.2953  1.7667
   20CHL1   H1B 1452   2.021   3.208  10.126  0.6444 -1.0715 -1.4300
   20CHL1    C2 1453   1.931   3.099  10.281 -0.5705  0.4404 -1.0951
   20CHL1   H2A 1454   2.029   3.082  10.331 -0.1924  1.4884 -1.4339
   20CHL1   H2B 1455   1.864   3.013  10.301  1.0216 -0.9247 -1.3725
   20CHL1   C20 1456   1.790   3.209   9.360  0.2330 -0.3354 -0.2818
   20CHL1   H20 1457   1.693   3.154   9.362  0.0417  0.0144  1.2343
   20CHL1   C21 1458   1.904   3.108   9.350 -0.1977  1.0456 -0.2498
   20CHL1  H21A 1459   2.000   3.163   9.362 -0.4383  1.1544  1.3626
   20CHL1  H21B 1460   1.895   3.056   9.252 -1.0291  0.6160  0.0444
   20CHL1  H21C 1461   1.894   3.020   9.417  1.2257  0.3018 -0.9550
   20CHL1   C22 1462   1.792   3.298   9.237 -0.3456  0.6227  0.7320
   20CHL1  H22A 1463   1.711   3.374   9.236 -0.0574  0.9625 -0.7875
   20CHL1  H22B 1464   1.889   3.351   9.223 -0.2156  0.0174 -0.9090
   20CHL1   C23 1465   1.763   3.215   9.106  0.1561  0.3148 -0.1949
   20CHL1  H23A 1466   1.853   3.154   9.079  0.5034  0.6600  0.1783
   20CHL1  H23B 1467   1.676   3.146   9.119 -1.5076  2.6558  1.8620
   20CHL1   C24 1468   1.751   3.302   8.977  0.7246 -0.4226 -0.3838
   20CHL1  H24A 1469   1.685   3.387   9.004  1.9696 -0.4497  3.2913
   20CHL1  H24B 1470   1.854   3.345   8.981  0.8568 -0.7860  0.4465
   20CHL1   C25 1471   1.717   3.225   8.850  0.6325 -0.4574  0.7330
   20CHL1   H25 1472   1.629   3.162   8.875 -0.2057  1.1238  1.9937
   20CHL1   C26 1473   1.680   3.311   8.727 -0.3157  0.1956  0.5840
   20CHL1  H26A 1474   1.771   3.344   8.672 -1.0121  1.1070 -0.0550
   20CHL1  H26B 1475   1.613   3.259   8.655 -1.9791 -1.3127  3.0714
   20CHL1  H26C 1476   1.626   3.397   8.771 -1.0266 -0.1065  0.3067
   20CHL1   C27 1477   1.834   3.131   8.804 -0.0265 -0.3784 -1.1040
   20CHL1  H27A 1478   1.844   3.047   8.876 -1.6753  0.5901  0.3320
   20CHL1  H27B 1479   1.804   3.079   8.711 -0.5873 -1.4235 -0.3598
   20CHL1  H27C 1480   1.925   3.192   8.785 -1.1313  0.7239 -3.3228
   21CHL1    C3 1481   2.304   5.363  10.481  0.8201 -0.1720 -0.0374
   21CHL1    H3 1482   2.262   5.265  10.451 -2.6388  1.3743 -0.7114
   21CHL1    O3 1483   2.287   5.379  10.623 -0.5614  0.5127  0.4041
   21CHL1   H3' 1484   2.206   5.342  10.657  0.3217  1.0423  3.3549
   21CHL1    C4 1485   2.455   5.382  10.454 -0.7842  0.3882 -0.4545
   21CHL1   H4A 1486   2.479   5.474  10.510  0.0963 -0.2231  0.2050
   21CHL1   H4B 1487   2.513   5.302  10.505  1.0835  1.3419 -1.0088
   21CHL1    C5 1488   2.486   5.397  10.308  0.6311  0.4941 -0.5941
   21CHL1    C6 1489   2.589   5.331  10.256  0.4714 -0.4583 -0.0546
   21CHL1    H6 1490   2.650   5.265  10.319  0.5666 -1.9173 -1.6116
   21CHL1    C7 1491   2.635   5.336  10.115  0.5218  0.0771 -0.0894
   21CHL1   H7A 1492   2.742   5.367  10.114  0.2715  0.9541 -0.5501
   21CHL1   H7B 1493   2.613   5.232  10.082 -0.9056  0.3956 -0.1955
   21CHL1    C8 1494   2.554   5.440  10.027 -0.3025 -0.0302  0.8020
   21CHL1    H8 1495   2.605   5.537  10.047  2.5590 -0.1248 -4.3675
   21CHL1   C14 1496   2.561   5.409   9.879 -0.2850 -0.0282  0.4931
   21CHL1   H14 1497   2.502   5.315   9.875  1.8911 -1.4502 -0.5950
   21CHL1   C15 1498   2.701   5.378   9.825 -0.0654 -0.4786 -0.0214
   21CHL1  H15A 1499   2.776   5.451   9.863 -1.8775  1.8596 -0.6888
   21CHL1  H15B 1500   2.735   5.278   9.859  1.2436  0.2777  1.0295
   21CHL1   C16 1501   2.684   5.386   9.675  0.1002  0.7650  0.5849
   21CHL1  H16A 1502   2.758   5.455   9.628  0.4949  1.4046  2.0607
   21CHL1  H16B 1503   2.700   5.284   9.634  0.2700  0.3368  1.6764
   21CHL1   C17 1504   2.537   5.436   9.647  0.5015 -0.1045 -0.2118
   21CHL1   H17 1505   2.472   5.346   9.636  0.6510 -0.2349 -0.0300
   21CHL1   C13 1506   2.495   5.503   9.782  0.1736 -0.4861  0.1341
   21CHL1   C18 1507   2.561   5.646   9.785 -0.6525 -0.3650 -0.1745
   21CHL1  H18A 1508   2.672   5.653   9.790 -0.7958  2.1998  1.1516
   21CHL1  H18B 1509   2.515   5.710   9.706 -1.1486 -2.1313 -1.3998
   21CHL1  H18C 1510   2.527   5.695   9.878 -0.0505  0.7518 -0.5338
   21CHL1   C12 1511   2.345   5.508   9.824 -0.5169  0.5153 -0.3611
   21CHL1  H12A 1512   2.276   5.567   9.760 -1.8315  0.7578  1.2215
   21CHL1  H12B 1513   2.318   5.403   9.802  3.1605 -0.8633  0.9635
   21CHL1   C11 1514   2.322   5.550   9.971  0.5550  0.2438  0.0230
   21CHL1  H11A 1515   2.353   5.657   9.974  0.8774  0.3782 -3.5113
   21CHL1  H11B 1516   2.214   5.543   9.996  0.3211  2.4081 -0.1823
   21CHL1    C9 1517   2.402   5.457  10.066 -0.1828 -0.0085 -0.5066
   21CHL1    H9 1518   2.356   5.356  10.057 -1.7614  0.7215 -1.0403
   21CHL1   C10 1519   2.385   5.487  10.221 -0.4838  0.4165 -0.4499
   21CHL1   C19 1520   2.431   5.635  10.242 -0.5392 -0.0713  0.2758
   21CHL1  H19A 1521   2.536   5.656  10.212 -0.6680 -0.4242 -0.4505
   21CHL1  H19B 1522   2.368   5.699  10.177 -1.1449 -1.2128 -0.2858
   21CHL1  H19C 1523   2.415   5.669  10.347 -1.0314 -4.1382  1.7106
   21CHL1    C1 1524   2.242   5.465  10.265  0.1645 -0.3416  0.3775
   21CHL1   H1A 1525   2.186   5.556  10.236  1.2551  0.9118  2.0023
   21CHL1   H1B 1526   2.203   5.370  10.223  3.0376 -0.8169 -1.5091
   21CHL1    C2 1527   2.217   5.466  10.418 -0.4687  0.3375  0.9752
   21CHL1   H2A 1528   2.115   5.434  10.448  0.5212 -0.7189  3.4693
   21CHL1   H2B 1529   2.235   5.566  10.463  2.5508  1.0026 -1.3242
   21CHL1   C20 1530   2.511   5.519   9.517 -0.1193 -0.6975  0.6635
   21CHL1   H20 1531   2.575   5.608   9.532  0.0208 -0.8458  0.9675
   21CHL1   C21 1532   2.368   5.567   9.507 -0.6518 -0.1349  0.2793
   21CHL1  H21A 1533   2.302   5.481   9.530 -0.6870 -0.5205 -1.1752
   21CHL1  H21B 1534   2.350   5.614   9.408  1.3228  0.0654 -0.0343
   21CHL1  H21C 1535   2.353   5.637   9.592  1.7218  1.2693 -0.3601
   21CHL1   C22 1536   2.552   5.447   9.381 -0.6187 -1.1726 -0.7342
   21CHL1  H22A 1537   2.647   5.394   9.404 -0.7055 -0.6053  1.0837
   21CHL1  H22B 1538   2.474   5.372   9.356 -0.9817 -1.2715  0.6081
   21CHL1   C23 1539   2.582   5.541   9.263  0.1425  0.3388 -0.1550
   21CHL1  H23A 1540   2.501   5.617   9.258 -1.8911 -1.8013 -2.1227
   21CHL1  H23B 1541   2.674   5.598   9.287 -0.3453  0.2250  2.2229
   21CHL1   C24 1542   2.590   5.464   9.128  0.1081  0.4677  0.7218
   21CHL1  H24A 1543   2.682   5.402   9.126  1.4400  2.3045  1.8682
   21CHL1  H24B 1544   2.496   5.405   9.130  0.2161  0.1600 -1.0025
   21CHL1   C25 1545   2.593   5.557   9.002  0.0330 -0.3143  0.0477
   21CHL1   H25 1546   2.533   5.649   9.022  0.6878  0.1159  0.0618
   21CHL1   C26 1547   2.739   5.598   8.977 -0.4292 -0.2688  0.7614
   21CHL1  H26A 1548   2.755   5.699   8.934  2.8595 -0.3194  1.5823
   21CHL1  H26B 1549   2.798   5.590   9.070  0.4859 -0.7278  0.1592
   21CHL1  H26C 1550   2.779   5.516   8.913 -1.4183 -1.0563  1.1352
   21CHL1   C27 1551   2.526   5.494   8.876  0.5500  0.5300 -0.2271
   21CHL1  H27A 1552   2.579   5.407   8.831  2.3580  1.3273  0.2625
   21CHL1  H27B 1553   2.419   5.478   8.901  0.4913  1.9816  0.5000
   21CHL1  H27C 1554   2.524   5.566   8.791 -0.3757 -2.6468 -3.1548
   22CHL1    C3 1555   2.416   1.413  10.241 -0.3387 -0.6669 -0.5865
   22CHL1    H3 1556   2.486   1.498  10.228  0.7641 -1.5048 -0.2497
   22CHL1    O3 1557   2.410   1.400  10.385 -0.1471 -0.1658  0.0799
   22CHL1   H3' 1558   2.385   1.489  10.411  2.5656  1.0462 -1.0777
   22CHL1    C4 1559   2.280   1.456  10.178 -0.3594  0.5315 -0.3577
   22CHL1   H4A 1560   2.205   1.377  10.199 -1.0065  1.2228 -0.0526
   22CHL1   H4B 1561   2.260   1.554  10.226 -0.4720 -0.1309  0.9958
   22CHL1    C5 1562   2.304   1.475  10.024  0.1150  0.4027 -0.3717
   22CHL1    C6 1563   2.291   1.590   9.952 -0.3469 -0.3035 -0.4876
   22CHL1    H6 1564   2.265   1.677  10.015  0.6482 -1.1723  1.2182
   22CHL1    C7 1565   2.303   1.604   9.804  0.1477 -0.1167 -0.2905
   22CHL1   H7A 1566   2.213   1.658   9.769 -1.1062 -0.8579  1.6202
   22CHL1   H7B 1567   2.390   1.668   9.778 -1.7745  1.4491 -3.4761
   22CHL1    C8 1568   2.315   1.473   9.726  0.2252  0.3007  0.0358
   22CHL1    H8 1569   2.210   1.437   9.721 -0.1839  1.5508 -0.8439
   22CHL1   C14 1570   2.379   1.484   9.586 -0.2874  0.4457 -0.0071
   22CHL1   H14 1571   2.484   1.518   9.602 -0.5647  1.3336 -0.0264
   22CHL1   C15 1572   2.333   1.600   9.491 -0.0958  0.2401 -0.3159
   22CHL1  H15A 1573   2.222   1.607   9.490 -0.0227  2.2696  0.5754
   22CHL1  H15B 1574   2.378   1.695   9.527 -1.5908  1.3927 -1.3901
   22CHL1   C16 1575   2.392   1.561   9.354 -0.5497 -0.2990 -0.0962
   22CHL1  H16A 1576   2.313   1.575   9.277 -2.3346  0.7502  1.8068
   22CHL1  H16B 1577   2.479   1.623   9.324 -1.5602  0.5948 -1.2858
   22CHL1   C17 1578   2.449   1.413   9.370 -0.2743  0.1939  0.0895
   22CHL1   H17 1579   2.556   1.422   9.396 -0.1833 -1.5415  0.4089
   22CHL1   C13 1580   2.381   1.355   9.497  0.2422  0.4694  0.0572
   22CHL1   C18 1581   2.241   1.295   9.466 -0.0226  0.1389  0.0007
   22CHL1  H18A 1582   2.184   1.352   9.389 -2.0442  0.1148  1.3860
   22CHL1  H18B 1583   2.259   1.191   9.430 -0.0630  0.2406 -0.3243
   22CHL1  H18C 1584   2.180   1.274   9.556 -0.2113 -1.0052 -0.3733
   22CHL1   C12 1585   2.469   1.251   9.577 -0.1577  0.6766  0.2900
   22CHL1  H12A 1586   2.456   1.160   9.515  0.5358  1.1953 -0.6401
   22CHL1  H12B 1587   2.575   1.281   9.588 -0.0888  0.1243  1.2089
   22CHL1   C11 1588   2.409   1.234   9.722 -0.7524 -0.0793  0.0091
   22CHL1  H11A 1589   2.313   1.178   9.717 -0.7119 -0.2338  0.7902
   22CHL1  H11B 1590   2.470   1.167   9.785 -1.1184 -0.0616  0.3920
   22CHL1    C9 1591   2.392   1.369   9.805 -0.3839 -0.1286  0.4049
   22CHL1    H9 1592   2.493   1.413   9.820 -0.0446 -1.2921  1.7241
   22CHL1   C10 1593   2.350   1.341   9.952  0.0582  0.2443  0.1160
   22CHL1   C19 1594   2.236   1.247   9.951  0.2794  0.0165  0.1724
   22CHL1  H19A 1595   2.166   1.282   9.872  0.2744  0.3808  0.3373
   22CHL1  H19B 1596   2.271   1.145   9.924 -1.3857 -0.8181  0.9862
   22CHL1  H19C 1597   2.175   1.226  10.042 -0.6461 -0.7220 -0.5950
   22CHL1    C1 1598   2.480   1.288  10.020 -0.5191  0.3544  0.1590
   22CHL1   H1A 1599   2.488   1.178  10.002 -2.7384  0.2461 -0.5613
   22CHL1   H1B 1600   2.573   1.344  10.000 -0.1609 -0.0758  0.5951
   22CHL1    C2 1601   2.467   1.286  10.173  0.1419  0.4760  0.0125
   22CHL1   H2A 1602   2.561   1.252  10.221  0.8333  2.3387  0.0893
   22CHL1   H2B 1603   2.384   1.213  10.182 -0.1835  0.8832  0.3489
   22CHL1   C20 1604   2.435   1.339   9.231 -0.4808  0.7773 -0.2299
   22CHL1   H20 1605   2.326   1.332   9.210 -0.6240 -0.4869  0.7756
   22CHL1   C21 1606   2.489   1.199   9.248 -0.2398 -0.2008  0.5039
   22CHL1  H21A 1607   2.422   1.144   9.318 -0.7991 -2.3395 -1.5894
   22CHL1  H21B 1608   2.583   1.196   9.307  0.7398  0.6112 -0.9453
   22CHL1  H21C 1609   2.503   1.142   9.154 -0.1668  2.7758 -1.4223
   22CHL1   C22 1610   2.496   1.408   9.109  0.4665  0.2853  0.1947
   22CHL1  H22A 1611   2.474   1.353   9.015  0.1358 -1.7365  1.3969
   22CHL1  H22B 1612   2.437   1.500   9.088  2.9260  1.3785 -2.6995
   22CHL1   C23 1613   2.644   1.446   9.101 -0.0078 -0.1827  0.5540
   22CHL1  H23A 1614   2.689   1.457   9.202  0.7948 -0.9250  0.2920
   22CHL1  H23B 1615   2.694   1.363   9.047 -0.2598 -1.4226  2.1372
   22CHL1   C24 1616   2.668   1.572   9.020 -0.4626 -0.3969 -1.0587
   22CHL1  H24A 1617   2.623   1.547   8.922 -0.5513 -2.7033 -0.4744
   22CHL1  H24B 1618   2.624   1.666   9.061  1.2912  0.1274 -0.2559
   22CHL1   C25 1619   2.812   1.610   9.016 -0.1136  0.0980  0.0520
   22CHL1   H25 1620   2.847   1.635   9.119  2.9568  0.1461 -0.9257
   22CHL1   C26 1621   2.888   1.488   8.967  0.2452  0.8014 -0.0516
   22CHL1  H26A 1622   2.839   1.444   8.878  0.3211 -1.6045  1.0068
   22CHL1  H26B 1623   2.988   1.523   8.936  1.4581 -1.5497  0.9182
   22CHL1  H26C 1624   2.895   1.419   9.054  1.1884  2.7399  1.4843
   22CHL1   C27 1625   2.840   1.739   8.937  0.0709  0.7629  0.3710
   22CHL1  H27A 1626   2.803   1.829   8.990 -1.3028 -0.3502  1.3898
   22CHL1  H27B 1627   2.948   1.727   8.919  0.0609 -1.4228  1.4615
   22CHL1  H27C 1628   2.782   1.732   8.842  0.8230  2.0070 -0.2110
   23CHL1    C3 1629   5.509   6.591  10.214  0.5674 -0.3882 -0.3655
   23CHL1    H3 1630   5.485   6.686  10.161 -1.2399  0.2931  1.5253
   23CHL1    O3 1631   5.472   6.601  10.348  0.5997  0.3432 -0.0111
   23CHL1   H3' 1632   5.475   6.509  10.377 -2.1790  0.0736 -0.3009
   23CHL1    C4 1633   5.422   6.481  10.155 -1.1132  0.1842  0.3673
   23CHL1   H4A 1634   5.422   6.395  10.225 -0.3733  0.0135  0.1740
   23CHL1   H4B 1635   5.314   6.506  10.151 -1.7971 -2.5756 -0.7102
   23CHL1    C5 1636   5.466   6.452  10.012  0.1282  0.1083  0.6589
   23CHL1    C6 1637   5.382   6.464   9.904 -0.2050 -0.2247 -0.1001
   23CHL1    H6 1638   5.279   6.500   9.920 -0.3422 -0.2344 -0.8923
   23CHL1    C7 1639   5.426   6.423   9.762 -0.5042 -0.6928  0.3360
   23CHL1   H7A 1640   5.343   6.372   9.709 -0.6122  0.4869 -0.6689
   23CHL1   H7B 1641   5.450   6.513   9.702  1.0414  0.0591  1.9820
   23CHL1    C8 1642   5.557   6.346   9.751  0.1221  0.3667  0.2532
   23CHL1    H8 1643   5.536   6.241   9.781  0.5822  0.0459 -0.5077
   23CHL1   C14 1644   5.611   6.350   9.608  0.1466 -0.2263 -0.0393
   23CHL1   H14 1645   5.648   6.453   9.590 -1.7877  1.1685  3.1232
   23CHL1   C15 1646   5.518   6.321   9.494  0.4672 -0.1540  0.1527
   23CHL1  H15A 1647   5.473   6.220   9.504  0.3019 -0.1759 -0.7701
   23CHL1  H15B 1648   5.442   6.401   9.485 -0.8616 -1.5138 -1.3475
   23CHL1   C16 1649   5.615   6.323   9.380 -0.7012 -0.4405  0.2066
   23CHL1  H16A 1650   5.582   6.239   9.315 -1.3944 -2.4074  2.9165
   23CHL1  H16B 1651   5.601   6.423   9.333  1.5046 -0.0455  0.3107
   23CHL1   C17 1652   5.763   6.309   9.434 -0.1869 -0.2647  0.0539
   23CHL1   H17 1653   5.805   6.412   9.429  0.0083 -0.4011 -1.4215
   23CHL1   C13 1654   5.746   6.270   9.586  0.9310 -0.8165  0.2508
   23CHL1   C18 1655   5.729   6.119   9.608  0.1150 -0.5111  0.6839
   23CHL1  H18A 1656   5.830   6.077   9.592  0.0703  0.1747 -1.7104
   23CHL1  H18B 1657   5.701   6.108   9.715 -1.6004 -0.0823  0.3097
   23CHL1  H18C 1658   5.649   6.055   9.564  0.7710  0.2795 -1.8018
   23CHL1   C12 1659   5.846   6.338   9.683  0.1657  0.5465 -0.1708
   23CHL1  H12A 1660   5.944   6.286   9.680  0.1030  0.4597 -0.8619
   23CHL1  H12B 1661   5.869   6.441   9.647  0.9981 -0.5046 -2.8504
   23CHL1   C11 1662   5.802   6.343   9.826 -0.8261  0.3765 -0.1012
   23CHL1  H11A 1663   5.793   6.242   9.871 -1.6058  0.7861  0.7137
   23CHL1  H11B 1664   5.875   6.402   9.886 -1.8254  1.8218 -0.2381
   23CHL1    C9 1665   5.665   6.406   9.850 -0.0088  0.2792  0.2781
   23CHL1    H9 1666   5.670   6.511   9.815  0.2470  0.9200  2.1021
   23CHL1   C10 1667   5.620   6.409   9.995  0.7869 -0.5284  0.3893
   23CHL1   C19 1668   5.622   6.265  10.065  0.5405  0.1136 -0.6368
   23CHL1  H19A 1669   5.611   6.283  10.175  2.7830  0.3964 -0.4087
   23CHL1  H19B 1670   5.552   6.197  10.014 -2.4083  2.5527 -0.1204
   23CHL1  H19C 1671   5.725   6.224  10.069  1.0174  1.3194  2.4252
   23CHL1    C1 1672   5.713   6.504  10.077 -0.1422 -0.1938  0.0510
   23CHL1   H1A 1673   5.811   6.453  10.087 -0.4583 -0.7477  0.3441
   23CHL1   H1B 1674   5.733   6.594  10.014 -1.0934 -1.2666 -1.8647
   23CHL1    C2 1675   5.656   6.554  10.216  0.1538  0.2912  0.0625
   23CHL1   H2A 1676   5.725   6.632  10.255  0.0946  0.5950 -0.4258
   23CHL1   H2B 1677   5.667   6.471  10.289 -1.4707 -0.8792 -0.9562
   23CHL1   C20 1678   5.841   6.214   9.345  0.3987 -0.3302 -1.1557
   23CHL1   H20 1679   5.785   6.119   9.359 -1.2014  0.8166  0.9582
   23CHL1   C21 1680   5.984   6.206   9.393  0.2538 -0.5078  1.2660
   23CHL1  H21A 1681   6.006   6.183   9.500  0.8444  0.5425  1.3877
   23CHL1  H21B 1682   6.026   6.309   9.379 -0.3141 -0.3085  1.0028
   23CHL1  H21C 1683   6.045   6.140   9.328 -0.2709  1.3437 -1.2904
   23CHL1   C22 1684   5.829   6.238   9.193  0.2509  0.1341  0.4726
   23CHL1  H22A 1685   5.873   6.157   9.131 -1.1264  0.8649 -1.5605
   23CHL1  H22B 1686   5.722   6.240   9.164  0.7104 -2.3475 -1.7575
   23CHL1   C23 1687   5.894   6.371   9.145  0.5144  0.0671  0.5590
   23CHL1  H23A 1688   5.917   6.434   9.233  1.9044 -1.8518  1.6467
   23CHL1  H23B 1689   5.987   6.347   9.090  0.3577 -1.8115  1.0547
   23CHL1   C24 1690   5.805   6.422   9.031  0.3012 -0.4232 -0.0899
   23CHL1  H24A 1691   5.783   6.343   8.956 -1.2908 -1.3012  1.2197
   23CHL1  H24B 1692   5.702   6.448   9.066  0.4862  0.7637 -0.3817
   23CHL1   C25 1693   5.866   6.544   8.966  0.8647  0.3464  0.1128
   23CHL1   H25 1694   5.973   6.532   8.939  1.2276  1.5569  0.9264
   23CHL1   C26 1695   5.795   6.568   8.834  0.2460 -0.0541 -0.0638
   23CHL1  H26A 1696   5.686   6.582   8.852  0.3295  0.6494 -0.0727
   23CHL1  H26B 1697   5.826   6.658   8.776 -1.2819  1.5961  1.5595
   23CHL1  H26C 1698   5.809   6.479   8.768 -1.8862 -0.0345 -0.6162
   23CHL1   C27 1699   5.845   6.667   9.062  0.3305 -0.2137 -0.0240
   23CHL1  H27A 1700   5.904   6.652   9.155  0.0309 -1.8757 -0.0728
   23CHL1  H27B 1701   5.883   6.754   9.005 -1.8401  1.8367  1.4671
   23CHL1  H27C 1702   5.741   6.693   9.092  1.0737  1.8090  0.9683
   24CHL1    C3 1703   6.601   1.082  10.242 -0.3538  0.1459 -0.2435
   24CHL1    H3 1704   6.700   1.084  10.193  0.4941  2.8433  1.3382
   24CHL1    O3 1705   6.608   1.125  10.371 -0.0940  0.8780  0.2180
   24CHL1   H3' 1706   6.517   1.138  10.397  0.3885  2.5074  1.2314
   24CHL1    C4 1707   6.509   1.170  10.156 -0.1474 -0.2792  0.1837
   24CHL1   H4A 1708   6.416   1.176  10.215  0.0592  0.4426  0.4482
   24CHL1   H4B 1709   6.544   1.275  10.144 -0.5872 -0.2302 -0.7595
   24CHL1    C5 1710   6.473   1.102  10.023 -0.3071  0.4087  0.1497
   24CHL1    C6 1711   6.497   1.168   9.911 -0.0010  0.2336  0.7630
   24CHL1    H6 1712   6.523   1.275   9.917  0.6779  0.1327 -0.1357
   24CHL1    C7 1713   6.466   1.109   9.774 -0.1590 -0.3894  0.0207
   24CHL1   H7A 1714   6.413   1.179   9.707  1.8481  2.2528  1.0296
   24CHL1   H7B 1715   6.561   1.076   9.728  2.6461  4.2011  1.8035
   24CHL1    C8 1716   6.370   0.986   9.782 -0.6716  0.3327 -0.4199
   24CHL1    H8 1717   6.268   1.023   9.807 -0.4247 -0.2941  1.7418
   24CHL1   C14 1718   6.366   0.916   9.651  0.6888  0.8624 -0.1193
   24CHL1   H14 1719   6.469   0.881   9.629 -0.3053 -0.6625 -2.7920
   24CHL1   C15 1720   6.329   1.007   9.532  0.7485  0.6532  0.1116
   24CHL1  H15A 1721   6.240   1.064   9.566 -1.6913 -2.7530 -0.0695
   24CHL1  H15B 1722   6.411   1.079   9.513  0.6503  0.5929 -0.5809
   24CHL1   C16 1723   6.296   0.894   9.425  0.0470  0.1257 -0.4905
   24CHL1  H16A 1724   6.197   0.923   9.382 -0.9718 -1.7948  0.4224
   24CHL1  H16B 1725   6.377   0.898   9.349 -0.1988  4.2998 -0.7783
   24CHL1   C17 1726   6.279   0.754   9.499 -0.7480 -0.0604 -0.4134
   24CHL1   H17 1727   6.376   0.702   9.488  1.0062  2.4737  1.8853
   24CHL1   C13 1728   6.269   0.791   9.653 -0.2095 -0.0666 -0.6162
   24CHL1   C18 1729   6.118   0.824   9.682  0.1151  0.1084  0.2694
   24CHL1  H18A 1730   6.068   0.892   9.609  2.5875  1.6718 -0.1008
   24CHL1  H18B 1731   6.044   0.742   9.690 -1.7824  1.8854  2.3169
   24CHL1  H18C 1732   6.112   0.873   9.781  0.8615  2.1550 -0.6362
   24CHL1   C12 1733   6.328   0.687   9.751 -0.2117  0.9011 -0.0751
   24CHL1  H12A 1734   6.256   0.603   9.758 -1.5908  2.0206 -0.4355
   24CHL1  H12B 1735   6.425   0.653   9.709 -1.1034 -1.2872 -0.4909
   24CHL1   C11 1736   6.342   0.762   9.888  0.1496  0.6243 -0.4973
   24CHL1  H11A 1737   6.237   0.784   9.917  0.2422  0.0932  0.2596
   24CHL1  H11B 1738   6.398   0.697   9.958  0.5791  0.4609 -0.9854
   24CHL1    C9 1739   6.417   0.893   9.890 -0.1522 -0.6874  0.2213
   24CHL1    H9 1740   6.521   0.869   9.858 -1.1371 -3.3949 -1.2511
   24CHL1   C10 1741   6.418   0.966  10.031  0.1453  0.3737  0.6085
   24CHL1   C19 1742   6.271   0.965  10.092 -0.6800 -0.6462  0.3469
   24CHL1  H19A 1743   6.203   1.012  10.018  2.3169  0.5853 -1.8194
   24CHL1  H19B 1744   6.236   0.864  10.123 -0.3704 -0.2062  2.2817
   24CHL1  H19C 1745   6.270   1.034  10.179  0.6960  1.7054 -1.3685
   24CHL1    C1 1746   6.506   0.877  10.123 -0.4337  0.4550  1.0309
   24CHL1   H1A 1747   6.468   0.774  10.144 -1.1808  0.3643 -0.6493
   24CHL1   H1B 1748   6.606   0.873  10.076  0.1248  2.2486  1.9724
   24CHL1    C2 1749   6.547   0.942  10.258 -0.2105  0.5504 -0.0001
   24CHL1   H2A 1750   6.616   0.872  10.310 -2.4673 -1.3888  0.6022
   24CHL1   H2B 1751   6.454   0.944  10.319 -0.0517  0.7219  0.2329
   24CHL1   C20 1752   6.169   0.658   9.437  0.5877 -0.0936  0.3612
   24CHL1   H20 1753   6.068   0.702   9.426 -0.1257 -1.9321 -0.9035
   24CHL1   C21 1754   6.169   0.530   9.518 -0.5508  0.7462  0.0431
   24CHL1  H21A 1755   6.130   0.549   9.620  1.1468 -0.3261  0.9411
   24CHL1  H21B 1756   6.272   0.494   9.537 -0.2345  2.0016  0.8349
   24CHL1  H21C 1757   6.112   0.449   9.467 -0.7061  2.2976 -2.4265
   24CHL1   C22 1758   6.204   0.630   9.290  0.3195 -0.2496 -0.0219
   24CHL1  H22A 1759   6.245   0.719   9.239  2.2202  0.2878  2.2704
   24CHL1  H22B 1760   6.288   0.558   9.296  1.6050  1.2245  0.1219
   24CHL1   C23 1761   6.088   0.583   9.199 -0.1082 -0.2652  0.4276
   24CHL1  H23A 1762   6.046   0.481   9.207 -1.6252  0.3293  0.4366
   24CHL1  H23B 1763   6.000   0.649   9.212 -0.7010 -0.1657 -3.0393
   24CHL1   C24 1764   6.122   0.612   9.051  0.1031 -0.5401  0.9521
   24CHL1  H24A 1765   6.040   0.557   9.000 -0.7971  1.0023  0.6861
   24CHL1  H24B 1766   6.114   0.722   9.037 -0.7149 -0.6230  0.7427
   24CHL1   C25 1767   6.256   0.556   8.986  0.0087  0.0149  0.0231
   24CHL1   H25 1768   6.335   0.618   9.032 -0.9167  1.2409  0.0120
   24CHL1   C26 1769   6.265   0.410   9.026  0.0850 -0.5243 -0.3893
   24CHL1  H26A 1770   6.176   0.352   8.993  0.8769 -2.3947  0.5924
   24CHL1  H26B 1771   6.358   0.370   8.980  0.0947 -0.1496 -0.7011
   24CHL1  H26C 1772   6.277   0.415   9.136  0.9461  1.5258 -0.5283
   24CHL1   C27 1773   6.244   0.583   8.840 -0.4443 -0.0027 -0.2571
   24CHL1  H27A 1774   6.235   0.692   8.819  0.4687  0.4184  1.3495
   24CHL1  H27B 1775   6.326   0.535   8.782 -0.9151 -0.8699 -0.2226
   24CHL1  H27C 1776   6.146   0.543   8.806 -0.3133 -0.2476 -0.3451
   25CHL1    C3 1777   1.233   4.859  10.462 -0.0817 -0.0802  0.1416
   25CHL1    H3 1778   1.322   4.926  10.464 -0.2336  0.1256 -0.0246
   25CHL1    O3 1779   1.211   4.823  10.596 -0.5027 -0.2440  0.1286
   25CHL1   H3' 1780   1.154   4.747  10.585 -2.0415  1.0552 -1.3383
   25CHL1    C4 1781   1.114   4.935  10.400  0.5072  0.3673 -0.4192
   25CHL1   H4A 1782   1.028   4.869  10.427 -0.7970  1.8819 -0.6757
   25CHL1   H4B 1783   1.103   5.030  10.457  0.8219  0.5644 -0.6886
   25CHL1    C5 1784   1.134   4.961  10.253 -0.3631  0.9251  0.9222
   25CHL1    C6 1785   1.121   5.080  10.187  0.0150  0.5486 -0.0224
   25CHL1    H6 1786   1.110   5.166  10.255  0.3314  1.6292 -1.3024
   25CHL1    C7 1787   1.135   5.105  10.036  0.1522  0.3777  0.3364
   25CHL1   H7A 1788   1.046   5.167  10.012 -1.8987 -2.0835  1.1204
   25CHL1   H7B 1789   1.232   5.155  10.014 -0.4046  1.1095 -0.5043
   25CHL1    C8 1790   1.119   4.973   9.951 -0.2455  0.2798  0.0555
   25CHL1    H8 1791   1.012   4.944   9.948 -0.4035  0.8738 -2.7512
   25CHL1   C14 1792   1.167   4.990   9.811 -0.1210 -1.1110  0.3169
   25CHL1   H14 1793   1.276   5.003   9.825 -0.1766 -2.3781  2.2959
   25CHL1   C15 1794   1.133   5.120   9.735 -0.1374 -0.0203  0.6235
   25CHL1  H15A 1795   1.026   5.131   9.704  0.6694  1.3159 -1.9457
   25CHL1  H15B 1796   1.171   5.209   9.790  1.1482 -0.8080  1.0583
   25CHL1   C16 1797   1.190   5.092   9.596  0.3569 -0.1295 -1.0064
   25CHL1  H16A 1798   1.115   5.122   9.519 -1.3908  1.1559  1.0995
   25CHL1  H16B 1799   1.281   5.153   9.576  0.1107  0.4821 -0.2992
   25CHL1   C17 1800   1.220   4.935   9.588  0.1313 -0.6015 -0.5840
   25CHL1   H17 1801   1.331   4.936   9.592  0.1245  1.1094  0.3384
   25CHL1   C13 1802   1.161   4.873   9.714  0.4981  0.6529 -0.7644
   25CHL1   C18 1803   1.016   4.836   9.686  0.4161  0.3016  0.7534
   25CHL1  H18A 1804   0.963   4.898   9.611  0.4083 -2.6991 -1.9412
   25CHL1  H18B 1805   1.001   4.739   9.634  2.1494  0.8291 -0.8533
   25CHL1  H18C 1806   0.958   4.822   9.780 -0.4669  1.4120  0.4022
   25CHL1   C12 1807   1.239   4.756   9.780 -0.4900  0.2475 -0.1192
   25CHL1  H12A 1808   1.223   4.666   9.717 -1.3945  0.8252 -0.7481
   25CHL1  H12B 1809   1.346   4.783   9.777 -0.4458  0.0249 -0.8184
   25CHL1   C11 1810   1.196   4.733   9.931 -0.2248  0.0947 -0.2981
   25CHL1  H11A 1811   1.101   4.675   9.928 -0.7662  0.8420  1.1888
   25CHL1  H11B 1812   1.258   4.655   9.980 -0.4610 -1.4476 -2.3322
   25CHL1    C9 1813   1.200   4.860  10.018  0.3935 -0.0066  0.9904
   25CHL1    H9 1814   1.307   4.892  10.016  1.4026 -3.0482  0.1755
   25CHL1   C10 1815   1.168   4.835  10.163  0.0845  0.0137 -0.0037
   25CHL1   C19 1816   1.048   4.737  10.155 -0.1982  0.3576 -0.4810
   25CHL1  H19A 1817   1.062   4.633  10.119 -1.4102  0.3852 -1.0956
   25CHL1  H19B 1818   0.997   4.706  10.248  0.6266 -1.2390 -0.5317
   25CHL1  H19C 1819   0.980   4.795  10.088  0.3176  1.9424  0.3192
   25CHL1    C1 1820   1.289   4.763  10.223 -1.2806 -0.5662 -0.4755
   25CHL1   H1A 1821   1.327   4.676  10.166  0.9979 -1.2267  1.8532
   25CHL1   H1B 1822   1.373   4.834  10.235 -0.2915 -1.9793  1.7472
   25CHL1    C2 1823   1.279   4.735  10.377  0.1818  0.1882 -0.1101
   25CHL1   H2A 1824   1.379   4.704  10.415 -0.2519 -0.6532  0.3581
   25CHL1   H2B 1825   1.203   4.658  10.400 -0.5491  0.5718 -1.1773
   25CHL1   C20 1826   1.189   4.870   9.455 -0.7427 -0.2109 -0.0403
   25CHL1   H20 1827   1.079   4.879   9.441 -0.7174 -1.7514 -1.5269
   25CHL1   C21 1828   1.242   4.720   9.450 -0.8799  0.1047  0.2270
   25CHL1  H21A 1829   1.168   4.670   9.515 -2.0474  1.3776 -0.0593
   25CHL1  H21B 1830   1.342   4.721   9.498 -0.8479  4.7894  0.5204
   25CHL1  H21C 1831   1.235   4.676   9.348  1.4275 -0.4590  0.2561
   25CHL1   C22 1832   1.258   4.953   9.336  0.6222  0.2406 -0.8013
   25CHL1  H22A 1833   1.223   5.059   9.328  0.1340  0.2447  0.9751
   25CHL1  H22B 1834   1.366   4.954   9.359  0.4923  1.6703 -0.1029
   25CHL1   C23 1835   1.238   4.898   9.195  0.1543  0.5843 -0.0474
   25CHL1  H23A 1836   1.256   4.788   9.201  0.5414  0.7356  2.9617
   25CHL1  H23B 1837   1.129   4.897   9.175 -0.1712 -3.5101  0.9907
   25CHL1   C24 1838   1.324   4.968   9.093  0.4939 -0.1265  0.1083
   25CHL1  H24A 1839   1.312   5.076   9.116 -1.6852 -0.6885  1.8850
   25CHL1  H24B 1840   1.426   4.929   9.114  0.1862 -2.7123 -2.5445
   25CHL1   C25 1841   1.287   4.940   8.947  0.0352  0.0078  0.0845
   25CHL1   H25 1842   1.182   4.964   8.921  0.2691  0.0136 -0.8880
   25CHL1   C26 1843   1.364   5.033   8.856 -0.3173  0.7184 -0.2965
   25CHL1  H26A 1844   1.351   4.998   8.751  1.0166  1.2919 -0.6822
   25CHL1  H26B 1845   1.330   5.139   8.861 -1.0052  0.5870 -1.6390
   25CHL1  H26C 1846   1.470   5.034   8.891 -0.4095 -0.8022  0.0761
   25CHL1   C27 1847   1.324   4.797   8.914 -0.0801 -0.1030 -0.5941
   25CHL1  H27A 1848   1.272   4.727   8.983  0.7787  0.9802  1.2509
   25CHL1  H27B 1849   1.289   4.772   8.812  0.5368  2.0267 -1.3827
   25CHL1  H27C 1850   1.432   4.782   8.935 -0.3749 -0.6592  0.6596
   26CHL1    C3 1851   3.463   0.822  10.300 -0.2800  0.7049 -0.7079
   26CHL1    H3 1852   3.564   0.844  10.260 -0.7121  0.4915 -1.9779
   26CHL1    O3 1853   3.443   0.855  10.440 -0.0567  0.0583 -0.0393
   26CHL1   H3' 1854   3.352   0.839  10.467 -0.2013 -1.1069 -1.1504
   26CHL1    C4 1855   3.363   0.910  10.219  0.2694 -0.0270 -0.2650
   26CHL1   H4A 1856   3.260   0.904  10.261 -1.3383  0.3796 -3.7895
   26CHL1   H4B 1857   3.394   1.016  10.235 -0.5239  0.2873 -0.7214
   26CHL1    C5 1858   3.363   0.870  10.076 -0.2231 -0.6487 -0.2764
   26CHL1    C6 1859   3.379   0.966   9.981 -0.2495 -0.7075  0.3908
   26CHL1    H6 1860   3.398   1.069  10.014 -0.2998 -0.6474  0.2332
   26CHL1    C7 1861   3.366   0.941   9.830  1.5267 -0.1418 -0.8822
   26CHL1   H7A 1862   3.303   1.020   9.784 -0.2662 -0.0720  1.4508
   26CHL1   H7B 1863   3.457   0.932   9.768  0.5925 -3.1133 -2.0253
   26CHL1    C8 1864   3.290   0.806   9.806  0.1725 -0.4143  0.1640
   26CHL1    H8 1865   3.183   0.829   9.826 -0.4560 -0.2613 -2.9757
   26CHL1   C14 1866   3.303   0.760   9.661 -0.3015  0.7388  0.8008
   26CHL1   H14 1867   3.412   0.740   9.653  0.0842  2.9189 -0.2409
   26CHL1   C15 1868   3.285   0.864   9.548  0.3646 -0.4086  0.2266
   26CHL1  H15A 1869   3.211   0.943   9.574 -0.4537 -0.5698 -1.5020
   26CHL1  H15B 1870   3.381   0.916   9.527 -0.0574  0.3289  0.1122
   26CHL1   C16 1871   3.252   0.776   9.423  0.3298  0.5920  0.2814
   26CHL1  H16A 1872   3.153   0.811   9.386  0.6009  0.5021 -0.5509
   26CHL1  H16B 1873   3.324   0.795   9.341  0.2750 -0.4281 -0.0085
   26CHL1   C17 1874   3.260   0.624   9.473 -0.7913  0.0735 -0.1255
   26CHL1   H17 1875   3.368   0.600   9.468 -0.2153  2.1521  1.1289
   26CHL1   C13 1876   3.221   0.633   9.619 -0.3742  0.4560 -0.0295
   26CHL1   C18 1877   3.068   0.668   9.637 -0.0505 -0.3705  0.4780
   26CHL1  H18A 1878   3.052   0.704   9.741  1.1326  2.0844 -0.1250
   26CHL1  H18B 1879   3.038   0.746   9.563  1.9225 -0.3013 -0.2950
   26CHL1  H18C 1880   3.009   0.578   9.611 -1.7808  0.6303  0.7524
   26CHL1   C12 1881   3.272   0.519   9.708  0.0202 -0.1640 -0.5082
   26CHL1  H12A 1882   3.225   0.421   9.681  0.7096 -0.9444  1.0187
   26CHL1  H12B 1883   3.377   0.495   9.681 -0.0341 -0.5578 -0.3735
   26CHL1   C11 1884   3.252   0.554   9.863 -0.5259 -0.4164  0.2428
   26CHL1  H11A 1885   3.142   0.566   9.875 -0.5571  1.8479 -1.7021
   26CHL1  H11B 1886   3.292   0.472   9.926 -2.3715 -1.3046  0.3439
   26CHL1    C9 1887   3.328   0.688   9.903 -0.0772 -1.2711  0.6055
   26CHL1    H9 1888   3.436   0.686   9.879 -0.4686  0.6877 -1.6903
   26CHL1   C10 1889   3.314   0.729  10.054 -0.0058  0.0441  0.8695
   26CHL1   C19 1890   3.167   0.715  10.097  0.2626 -0.6621 -0.2628
   26CHL1  H19A 1891   3.102   0.793  10.050 -0.1197  0.2511  1.6958
   26CHL1  H19B 1892   3.125   0.614  10.080  1.3031 -0.8463 -2.0445
   26CHL1  H19C 1893   3.160   0.734  10.206  2.9852 -0.7050 -0.0010
   26CHL1    C1 1894   3.401   0.636  10.145  0.2085  0.1398  0.1724
   26CHL1   H1A 1895   3.365   0.531  10.149  0.3356  0.1092  0.6697
   26CHL1   H1B 1896   3.497   0.625  10.091 -0.7194 -0.2901 -1.4613
   26CHL1    C2 1897   3.428   0.675  10.293 -0.9082  0.3883 -0.2989
   26CHL1   H2A 1898   3.510   0.619  10.343 -1.0861 -1.2829 -1.7753
   26CHL1   H2B 1899   3.331   0.655  10.342 -1.2496  0.4886 -0.9163
   26CHL1   C20 1900   3.191   0.517   9.393  0.3850  0.3850 -0.0525
   26CHL1   H20 1901   3.137   0.445   9.458 -1.3335  0.6412 -1.1246
   26CHL1   C21 1902   3.294   0.439   9.313 -0.3463  0.1080  0.2168
   26CHL1  H21A 1903   3.353   0.499   9.241 -0.7974  0.2032 -0.0789
   26CHL1  H21B 1904   3.248   0.360   9.249 -0.4867 -0.4556  0.9948
   26CHL1  H21C 1905   3.366   0.388   9.381 -1.3897 -3.1198 -0.9014
   26CHL1   C22 1906   3.082   0.582   9.302 -0.5669 -0.1429 -0.0892
   26CHL1  H22A 1907   3.009   0.633   9.368 -2.1508 -1.3044 -0.8755
   26CHL1  H22B 1908   3.122   0.655   9.229  1.1252 -0.2612  0.6705
   26CHL1   C23 1909   3.006   0.471   9.229  0.9225 -0.4411 -0.2595
   26CHL1  H23A 1910   3.072   0.433   9.148 -0.5721  0.5444 -2.0296
   26CHL1  H23B 1911   2.983   0.390   9.300  0.1351  0.7800  0.9231
   26CHL1   C24 1912   2.874   0.517   9.172  0.1095 -0.1014  0.0712
   26CHL1  H24A 1913   2.821   0.450   9.102 -0.1792  1.3774 -1.1608
   26CHL1  H24B 1914   2.808   0.533   9.260 -0.1367 -0.0916 -0.1175
   26CHL1   C25 1915   2.873   0.655   9.094  0.0790  0.4364 -0.4250
   26CHL1   H25 1916   2.920   0.732   9.158 -0.8462 -1.6357  2.9705
   26CHL1   C26 1917   2.953   0.642   8.963 -0.5475  0.0790 -0.3095
   26CHL1  H26A 1918   2.915   0.551   8.911  1.9597 -2.1929  1.5133
   26CHL1  H26B 1919   2.943   0.727   8.893 -1.1569 -2.1118 -3.0885
   26CHL1  H26C 1920   3.061   0.617   8.975 -0.3295  1.6866  1.8538
   26CHL1   C27 1921   2.731   0.707   9.050  0.0639 -0.4075 -0.4271
   26CHL1  H27A 1922   2.690   0.629   8.983  0.2092 -0.9630  0.1155
   26CHL1  H27B 1923   2.659   0.725   9.132  1.1368 -0.0169  0.4680
   26CHL1  H27C 1924   2.736   0.806   9.000 -2.0239 -0.1471 -0.1987
   27CHL1    C3 1925   1.801   4.541  10.357  0.4255  0.4054  0.6256
   27CHL1    H3 1926   1.883   4.615  10.340  0.6270 -0.3731 -2.3233
   27CHL1    O3 1927   1.768   4.506  10.492  0.2580 -0.7734  0.5739
   27CHL1   H3' 1928   1.696   4.567  10.507 -0.3090 -0.6062 -2.2726
   27CHL1    C4 1929   1.667   4.600  10.295 -0.0960 -0.0622  0.0533
   27CHL1   H4A 1930   1.582   4.534  10.322  0.7859 -1.4171 -0.3986
   27CHL1   H4B 1931   1.647   4.696  10.348 -0.1154  0.4711 -0.9091
   27CHL1    C5 1932   1.678   4.629  10.149 -0.3841 -0.2164 -0.5749
   27CHL1    C6 1933   1.653   4.749  10.100  0.6539  0.6073  1.2382
   27CHL1    H6 1934   1.626   4.834  10.164 -1.6114  0.2455  0.8481
   27CHL1    C7 1935   1.665   4.769   9.952  1.1194  0.1914  0.3210
   27CHL1   H7A 1936   1.568   4.814   9.924  0.7654 -0.4432  0.4948
   27CHL1   H7B 1937   1.751   4.835   9.928 -0.7877  2.6284 -0.2329
   27CHL1    C8 1938   1.662   4.644   9.856 -0.0748 -0.2380  0.0731
   27CHL1    H8 1939   1.555   4.615   9.848  0.0612 -1.3067  1.6205
   27CHL1   C14 1940   1.711   4.684   9.712 -0.2813  0.0252 -0.5172
   27CHL1   H14 1941   1.814   4.723   9.726  0.2589 -0.4890 -2.6635
   27CHL1   C15 1942   1.642   4.801   9.641 -0.5311  0.1015 -0.5311
   27CHL1  H15A 1943   1.532   4.800   9.657 -0.2157  0.4380  2.0371
   27CHL1  H15B 1944   1.681   4.891   9.692 -1.1483 -1.1838  2.4439
   27CHL1   C16 1945   1.691   4.784   9.490  0.5627 -0.5732  0.1362
   27CHL1  H16A 1946   1.596   4.787   9.431 -0.5741  1.6122  1.9141
   27CHL1  H16B 1947   1.764   4.863   9.464  0.5482 -0.9307 -1.0479
   27CHL1   C17 1948   1.763   4.644   9.491  0.3223  0.0373  0.3235
   27CHL1   H17 1949   1.867   4.666   9.523  0.1657 -0.6397  1.3301
   27CHL1   C13 1950   1.713   4.568   9.614  0.1892 -0.2377 -0.5090
   27CHL1   C18 1951   1.572   4.507   9.577 -1.0293 -0.1837 -0.3921
   27CHL1  H18A 1952   1.508   4.585   9.531 -0.5580 -0.1367 -0.9851
   27CHL1  H18B 1953   1.589   4.427   9.502  0.8425 -0.0684 -0.1392
   27CHL1  H18C 1954   1.516   4.475   9.667 -1.6540 -1.9465 -1.3703
   27CHL1   C12 1955   1.811   4.455   9.671  0.8788 -0.0734 -0.1489
   27CHL1  H12A 1956   1.800   4.374   9.596 -2.4339  0.3060 -0.2171
   27CHL1  H12B 1957   1.917   4.490   9.669  0.9355 -0.2601 -0.3390
   27CHL1   C11 1958   1.761   4.402   9.807 -0.2022  0.7036  0.1488
   27CHL1  H11A 1959   1.662   4.353   9.793  0.2511  0.3884 -2.4382
   27CHL1  H11B 1960   1.830   4.327   9.851 -1.3708  0.2159  1.1847
   27CHL1    C9 1961   1.745   4.526   9.911 -0.2442  0.2918  0.5227
   27CHL1    H9 1962   1.846   4.571   9.898 -0.2493 -0.4544 -3.1440
   27CHL1   C10 1963   1.715   4.506  10.060  0.0251 -1.0826  0.3269
   27CHL1   C19 1964   1.601   4.399  10.074 -0.2431  0.0020 -0.4577
   27CHL1  H19A 1965   1.539   4.410  10.165  0.0234 -0.2177 -0.2475
   27CHL1  H19B 1966   1.528   4.394   9.990 -2.3197  0.1804  1.2668
   27CHL1  H19C 1967   1.651   4.300  10.070  0.2627  0.1851  0.7965
   27CHL1    C1 1968   1.850   4.463  10.129 -0.3458  0.0278  0.3109
   27CHL1   H1A 1969   1.877   4.370  10.076  0.5885 -0.1323  1.0468
   27CHL1   H1B 1970   1.934   4.536  10.122 -0.7833  0.5825  0.7316
   27CHL1    C2 1971   1.844   4.422  10.281  0.1308  0.2674  0.5506
   27CHL1   H2A 1972   1.940   4.377  10.314  1.4364  1.6274 -1.1563
   27CHL1   H2B 1973   1.769   4.340  10.286 -1.8552  1.9264 -0.2504
   27CHL1   C20 1974   1.777   4.568   9.357  0.0892 -0.7783 -0.5583
   27CHL1   H20 1975   1.795   4.459   9.370 -0.5837 -0.9016 -0.6067
   27CHL1   C21 1976   1.908   4.619   9.294  0.4360  0.3119  0.0655
   27CHL1  H21A 1977   1.910   4.730   9.295  1.0438  0.2997  1.1364
   27CHL1  H21B 1978   1.920   4.565   9.198 -2.2532 -1.1565  0.4556
   27CHL1  H21C 1979   1.998   4.587   9.351  0.0728  1.1951  1.1761
   27CHL1   C22 1980   1.657   4.580   9.258  0.4146 -0.7987  0.2179
   27CHL1  H22A 1981   1.561   4.577   9.314 -1.0804  0.4396 -2.1312
   27CHL1  H22B 1982   1.655   4.681   9.213 -0.8567  0.0016  1.9453
   27CHL1   C23 1983   1.656   4.478   9.144  0.8773  0.7022  0.1609
   27CHL1  H23A 1984   1.746   4.497   9.081  0.7135  1.4429  0.1493
   27CHL1  H23B 1985   1.653   4.375   9.185 -1.6937  0.7275  0.1966
   27CHL1   C24 1986   1.536   4.495   9.051  0.3495  0.2818  0.7638
   27CHL1  H24A 1987   1.435   4.493   9.097 -0.3270  3.1847 -0.3930
   27CHL1  H24B 1988   1.550   4.593   9.001 -0.0369  0.9955  2.0218
   27CHL1   C25 1989   1.536   4.384   8.936  0.3606  0.7129  0.2118
   27CHL1   H25 1990   1.638   4.368   8.896 -0.2209 -0.4646 -0.8873
   27CHL1   C26 1991   1.492   4.247   8.991 -0.1727 -0.2447  0.3762
   27CHL1  H26A 1992   1.511   4.171   8.913  1.1947  0.5126 -0.0575
   27CHL1  H26B 1993   1.552   4.210   9.077 -1.3345 -4.3371 -0.3697
   27CHL1  H26C 1994   1.382   4.248   9.005 -0.8268  3.3357 -3.2890
   27CHL1   C27 1995   1.454   4.436   8.818  0.6208 -0.7132 -0.4491
   27CHL1  H27A 1996   1.345   4.423   8.835  0.0854  3.0499 -0.1684
   27CHL1  H27B 1997   1.475   4.543   8.803 -4.0143  0.4510 -0.2178
   27CHL1  H27C 1998   1.483   4.380   8.727 -0.1486 -1.0638 -0.4889
   28CHL1    C3 1999   1.633   1.405  10.197 -0.1458 -0.7490  0.6740
   28CHL1    H3 2000   1.614   1.302  10.160  1.5998 -0.1743 -2.1283
   28CHL1    O3 2001   1.623   1.429  10.335 -0.6191  0.0088 -0.0688
   28CHL1   H3' 2002   1.635   1.524  10.340  1.3149 -0.2601  1.5185
   28CHL1    C4 2003   1.776   1.451  10.151 -0.4494  0.5546 -0.0559
   28CHL1   H4A 2004   1.812   1.543  10.200  2.1362 -0.6425  0.4424
   28CHL1   H4B 2005   1.836   1.364  10.184 -0.2913  0.7795  0.2479
   28CHL1    C5 2006   1.788   1.453   9.997  1.1279  0.9179 -0.0329
   28CHL1    C6 2007   1.878   1.378   9.930 -0.1954  0.2380  0.9301
   28CHL1    H6 2008   1.959   1.329   9.985  1.8704  4.0179  1.5931
   28CHL1    C7 2009   1.891   1.368   9.780  0.1185 -0.4869 -0.0886
   28CHL1   H7A 2010   1.999   1.355   9.758  0.0624 -0.9976 -0.0767
   28CHL1   H7B 2011   1.834   1.276   9.753  0.8190 -1.0959  0.4718
   28CHL1    C8 2012   1.823   1.487   9.711 -0.0433  0.6080 -0.3448
   28CHL1    H8 2013   1.893   1.572   9.720  1.1042 -0.5590  4.1252
   28CHL1   C14 2014   1.802   1.469   9.561 -0.0005  0.3412  0.6520
   28CHL1   H14 2015   1.728   1.387   9.548 -1.2399  1.6696 -1.1193
   28CHL1   C15 2016   1.919   1.416   9.476  0.2710  0.7663 -0.6394
   28CHL1  H15A 2017   2.011   1.471   9.505  0.1574 -0.7205  2.9066
   28CHL1  H15B 2018   1.948   1.313   9.505 -0.6490  0.9082  0.9065
   28CHL1   C16 2019   1.876   1.439   9.334 -0.7414  0.5281  0.3386
   28CHL1  H16A 2020   1.957   1.489   9.277 -0.2782  0.6892  1.1210
   28CHL1  H16B 2021   1.855   1.342   9.285  0.0724 -0.4149  1.7877
   28CHL1   C17 2022   1.742   1.519   9.340  0.1128 -0.1986 -0.2571
   28CHL1   H17 2023   1.657   1.447   9.336 -0.6629  0.5645  1.4092
   28CHL1   C13 2024   1.737   1.585   9.482 -0.4429  0.6476 -0.7922
   28CHL1   C18 2025   1.835   1.705   9.487 -0.4699  0.1861  0.0990
   28CHL1  H18A 2026   1.842   1.731   9.595 -0.3174 -1.0943  0.4115
   28CHL1  H18B 2027   1.937   1.682   9.448 -0.7732  2.8735 -2.6477
   28CHL1  H18C 2028   1.795   1.796   9.437 -1.6680 -0.0435  0.6123
   28CHL1   C12 2029   1.599   1.603   9.541 -0.2017  0.3543 -0.0185
   28CHL1  H12A 2030   1.560   1.700   9.504  1.7051  1.0646 -0.2589
   28CHL1  H12B 2031   1.538   1.516   9.508  0.9482 -1.0906  1.5261
   28CHL1   C11 2032   1.612   1.618   9.692  0.1521 -0.4803 -0.3885
   28CHL1  H11A 2033   1.660   1.715   9.714 -1.3816  0.7721 -2.2327
   28CHL1  H11B 2034   1.512   1.624   9.738  0.2253  0.0538 -0.2961
   28CHL1    C9 2035   1.684   1.515   9.774  0.0870 -0.4851  0.5328
   28CHL1    H9 2036   1.629   1.426   9.738 -5.6382  3.1023 -0.8335
   28CHL1   C10 2037   1.681   1.531   9.927  0.1732 -0.3338  0.8042
   28CHL1   C19 2038   1.709   1.677   9.969 -0.0902 -0.4422 -0.3417
   28CHL1  H19A 2039   1.696   1.696  10.078  0.7989  2.9574 -0.6994
   28CHL1  H19B 2040   1.814   1.708   9.947 -0.3088  0.2753 -0.3969
   28CHL1  H19C 2041   1.638   1.749   9.923 -1.0565 -0.1297  1.5235
   28CHL1    C1 2042   1.540   1.492   9.977 -0.1975 -0.6655 -0.4109
   28CHL1   H1A 2043   1.466   1.566   9.941  1.3648  0.2361 -1.9727
   28CHL1   H1B 2044   1.516   1.395   9.928 -1.5280 -0.6118  0.0934
   28CHL1    C2 2045   1.524   1.492  10.133  0.3294 -0.0737 -0.2764
   28CHL1   H2A 2046   1.423   1.462  10.169 -0.0621  0.6030 -0.7939
   28CHL1   H2B 2047   1.529   1.600  10.160  1.3000 -0.3266  0.6458
   28CHL1   C20 2048   1.723   1.608   9.215  0.4487  0.1630  0.1552
   28CHL1   H20 2049   1.806   1.682   9.211  0.0357  0.5921 -1.6801
   28CHL1   C21 2050   1.584   1.681   9.208 -0.5853  0.5662  0.2138
   28CHL1  H21A 2051   1.579   1.749   9.295  1.4423 -0.6731  1.3705
   28CHL1  H21B 2052   1.504   1.605   9.222 -0.5858  0.4891 -0.1818
   28CHL1  H21C 2053   1.558   1.732   9.112 -0.4707  0.4528  0.1220
   28CHL1   C22 2054   1.733   1.527   9.085 -0.4276  0.1479 -1.4188
   28CHL1  H22A 2055   1.830   1.473   9.080 -1.8866 -3.0855  1.4943
   28CHL1  H22B 2056   1.661   1.443   9.094 -1.5821  1.2530  0.4549
   28CHL1   C23 2057   1.700   1.592   8.950 -0.0554 -0.3915 -0.6924
   28CHL1  H23A 2058   1.592   1.602   8.927 -0.2949 -0.9284  0.1725
   28CHL1  H23B 2059   1.749   1.691   8.962  1.3451 -1.3679  2.8132
   28CHL1   C24 2060   1.761   1.497   8.841  0.2532 -0.3127  0.4056
   28CHL1  H24A 2061   1.872   1.493   8.855  0.5553 -0.8160 -1.7695
   28CHL1  H24B 2062   1.712   1.398   8.852  0.3333 -0.6294 -1.6963
   28CHL1   C25 2063   1.738   1.546   8.699 -0.2490 -0.6584  0.2163
   28CHL1   H25 2064   1.631   1.534   8.668 -0.3190  1.2801 -0.4744
   28CHL1   C26 2065   1.765   1.694   8.677  0.1273  0.7588  0.1767
   28CHL1  H26A 2066   1.672   1.747   8.707 -0.2761  2.3560 -3.4305
   28CHL1  H26B 2067   1.852   1.723   8.739 -1.5280  1.8639  2.1414
   28CHL1  H26C 2068   1.782   1.709   8.569 -1.7603  1.6151 -0.0346
   28CHL1   C27 2069   1.825   1.470   8.605 -0.1942  0.4435  0.1707
   28CHL1  H27A 2070   1.808   1.362   8.624  2.0668  0.5549  3.6943
   28CHL1  H27B 2071   1.814   1.490   8.496  0.0957 -0.4555 -0.0344
   28CHL1  H27C 2072   1.933   1.490   8.626  0.1900 -1.7338  0.5035
   29CHL1    C3 2073   3.985   0.206   6.776 -0.2379 -0.1435  0.5883
   29CHL1    H3 2074   4.091   0.175   6.781  0.0312  0.2967 -1.4710
   29CHL1    O3 2075   3.946   0.251   6.651 -0.2577  0.1825  0.4729
   29CHL1   H3' 2076   3.851   0.263   6.659 -0.5016 -1.5620  0.5204
   29CHL1    C4 2077   3.891   0.094   6.830 -0.2300  1.0735  0.7346
   29CHL1   H4A 2078   3.791   0.114   6.788 -0.3492 -0.8527 -0.0181
   29CHL1   H4B 2079   3.918  -0.003   6.783 -0.7855 -0.3122  3.1221
   29CHL1    C5 2080   3.888   0.072   6.980 -0.0284  0.4095  0.3174
   29CHL1    C6 2081   3.904  -0.056   7.034  0.5964 -0.4870 -0.2555
   29CHL1    H6 2082   3.927  -0.144   6.972  1.5434 -1.0017  0.7862
   29CHL1    C7 2083   3.900  -0.090   7.185 -0.2315 -0.1493 -0.8557
   29CHL1   H7A 2084   3.831  -0.178   7.194 -1.1852  0.5323 -1.3029
   29CHL1   H7B 2085   4.002  -0.127   7.207  1.1866  1.5065 -3.9647
   29CHL1    C8 2086   3.852   0.028   7.269  0.3058 -0.6181  0.1537
   29CHL1    H8 2087   3.741   0.022   7.268  0.3460 -1.3232 -0.2007
   29CHL1   C14 2088   3.892   0.010   7.419 -0.2779  0.6519  0.4984
   29CHL1   H14 2089   4.002   0.007   7.426 -0.2205 -1.2114 -0.5186
   29CHL1   C15 2090   3.863  -0.123   7.487 -0.2485 -0.0355  0.1088
   29CHL1  H15A 2091   3.757  -0.146   7.465 -0.0610  0.1766 -1.0413
   29CHL1  H15B 2092   3.924  -0.212   7.457 -0.5937 -0.2977  0.1827
   29CHL1   C16 2093   3.886  -0.089   7.634 -0.3194  0.2608  0.5343
   29CHL1  H16A 2094   3.793  -0.110   7.690  0.2306  1.5187  2.0031
   29CHL1  H16B 2095   3.970  -0.147   7.679  0.8544 -0.2137 -2.0611
   29CHL1   C17 2096   3.911   0.068   7.641  0.2873  0.1825  0.3955
   29CHL1   H17 2097   4.021   0.081   7.639  0.2168  1.3742  2.0426
   29CHL1   C13 2098   3.846   0.115   7.514  0.2013 -0.5119 -0.5067
   29CHL1   C18 2099   3.696   0.126   7.525 -0.6197 -0.1387 -0.3985
   29CHL1  H18A 2100   3.648   0.028   7.547  0.1441 -0.5586 -0.5738
   29CHL1  H18B 2101   3.664   0.199   7.603  1.0628  0.9665 -0.6851
   29CHL1  H18C 2102   3.636   0.151   7.435 -0.6159  0.7998 -0.1546
   29CHL1   C12 2103   3.897   0.252   7.464  0.3785 -0.1735  0.1941
   29CHL1  H12A 2104   3.855   0.335   7.525 -0.7993  0.3063 -1.2103
   29CHL1  H12B 2105   4.007   0.257   7.480  0.6925 -1.7948 -1.2311
   29CHL1   C11 2106   3.861   0.285   7.316  0.0028 -0.8041 -0.4786
   29CHL1  H11A 2107   3.750   0.295   7.320  0.2494  2.4770  0.6421
   29CHL1  H11B 2108   3.907   0.383   7.292 -0.2348 -0.1431  1.5996
   29CHL1    C9 2109   3.899   0.166   7.220 -0.2212 -0.3313 -0.8379
   29CHL1    H9 2110   4.009   0.160   7.237 -0.4974 -0.8850  0.9518
   29CHL1   C10 2111   3.871   0.196   7.069 -0.7138 -0.2640  0.7061
   29CHL1   C19 2112   3.726   0.250   7.036 -1.1689  0.5508 -0.2756
   29CHL1  H19A 2113   3.717   0.336   7.106  0.7595  0.9066 -0.3958
   29CHL1  H19B 2114   3.712   0.277   6.930 -2.8229 -0.3039 -0.3039
   29CHL1  H19C 2115   3.646   0.179   7.065 -0.6276 -0.3445 -0.9459
   29CHL1    C1 2116   3.972   0.306   7.008  0.2099  0.3299 -0.1160
   29CHL1   H1A 2117   3.958   0.400   7.066 -1.0690 -0.1318  0.3635
   29CHL1   H1B 2118   4.077   0.273   7.023  0.2588  0.8313  0.7130
   29CHL1    C2 2119   3.968   0.332   6.860  0.5592  0.4662 -0.1089
   29CHL1   H2A 2120   4.056   0.396   6.837  0.4535  0.9644  0.8055
   29CHL1   H2B 2121   3.872   0.387   6.845 -0.8372 -2.0904 -1.0758
   29CHL1   C20 2122   3.864   0.119   7.782 -0.5773  0.3191  0.4851
   29CHL1   H20 2123   3.754   0.109   7.784 -0.5831 -0.7567 -2.0400
   29CHL1   C21 2124   3.914   0.260   7.799 -0.0276 -0.2763  0.1138
   29CHL1  H21A 2125   3.885   0.329   7.717  1.0951 -0.3849 -0.3901
   29CHL1  H21B 2126   4.023   0.243   7.804 -0.0720 -1.4536 -1.6818
   29CHL1  H21C 2127   3.890   0.313   7.893  1.0425 -1.0555  0.8348
   29CHL1   C22 2128   3.906   0.024   7.901 -0.3060  0.2712 -1.1841
   29CHL1  H22A 2129   3.848  -0.070   7.892 -0.2583  0.1695 -0.4453
   29CHL1  H22B 2130   4.014  -0.001   7.895 -0.7733 -3.0645  1.5975
   29CHL1   C23 2131   3.875   0.072   8.045  0.8093 -0.0864  0.5702
   29CHL1  H23A 2132   3.930   0.164   8.075  0.0895  0.0389  1.5336
   29CHL1  H23B 2133   3.767   0.093   8.054  0.2241 -2.9053  0.8703
   29CHL1   C24 2134   3.904  -0.036   8.151  0.0341 -0.0231  0.3377
   29CHL1  H24A 2135   3.856  -0.132   8.122 -1.4610  0.1795  1.9657
   29CHL1  H24B 2136   4.013  -0.053   8.155  0.2386  1.3822  1.3863
   29CHL1   C25 2137   3.850   0.011   8.290  0.0507 -0.2781 -0.4618
   29CHL1   H25 2138   3.741   0.030   8.278  0.2848  1.4815 -0.0270
   29CHL1   C26 2139   3.845  -0.109   8.394  0.2260  0.4813  0.4337
   29CHL1  H26A 2140   3.796  -0.199   8.352  3.7200 -2.7368  2.7157
   29CHL1  H26B 2141   3.938  -0.141   8.444 -0.0884 -1.3077 -0.0780
   29CHL1  H26C 2142   3.782  -0.068   8.476  1.2082 -0.3578  1.6362
   29CHL1   C27 2143   3.916   0.136   8.349  0.5053  0.0154  1.0483
   29CHL1  H27A 2144   3.866   0.154   8.447  0.9470 -0.0943  1.2979
   29CHL1  H27B 2145   4.022   0.122   8.378  0.6851 -0.8152  0.0379
   29CHL1  H27C 2146   3.903   0.221   8.279  2.9333 -0.7290 -0.4254
   30CHL1    C3 2147   1.238   5.002   7.283  0.0974  0.3780 -0.1967
   30CHL1    H3 2148   1.284   4.926   7.349  2.6108  2.2999  0.4603
   30CHL1    O3 2149   1.210   4.938   7.164 -0.7541  0.1869 -0.4453
   30CHL1   H3' 2150   1.193   5.015   7.109 -0.2973 -0.5133 -1.6077
   30CHL1    C4 2151   1.110   5.055   7.341  0.5042 -0.5187  0.6386
   30CHL1   H4A 2152   1.086   5.143   7.278  1.1698 -2.2825 -2.2305
   30CHL1   H4B 2153   1.020   4.991   7.338 -1.7149  2.1670  3.0129
   30CHL1    C5 2154   1.145   5.104   7.477 -0.6048 -0.7646 -0.3084
   30CHL1    C6 2155   1.095   5.054   7.592  0.5800 -0.0302 -0.4754
   30CHL1    H6 2156   1.029   4.966   7.591  0.3380  0.0881  1.2577
   30CHL1    C7 2157   1.123   5.116   7.728  0.6160 -0.4993  0.3561
   30CHL1   H7A 2158   1.030   5.137   7.785 -0.1204  2.9452 -1.7772
   30CHL1   H7B 2159   1.200   5.049   7.773 -1.3899 -3.3324 -0.1485
   30CHL1    C8 2160   1.182   5.262   7.716  0.4336  0.1532  0.1297
   30CHL1    H8 2161   1.102   5.330   7.679 -1.7689 -1.2334  2.0748
   30CHL1   C14 2162   1.224   5.303   7.861  0.2629 -0.1875 -0.0136
   30CHL1   H14 2163   1.310   5.234   7.873  0.8557 -0.2254 -3.3671
   30CHL1   C15 2164   1.123   5.279   7.974  0.4427  0.5931  0.5216
   30CHL1  H15A 2165   1.018   5.306   7.951  0.1649  0.2656  1.3576
   30CHL1  H15B 2166   1.125   5.174   8.008 -2.3397  0.2168 -0.2353
   30CHL1   C16 2167   1.181   5.364   8.086  0.5659 -0.4246  0.2848
   30CHL1  H16A 2168   1.105   5.439   8.117  0.3680 -1.4246  2.4123
   30CHL1  H16B 2169   1.207   5.299   8.172  1.8863 -3.2467 -2.0636
   30CHL1   C17 2170   1.302   5.452   8.021 -0.3025  0.1310  0.2771
   30CHL1   H17 2171   1.388   5.384   8.039 -0.6873 -0.5798 -0.4763
   30CHL1   C13 2172   1.278   5.447   7.868 -0.1753  0.8236 -0.5619
   30CHL1   C18 2173   1.166   5.544   7.829  0.9860  0.5345 -0.7390
   30CHL1  H18A 2174   1.143   5.547   7.720 -0.6588 -0.1511 -0.4429
   30CHL1  H18B 2175   1.073   5.503   7.875  0.7985  0.5438 -1.1059
   30CHL1  H18C 2176   1.173   5.650   7.861 -2.3553  1.0378 -1.2606
   30CHL1   C12 2177   1.402   5.450   7.781  0.2854  1.4566  0.9766
   30CHL1  H12A 2178   1.445   5.552   7.780  0.7109  1.3827 -2.6286
   30CHL1  H12B 2179   1.479   5.374   7.807 -1.5316 -1.0870 -0.5882
   30CHL1   C11 2180   1.376   5.398   7.633  0.1358  0.0372 -0.3138
   30CHL1  H11A 2181   1.330   5.484   7.580  0.9662  2.1305  2.1303
   30CHL1  H11B 2182   1.471   5.387   7.576  0.4824 -1.3291  0.4854
   30CHL1    C9 2183   1.296   5.265   7.623  0.0705 -0.7080 -0.1395
   30CHL1    H9 2184   1.374   5.193   7.656 -1.0596 -3.4792 -2.9435
   30CHL1   C10 2185   1.247   5.219   7.477  0.3742 -0.3121 -1.5430
   30CHL1   C19 2186   1.180   5.351   7.419 -0.8030  0.0419  0.6344
   30CHL1  H19A 2187   1.260   5.426   7.402  0.6948 -1.1492  2.1627
   30CHL1  H19B 2188   1.149   5.333   7.314 -0.5974  0.2374  0.5397
   30CHL1  H19C 2189   1.096   5.392   7.480 -2.6528 -2.0707 -0.3318
   30CHL1    C1 2190   1.380   5.176   7.396  0.3864  0.0343  0.3625
   30CHL1   H1A 2191   1.446   5.265   7.384 -0.1193  0.1722 -1.7444
   30CHL1   H1B 2192   1.431   5.098   7.458 -0.1416 -1.0952 -0.5928
   30CHL1    C2 2193   1.351   5.104   7.257 -0.2048 -0.0320 -0.2631
   30CHL1   H2A 2194   1.443   5.068   7.208 -0.5264 -1.3725  0.0758
   30CHL1   H2B 2195   1.305   5.188   7.201  0.3408  0.7158  0.3764
   30CHL1   C20 2196   1.335   5.583   8.093  0.5062  0.1241  0.5157
   30CHL1   H20 2197   1.254   5.657   8.074 -1.3034 -1.6380  1.0450
   30CHL1   C21 2198   1.472   5.643   8.057  0.2012  0.4791 -0.1656
   30CHL1  H21A 2199   1.559   5.578   8.080  2.1297  2.6192 -1.0005
   30CHL1  H21B 2200   1.477   5.738   8.114 -0.6856 -0.2904  1.2381
   30CHL1  H21C 2201   1.466   5.664   7.948  0.2694 -1.0534 -0.4823
   30CHL1   C22 2202   1.337   5.562   8.251  0.0747  0.1441  0.2130
   30CHL1  H22A 2203   1.239   5.525   8.289 -0.0137  0.7858  0.6292
   30CHL1  H22B 2204   1.407   5.484   8.287 -1.4709 -1.0184  0.7701
   30CHL1   C23 2205   1.353   5.697   8.330  0.1807 -0.7739 -0.5812
   30CHL1  H23A 2206   1.453   5.747   8.327 -0.6940  1.4711  2.5278
   30CHL1  H23B 2207   1.272   5.767   8.300 -0.7096 -0.8680  1.5003
   30CHL1   C24 2208   1.336   5.661   8.474 -0.2835 -0.5910 -0.3882
   30CHL1  H24A 2209   1.244   5.600   8.481 -1.6924  1.2334 -1.7410
   30CHL1  H24B 2210   1.417   5.595   8.510 -0.0493 -0.9058 -1.4357
   30CHL1   C25 2211   1.338   5.773   8.583  0.4245  0.2570  0.0418
   30CHL1   H25 2212   1.411   5.853   8.556 -0.2548  1.4805  1.6986
   30CHL1   C26 2213   1.198   5.841   8.589 -0.3004 -0.3239  0.0025
   30CHL1  H26A 2214   1.142   5.751   8.624  0.5569 -0.5181  0.9313
   30CHL1  H26B 2215   1.183   5.917   8.668  1.6058  0.1972 -0.0974
   30CHL1  H26C 2216   1.168   5.879   8.489  1.9090 -0.1009 -0.6288
   30CHL1   C27 2217   1.375   5.716   8.719  1.1238 -0.0700 -0.2399
   30CHL1  H27A 2218   1.348   5.797   8.789  0.8314 -1.4221  1.2628
   30CHL1  H27B 2219   1.322   5.619   8.731 -0.9152  0.8138 -1.4890
   30CHL1  H27C 2220   1.484   5.698   8.729  0.5994 -2.7674  1.6071
   31CHL1    C3 2221   2.977   0.324   6.886 -0.7828  0.4076 -0.3486
   31CHL1    H3 2222   3.086   0.345   6.896 -0.5447 -0.0367 -1.7754
   31CHL1    O3 2223   2.942   0.284   6.754 -0.3789  0.1953  0.3478
   31CHL1   H3' 2224   2.962   0.190   6.747  2.1063  0.5097  2.1147
   31CHL1    C4 2225   2.948   0.200   6.984  0.4119 -0.3477  0.2147
   31CHL1   H4A 2226   2.848   0.158   6.958  0.3527  0.4208 -0.8553
   31CHL1   H4B 2227   3.026   0.128   6.954  0.5306 -0.1388  0.0226
   31CHL1    C5 2228   2.957   0.237   7.133  0.9017  0.3266 -0.2712
   31CHL1    C6 2229   3.027   0.159   7.219 -0.3695  0.2606  0.4827
   31CHL1    H6 2230   3.084   0.077   7.173  1.6416  1.3157  1.0010
   31CHL1    C7 2231   3.025   0.176   7.362  0.2795 -0.2029 -0.0108
   31CHL1   H7A 2232   3.006   0.076   7.406 -1.8352 -1.1702 -2.8705
   31CHL1   H7B 2233   3.126   0.209   7.397  0.8420 -3.3928  1.7789
   31CHL1    C8 2234   2.918   0.280   7.416 -0.1603  0.3075  0.0164
   31CHL1    H8 2235   2.822   0.224   7.407  0.5236 -0.9885  0.4197
   31CHL1   C14 2236   2.945   0.322   7.563  0.6557 -0.4950 -0.1016
   31CHL1   H14 2237   3.045   0.370   7.564  0.1370  0.6456 -0.8684
   31CHL1   C15 2238   2.946   0.218   7.673  0.1667  1.1105 -0.8060
   31CHL1  H15A 2239   2.858   0.150   7.671  0.5479  0.6225 -1.7001
   31CHL1  H15B 2240   3.045   0.167   7.669 -0.3214  0.2053 -4.0339
   31CHL1   C16 2241   2.933   0.303   7.803 -0.4352 -0.1672  0.2818
   31CHL1  H16A 2242   2.844   0.260   7.855  0.9599 -2.7371  0.7006
   31CHL1  H16B 2243   3.020   0.298   7.872 -0.6705  1.1728  0.7126
   31CHL1   C17 2244   2.898   0.450   7.763 -0.5859  0.3910 -0.4014
   31CHL1   H17 2245   2.993   0.507   7.753  1.5828 -2.8712 -0.1571
   31CHL1   C13 2246   2.850   0.432   7.615 -1.0570 -0.5353 -0.3584
   31CHL1   C18 2247   2.702   0.391   7.620 -0.3577 -0.7250 -0.7678
   31CHL1  H18A 2248   2.682   0.319   7.701 -1.6490  0.9070  0.4242
   31CHL1  H18B 2249   2.640   0.483   7.630 -0.4538 -0.7327 -1.2670
   31CHL1  H18C 2250   2.671   0.343   7.525  2.3862 -1.0342 -1.6075
   31CHL1   C12 2251   2.863   0.554   7.528  0.2473 -0.7659 -0.5057
   31CHL1  H12A 2252   2.803   0.643   7.557 -0.4128 -0.8828 -1.4745
   31CHL1  H12B 2253   2.966   0.595   7.544 -0.5318  1.0592  0.1514
   31CHL1   C11 2254   2.844   0.522   7.381  0.0898 -0.1913 -0.1276
   31CHL1  H11A 2255   2.735   0.503   7.373  0.0784 -1.1387  1.7813
   31CHL1  H11B 2256   2.865   0.609   7.315  0.0481 -0.0827  0.0013
   31CHL1    C9 2257   2.925   0.405   7.324  0.8616 -0.0312  0.3275
   31CHL1    H9 2258   3.031   0.438   7.324  0.7442  0.5055  2.6792
   31CHL1   C10 2259   2.880   0.367   7.179 -0.3921  0.5065  0.7060
   31CHL1   C19 2260   2.726   0.341   7.167  0.7825 -0.4300  0.1510
   31CHL1  H19A 2261   2.670   0.436   7.176  0.2668 -0.7093 -0.0977
   31CHL1  H19B 2262   2.697   0.308   7.065 -3.4212  0.7479  0.7654
   31CHL1  H19C 2263   2.692   0.273   7.247 -1.1232  0.4985  0.1911
   31CHL1    C1 2264   2.922   0.483   7.078  0.1827 -0.4697 -0.0575
   31CHL1   H1A 2265   2.857   0.571   7.098 -0.7794 -1.2937  0.5594
   31CHL1   H1B 2266   3.026   0.520   7.096 -0.4313  1.7793 -0.7890
   31CHL1    C2 2267   2.907   0.449   6.928 -0.0829  0.2977  0.1642
   31CHL1   H2A 2268   2.946   0.531   6.865 -1.3380  0.6072 -0.2284
   31CHL1   H2B 2269   2.799   0.442   6.902  0.1602  1.5487 -1.2752
   31CHL1   C20 2270   2.806   0.515   7.869  1.0393 -0.0575  0.2099
   31CHL1   H20 2271   2.710   0.461   7.875  0.9728 -0.2258 -1.8375
   31CHL1   C21 2272   2.779   0.659   7.833  0.2124  0.0829  0.8406
   31CHL1  H21A 2273   2.700   0.696   7.902 -1.4241 -1.0186 -0.3718
   31CHL1  H21B 2274   2.735   0.674   7.732 -1.8909  1.6332  1.9100
   31CHL1  H21C 2275   2.878   0.709   7.843  0.3949 -0.3532  1.2154
   31CHL1   C22 2276   2.860   0.513   8.012 -0.7460 -0.3524 -0.0926
   31CHL1  H22A 2277   2.857   0.411   8.055 -0.2735  0.0345  0.8827
   31CHL1  H22B 2278   2.969   0.529   8.001 -0.6766 -2.0282 -2.4694
   31CHL1   C23 2279   2.806   0.603   8.118 -0.4694 -0.0594 -0.5079
   31CHL1  H23A 2280   2.797   0.713   8.105 -2.6979  0.0058  0.9777
   31CHL1  H23B 2281   2.703   0.565   8.138 -0.9459  1.1418 -0.5293
   31CHL1   C24 2282   2.877   0.589   8.256  0.1861  0.2656  0.1980
   31CHL1  H24A 2283   2.876   0.480   8.279  0.1964  0.4949  1.3116
   31CHL1  H24B 2284   2.986   0.608   8.246  0.2173  0.1818  0.3828
   31CHL1   C25 2285   2.824   0.661   8.379 -0.1243  0.5436 -0.4278
   31CHL1   H25 2286   2.817   0.771   8.364  1.4702  1.1914  2.7012
   31CHL1   C26 2287   2.674   0.614   8.408  0.3394 -0.8823  0.4795
   31CHL1  H26A 2288   2.670   0.503   8.411 -0.0768 -1.0118 -2.3117
   31CHL1  H26B 2289   2.625   0.654   8.500 -0.9992 -0.9141 -0.1915
   31CHL1  H26C 2290   2.605   0.620   8.321  3.3468 -1.9765 -2.1666
   31CHL1   C27 2291   2.917   0.634   8.496  0.2189 -0.2205 -0.0814
   31CHL1  H27A 2292   3.010   0.693   8.486 -0.1861  0.6940  1.2097
   31CHL1  H27B 2293   2.959   0.532   8.509  1.7359  0.3027 -0.6363
   31CHL1  H27C 2294   2.869   0.668   8.590 -0.8856  0.0750 -0.7293
   32CHL1    C3 2295   2.961   4.613   7.120 -0.0170 -0.1254  0.0537
   32CHL1    H3 2296   2.875   4.542   7.128 -0.3198  0.0217 -1.5531
   32CHL1    O3 2297   2.979   4.667   6.991  0.0964  0.3785  0.1183
   32CHL1   H3' 2298   3.015   4.593   6.942  1.5380  1.7699 -1.0255
   32CHL1    C4 2299   2.921   4.732   7.205  0.1792  0.0122 -0.3973
   32CHL1   H4A 2300   3.002   4.808   7.204  1.6387 -1.3677  2.1558
   32CHL1   H4B 2301   2.830   4.779   7.162  0.0926  0.7673  0.5774
   32CHL1    C5 2302   2.899   4.706   7.352 -0.1452 -0.0589  0.2093
   32CHL1    C6 2303   2.789   4.742   7.424 -0.2569  0.1284 -0.0755
   32CHL1    H6 2304   2.715   4.809   7.378 -0.8126 -0.7830 -0.5196
   32CHL1    C7 2305   2.767   4.718   7.576 -0.0131 -0.8926  0.6246
   32CHL1   H7A 2306   2.725   4.811   7.619  2.3084  0.8952 -0.7339
   32CHL1   H7B 2307   2.697   4.632   7.591 -0.0887 -0.7237  1.2905
   32CHL1    C8 2308   2.908   4.686   7.643 -0.0037  0.1698 -0.7949
   32CHL1    H8 2309   2.967   4.780   7.649  2.3886 -1.1066 -2.6595
   32CHL1   C14 2310   2.880   4.639   7.777 -0.0398  0.2596  0.3493
   32CHL1   H14 2311   2.830   4.540   7.775 -0.4287  0.4736 -1.3854
   32CHL1   C15 2312   2.787   4.729   7.862 -0.4894 -0.7223  0.8830
   32CHL1  H15A 2313   2.819   4.831   7.831 -1.1075 -0.9192 -0.4559
   32CHL1  H15B 2314   2.680   4.721   7.835 -0.4811  0.9108  0.2878
   32CHL1   C16 2315   2.823   4.694   8.010  0.8187 -0.1700 -0.2310
   32CHL1  H16A 2316   2.870   4.785   8.054  2.1934 -0.3623 -1.2376
   32CHL1  H16B 2317   2.740   4.654   8.072  0.1377 -1.1341 -1.7276
   32CHL1   C17 2318   2.931   4.575   7.997  0.7772 -1.0343  0.4706
   32CHL1   H17 2319   2.867   4.485   7.984  0.2560 -0.6943  0.6539
   32CHL1   C13 2320   3.001   4.602   7.864 -0.1393  0.0305 -0.1032
   32CHL1   C18 2321   3.098   4.724   7.885 -1.1511 -0.4991  0.2347
   32CHL1  H18A 2322   3.040   4.809   7.927  2.7882  2.2349  0.6968
   32CHL1  H18B 2323   3.186   4.694   7.946  0.0653  2.1936 -0.0722
   32CHL1  H18C 2324   3.147   4.765   7.795 -0.9374 -0.6515  0.2798
   32CHL1   C12 2325   3.066   4.487   7.793 -0.7184  1.0065  0.0672
   32CHL1  H12A 2326   3.153   4.437   7.841 -1.4655 -1.6340 -1.1335
   32CHL1  H12B 2327   2.993   4.403   7.790  0.3535  0.0272  0.5182
   32CHL1   C11 2328   3.103   4.523   7.644 -0.1051  0.3351 -0.2185
   32CHL1  H11A 2329   3.177   4.606   7.648 -1.3401  1.4695 -0.5967
   32CHL1  H11B 2330   3.154   4.435   7.597 -2.2356 -0.7940 -0.5126
   32CHL1    C9 2331   2.980   4.576   7.561  0.6710  0.5605 -0.2302
   32CHL1    H9 2332   2.911   4.491   7.545 -2.1960  2.8689 -1.0048
   32CHL1   C10 2333   3.015   4.631   7.419 -0.0114  0.3275 -0.0262
   32CHL1   C19 2334   3.138   4.729   7.421  0.0140 -0.0690 -0.6261
   32CHL1  H19A 2335   3.122   4.821   7.482 -0.8014 -2.1414  2.5024
   32CHL1  H19B 2336   3.221   4.670   7.465  0.3686 -0.6187 -1.9688
   32CHL1  H19C 2337   3.170   4.750   7.317  0.9306 -2.2346 -0.8227
   32CHL1    C1 2338   3.059   4.515   7.323  0.1854 -0.4993 -0.6357
   32CHL1   H1A 2339   3.157   4.481   7.364  0.2915 -0.1956 -0.6337
   32CHL1   H1B 2340   2.980   4.438   7.336 -0.5690  0.4953  0.9751
   32CHL1    C2 2341   3.087   4.553   7.176 -0.1527  0.4728 -0.6721
   32CHL1   H2A 2342   3.111   4.460   7.121  2.2728 -0.1745  1.2869
   32CHL1   H2B 2343   3.169   4.626   7.156 -2.0243  2.4487 -1.5364
   32CHL1   C20 2344   3.009   4.553   8.121  0.0132  0.2293  0.0757
   32CHL1   H20 2345   3.066   4.642   8.155 -1.4122  1.3140 -0.2742
   32CHL1   C21 2346   3.106   4.430   8.104 -0.0430 -0.2968 -0.2581
   32CHL1  H21A 2347   3.165   4.414   8.197  2.3956 -1.1636 -1.8727
   32CHL1  H21B 2348   3.190   4.441   8.032 -0.0329 -0.2555 -0.2401
   32CHL1  H21C 2349   3.046   4.341   8.079 -0.1326 -0.1054 -0.7329
   32CHL1   C22 2350   2.916   4.524   8.241 -0.0745  0.1997 -0.5924
   32CHL1  H22A 2351   2.868   4.621   8.266 -0.6436 -0.2607  0.1664
   32CHL1  H22B 2352   2.844   4.443   8.215 -0.5864  0.4885 -0.0980
   32CHL1   C23 2353   2.982   4.483   8.376 -0.6814 -0.7041  0.3146
   32CHL1  H23A 2354   2.901   4.452   8.447  0.4159  0.0118  1.9373
   32CHL1  H23B 2355   3.045   4.392   8.373  1.0707  0.3793  2.0114
   32CHL1   C24 2356   3.072   4.596   8.437 -0.2217  0.7280  0.0765
   32CHL1  H24A 2357   3.160   4.550   8.487 -0.5192 -0.9620 -0.8860
   32CHL1  H24B 2358   3.106   4.667   8.358  1.9553 -1.4593 -1.0931
   32CHL1   C25 2359   3.009   4.676   8.546 -0.1966 -0.0766  0.2086
   32CHL1   H25 2360   2.952   4.611   8.616 -0.6661  2.0003  1.8731
   32CHL1   C26 2361   3.112   4.752   8.637 -0.8867 -0.3301  0.3763
   32CHL1  H26A 2362   3.181   4.800   8.564  2.1547 -1.4601  2.2891
   32CHL1  H26B 2363   3.053   4.830   8.688  0.8613  1.6906 -0.5179
   32CHL1  H26C 2364   3.168   4.684   8.705 -4.2768 -1.5079  2.2406
   32CHL1   C27 2365   2.919   4.789   8.495 -0.5953  0.0442 -0.8337
   32CHL1  H27A 2366   2.831   4.746   8.443 -0.1604 -0.7359 -0.9300
   32CHL1  H27B 2367   2.877   4.846   8.581 -1.3518 -1.4788 -0.1490
   32CHL1  H27C 2368   2.958   4.866   8.426 -0.5137  2.9616  2.2041
   33CHL1    C3 2369   3.706   4.932   6.873 -0.7840  0.6528  0.6292
   33CHL1    H3 2370   3.771   5.021   6.887 -1.5705  1.1291  1.3365
   33CHL1    O3 2371   3.690   4.914   6.733 -0.4444 -0.1018 -0.2258
   33CHL1   H3' 2372   3.648   4.831   6.713 -4.7436  1.3034  1.7405
   33CHL1    C4 2373   3.762   4.796   6.932 -0.4284 -0.5956  0.2499
   33CHL1   H4A 2374   3.704   4.707   6.899  0.5074 -0.2243 -2.5812
   33CHL1   H4B 2375   3.864   4.768   6.900 -0.2541  0.9287 -0.6120
   33CHL1    C5 2376   3.742   4.787   7.085 -0.1570  0.0265  0.3669
   33CHL1    C6 2377   3.843   4.750   7.168  0.2766 -0.1354  0.5303
   33CHL1    H6 2378   3.940   4.723   7.125 -0.0829  1.7843 -1.6632
   33CHL1    C7 2379   3.841   4.725   7.315  0.0759  0.3104 -0.4415
   33CHL1   H7A 2380   3.870   4.623   7.347 -0.1055  0.5177  0.4205
   33CHL1   H7B 2381   3.896   4.798   7.379 -1.1386 -0.2344  1.3059
   33CHL1    C8 2382   3.695   4.736   7.369  0.0356  0.2873  0.0045
   33CHL1    H8 2383   3.646   4.638   7.354 -0.4568  0.7375 -1.4507
   33CHL1   C14 2384   3.693   4.759   7.517  0.4060 -0.2282 -0.4369
   33CHL1   H14 2385   3.742   4.858   7.516 -0.0171 -0.0210 -1.0188
   33CHL1   C15 2386   3.784   4.679   7.614  0.5833  0.1977  0.5216
   33CHL1  H15A 2387   3.749   4.574   7.609  0.5510  0.2691 -2.0723
   33CHL1  H15B 2388   3.893   4.690   7.596  0.9913 -1.0662  2.0250
   33CHL1   C16 2389   3.742   4.739   7.755 -0.5024  0.6785  0.0550
   33CHL1  H16A 2390   3.739   4.650   7.822  1.8036  0.4877  0.0008
   33CHL1  H16B 2391   3.807   4.808   7.814  0.2499  0.9301 -1.0446
   33CHL1   C17 2392   3.603   4.813   7.733 -0.0286  0.0702 -0.7000
   33CHL1   H17 2393   3.632   4.920   7.729 -0.2739  0.3746  2.8066
   33CHL1   C13 2394   3.558   4.776   7.593  0.3231 -0.2109 -0.1764
   33CHL1   C18 2395   3.478   4.643   7.598  0.1419 -0.2939 -0.4330
   33CHL1  H18A 2396   3.531   4.569   7.662  1.3574  0.6040 -0.3551
   33CHL1  H18B 2397   3.378   4.674   7.636  0.4173  1.4962 -1.0532
   33CHL1  H18C 2398   3.453   4.598   7.500 -3.4631 -0.2392  0.3072
   33CHL1   C12 2399   3.480   4.888   7.513  0.3224  0.4444 -0.8038
   33CHL1  H12A 2400   3.377   4.866   7.547  0.7167  1.0500  0.9222
   33CHL1  H12B 2401   3.522   4.984   7.550 -0.7079  0.0444  1.6457
   33CHL1   C11 2402   3.473   4.860   7.361 -0.2010 -0.7252 -0.2806
   33CHL1  H11A 2403   3.418   4.765   7.349 -0.9261 -0.6039  1.7357
   33CHL1  H11B 2404   3.419   4.946   7.314  1.3409  0.4237 -0.0412
   33CHL1    C9 2405   3.615   4.843   7.293  0.1466  0.2048  0.0372
   33CHL1    H9 2406   3.670   4.936   7.320  0.6400 -0.1343  0.2186
   33CHL1   C10 2407   3.605   4.829   7.136 -0.0298 -0.4841 -0.4485
   33CHL1   C19 2408   3.505   4.719   7.114 -0.1945 -0.5715  0.3174
   33CHL1  H19A 2409   3.513   4.682   7.009 -2.5275 -0.0124 -0.1168
   33CHL1  H19B 2410   3.522   4.630   7.179 -1.4312 -0.8994  0.2164
   33CHL1  H19C 2411   3.402   4.749   7.140  0.2920  2.0330 -0.5258
   33CHL1    C1 2412   3.555   4.963   7.076 -0.0387 -0.1772 -0.1973
   33CHL1   H1A 2413   3.448   4.974   7.104  0.1350  2.3045 -0.3059
   33CHL1   H1B 2414   3.614   5.044   7.123 -0.1234 -0.7483  0.9318
   33CHL1    C2 2415   3.564   4.956   6.924  0.5811  0.6763  0.0581
   33CHL1   H2A 2416   3.534   5.053   6.879  1.2371  0.5710 -0.6452
   33CHL1   H2B 2417   3.497   4.873   6.893 -2.0623  1.5085  3.0420
   33CHL1   C20 2418   3.516   4.808   7.859  0.6925 -0.4054  0.2189
   33CHL1   H20 2419   3.486   4.702   7.861  0.2217 -0.2776  0.1105
   33CHL1   C21 2420   3.401   4.907   7.834 -0.1892  1.4143  0.3398
   33CHL1  H21A 2421   3.351   4.869   7.743  1.0620 -0.7660  0.4860
   33CHL1  H21B 2422   3.442   5.010   7.821  1.6332  0.7615  0.5704
   33CHL1  H21C 2423   3.327   4.904   7.916  0.5314  0.4323  0.9801
   33CHL1   C22 2424   3.590   4.838   7.993 -0.0716  0.6047 -0.3349
   33CHL1  H22A 2425   3.657   4.750   8.009 -0.0789  0.4776 -0.9868
   33CHL1  H22B 2426   3.655   4.926   7.976  1.7012  0.0517  2.7041
   33CHL1   C23 2427   3.495   4.860   8.111  0.2289 -0.5482 -0.4852
   33CHL1  H23A 2428   3.435   4.953   8.099  1.9937  0.7271  0.0844
   33CHL1  H23B 2429   3.440   4.765   8.126  2.2336 -1.5077  1.4666
   33CHL1   C24 2430   3.566   4.871   8.249 -0.3342 -0.1144 -0.1510
   33CHL1  H24A 2431   3.622   4.776   8.260  1.3232  0.9480  1.0041
   33CHL1  H24B 2432   3.640   4.953   8.259 -2.5885  2.0376 -0.1014
   33CHL1   C25 2433   3.476   4.870   8.375 -0.1742 -0.4346  0.9891
   33CHL1   H25 2434   3.422   4.774   8.364 -0.4964 -0.3056  1.4054
   33CHL1   C26 2435   3.562   4.869   8.502 -0.7247  0.3556 -0.4065
   33CHL1  H26A 2436   3.612   4.770   8.509  0.3685  0.9180 -0.0358
   33CHL1  H26B 2437   3.632   4.955   8.504 -0.3038  0.0092  0.9760
   33CHL1  H26C 2438   3.499   4.875   8.593  1.5702 -1.3661  1.4433
   33CHL1   C27 2439   3.366   4.975   8.373 -0.0348 -0.2877 -0.2074
   33CHL1  H27A 2440   3.322   4.978   8.271  0.3584 -0.4068 -0.3801
   33CHL1  H27B 2441   3.289   4.957   8.451  0.4643 -0.3922  0.2638
   33CHL1  H27C 2442   3.398   5.081   8.385 -0.0541 -0.4157  1.1673
   34CHL1    C3 2443   4.412   3.947   7.115 -0.0863 -0.4497  0.2431
   34CHL1    H3 2444   4.421   3.837   7.125  1.1935 -0.2633  1.4270
   34CHL1    O3 2445   4.409   3.978   6.979 -0.2620  0.5327 -0.1213
   34CHL1   H3' 2446   4.334   3.923   6.954 -1.4922  1.9470  0.2976
   34CHL1    C4 2447   4.282   3.998   7.177  0.6377 -0.1469  0.3646
   34CHL1   H4A 2448   4.274   4.105   7.145 -0.2548 -0.3903 -0.2710
   34CHL1   H4B 2449   4.190   3.950   7.137 -0.5712  1.9954  0.3663
   34CHL1    C5 2450   4.294   3.975   7.334 -0.1543 -0.8098  0.5611
   34CHL1    C6 2451   4.196   3.904   7.393  0.5491  0.3401 -0.1541
   34CHL1    H6 2452   4.115   3.857   7.335 -1.0396  1.6218  0.9328
   34CHL1    C7 2453   4.184   3.884   7.546  0.2058 -0.1828  0.3203
   34CHL1   H7A 2454   4.077   3.912   7.561  0.0300 -0.1427 -0.8697
   34CHL1   H7B 2455   4.202   3.779   7.578  0.7122  0.4159  2.1008
   34CHL1    C8 2456   4.281   3.969   7.627 -0.0642 -0.4140  0.0134
   34CHL1    H8 2457   4.242   4.073   7.633 -2.0464 -1.1158 -0.0486
   34CHL1   C14 2458   4.304   3.914   7.761  0.4441  0.8167 -0.4756
   34CHL1   H14 2459   4.351   3.813   7.759  0.3027  0.7275  0.3638
   34CHL1   C15 2460   4.182   3.879   7.841 -0.5736  0.3681 -0.3501
   34CHL1  H15A 2461   4.098   3.952   7.836 -0.8662  0.3207  2.2015
   34CHL1  H15B 2462   4.143   3.775   7.831  0.4852 -0.2552  1.4476
   34CHL1   C16 2463   4.232   3.884   7.989  0.0133 -0.1192 -0.3679
   34CHL1  H16A 2464   4.191   3.966   8.052  0.4348 -1.8177  2.3154
   34CHL1  H16B 2465   4.206   3.793   8.048  0.3978 -0.1014 -0.1618
   34CHL1   C17 2466   4.384   3.921   7.979  0.2550  0.0232 -0.5048
   34CHL1   H17 2467   4.421   3.818   7.963 -0.1673 -0.3222  0.6220
   34CHL1   C13 2468   4.402   3.992   7.844 -0.0713  0.5907 -0.0367
   34CHL1   C18 2469   4.364   4.138   7.865 -0.0171  0.3111  0.1118
   34CHL1  H18A 2470   4.445   4.191   7.920  1.4163 -0.4685 -1.1931
   34CHL1  H18B 2471   4.352   4.186   7.766 -1.8474  2.5317  1.2852
   34CHL1  H18C 2472   4.263   4.155   7.909 -0.0527  0.2283  0.0611
   34CHL1   C12 2473   4.547   3.971   7.782 -0.7554 -0.2112  0.0467
   34CHL1  H12A 2474   4.627   4.036   7.823  1.6454 -1.0009 -3.0268
   34CHL1  H12B 2475   4.576   3.864   7.780  2.1085  0.4066  2.1526
   34CHL1   C11 2476   4.536   4.021   7.641 -0.1392  0.6394  0.0178
   34CHL1  H11A 2477   4.542   4.132   7.633 -0.9879  0.6906 -0.0516
   34CHL1  H11B 2478   4.625   3.979   7.590 -1.1138  1.1789 -2.2747
   34CHL1    C9 2479   4.417   3.974   7.557  0.1502 -0.4258 -0.2791
   34CHL1    H9 2480   4.432   3.864   7.550  0.1231 -0.6864  2.6554
   34CHL1   C10 2481   4.411   4.029   7.416  0.3320  0.2211  0.0792
   34CHL1   C19 2482   4.410   4.178   7.422 -0.0614  0.9589 -0.3369
   34CHL1  H19A 2483   4.411   4.227   7.323 -2.3112 -0.1659 -0.9745
   34CHL1  H19B 2484   4.323   4.225   7.472  0.4747  1.7349 -0.1096
   34CHL1  H19C 2485   4.490   4.234   7.475  0.1425  0.0692  0.3400
   34CHL1    C1 2486   4.540   3.982   7.335 -0.1227  0.8685 -0.1266
   34CHL1   H1A 2487   4.630   4.032   7.377 -0.0162  1.0717 -0.5887
   34CHL1   H1B 2488   4.553   3.873   7.347 -1.2984  0.8308  0.9961
   34CHL1    C2 2489   4.537   4.018   7.183 -0.1230 -0.1190 -0.7545
   34CHL1   H2A 2490   4.628   3.974   7.137  1.1167  2.0642 -0.5109
   34CHL1   H2B 2491   4.548   4.128   7.172  3.5159 -0.0287  2.2229
   34CHL1   C20 2492   4.452   3.970   8.111  0.0091  0.2765 -0.1687
   34CHL1   H20 2493   4.439   4.080   8.116 -1.5934  0.0831  0.6875
   34CHL1   C21 2494   4.605   3.916   8.112  0.4974  0.4360  0.3531
   34CHL1  H21A 2495   4.661   3.968   8.192  2.0891  0.0752 -0.4889
   34CHL1  H21B 2496   4.641   3.937   8.009 -0.3459 -1.9133 -0.5069
   34CHL1  H21C 2497   4.609   3.807   8.130  0.8829  0.3262 -0.3378
   34CHL1   C22 2498   4.384   3.912   8.248  0.8208 -0.0543  0.1516
   34CHL1  H22A 2499   4.274   3.928   8.248  0.7426 -0.5574 -0.5298
   34CHL1  H22B 2500   4.406   3.803   8.242 -2.5212 -0.7374 -2.3172
   34CHL1   C23 2501   4.450   3.978   8.375 -0.4942 -0.1004 -0.4425
   34CHL1  H23A 2502   4.387   3.949   8.462 -0.6480  1.8432  0.1284
   34CHL1  H23B 2503   4.558   3.958   8.393 -0.4949  1.9862  2.4065
   34CHL1   C24 2504   4.433   4.133   8.383 -0.4522 -0.0327  0.3228
   34CHL1  H24A 2505   4.488   4.171   8.294 -0.2811 -3.2465 -1.0715
   34CHL1  H24B 2506   4.329   4.171   8.370 -0.1649  0.3663 -0.9319
   34CHL1   C25 2507   4.477   4.198   8.514 -0.8856  0.1997  1.0141
   34CHL1   H25 2508   4.583   4.167   8.529 -0.9433 -1.1436 -0.9957
   34CHL1   C26 2509   4.460   4.346   8.498 -0.3474  0.1736  0.3897
   34CHL1  H26A 2510   4.521   4.399   8.575 -1.2699 -0.4116  1.5557
   34CHL1  H26B 2511   4.511   4.383   8.407 -1.2157 -2.3423 -1.2329
   34CHL1  H26C 2512   4.356   4.386   8.506  0.2792  1.5964  1.9307
   34CHL1   C27 2513   4.392   4.165   8.638  0.1908  0.8659 -0.0750
   34CHL1  H27A 2514   4.439   4.211   8.728  0.7460  0.3064 -0.0749
   34CHL1  H27B 2515   4.284   4.190   8.624 -0.1333 -0.5093 -0.1514
   34CHL1  H27C 2516   4.395   4.054   8.644  0.6609  0.7705 -1.8033
   35CHL1    C3 2517   1.149   4.603   7.297  1.0502  0.1362  0.3109
   35CHL1    H3 2518   1.099   4.503   7.297  3.2667 -1.0749 -1.7608
   35CHL1    O3 2519   1.154   4.673   7.171 -0.1250  0.1308  0.2515
   35CHL1   H3' 2520   1.178   4.764   7.187  0.4773  0.1947 -0.9593
   35CHL1    C4 2521   1.090   4.690   7.407  0.5342  0.8412 -0.2849
   35CHL1   H4A 2522   1.107   4.799   7.392  2.7504  0.5888  0.1406
   35CHL1   H4B 2523   0.980   4.675   7.395  0.8523 -2.8531  0.2001
   35CHL1    C5 2524   1.105   4.643   7.552  0.5190 -0.3068 -0.5108
   35CHL1    C6 2525   0.999   4.631   7.639  0.1885 -0.4678 -0.0177
   35CHL1    H6 2526   0.897   4.657   7.607 -0.1349 -2.0817 -0.4047
   35CHL1    C7 2527   1.015   4.585   7.783  0.4681  1.2544  1.0888
   35CHL1   H7A 2528   0.937   4.626   7.851 -0.1736 -1.0262  1.8030
   35CHL1   H7B 2529   0.978   4.481   7.776 -0.4021  1.6924 -2.6115
   35CHL1    C8 2530   1.159   4.588   7.838  0.3285 -0.3629  0.1248
   35CHL1    H8 2531   1.175   4.695   7.860 -0.9238  0.2158 -1.5834
   35CHL1   C14 2532   1.173   4.515   7.975 -0.4917  0.4051 -0.1312
   35CHL1   H14 2533   1.138   4.412   7.955 -0.6484  0.0588  1.7303
   35CHL1   C15 2534   1.088   4.555   8.087  0.1104  0.0723 -0.7550
   35CHL1  H15A 2535   1.101   4.665   8.095  2.1830 -0.1646 -0.1755
   35CHL1  H15B 2536   0.979   4.541   8.073  0.6640 -2.6094 -3.5883
   35CHL1   C16 2537   1.142   4.475   8.208  0.4814  0.0796  0.1276
   35CHL1  H16A 2538   1.137   4.543   8.295 -0.0298  0.6682 -0.3574
   35CHL1  H16B 2539   1.073   4.390   8.226 -0.0399 -0.2932 -3.0705
   35CHL1   C17 2540   1.284   4.425   8.162  0.6453  0.3230  0.2157
   35CHL1   H17 2541   1.268   4.318   8.136  2.7886  0.0868 -0.2911
   35CHL1   C13 2542   1.314   4.506   8.032 -0.1070  0.8565  0.0796
   35CHL1   C18 2543   1.370   4.649   8.057 -0.4679  0.7205  0.4893
   35CHL1  H18A 2544   1.478   4.638   8.079  0.0942 -0.7111 -2.5487
   35CHL1  H18B 2545   1.369   4.713   7.966 -3.0410 -0.8910 -0.7235
   35CHL1  H18C 2546   1.327   4.709   8.141 -0.4408 -0.2224  1.1890
   35CHL1   C12 2547   1.399   4.432   7.931 -0.7302 -0.6040  0.2592
   35CHL1  H12A 2548   1.503   4.429   7.970 -0.8855 -0.6362  0.6782
   35CHL1  H12B 2549   1.369   4.326   7.918  0.1489 -0.5711 -2.6265
   35CHL1   C11 2550   1.398   4.507   7.798  0.1032 -0.3440 -0.3688
   35CHL1  H11A 2551   1.438   4.611   7.805  0.1955 -0.5007  3.1393
   35CHL1  H11B 2552   1.451   4.443   7.724  0.0914  0.9334 -1.5181
   35CHL1    C9 2553   1.252   4.532   7.736 -0.6631 -0.1536 -0.2160
   35CHL1    H9 2554   1.210   4.430   7.724  2.1226 -1.2020 -1.7719
   35CHL1   C10 2555   1.239   4.608   7.597 -0.6688  0.1530  0.4113
   35CHL1   C19 2556   1.321   4.741   7.604  1.1417  0.9651 -0.1731
   35CHL1  H19A 2557   1.304   4.807   7.516  1.3885  0.2025 -0.8014
   35CHL1  H19B 2558   1.303   4.802   7.695 -0.9100  1.5498 -0.9073
   35CHL1  H19C 2559   1.427   4.708   7.608  0.5877 -1.1216 -1.2156
   35CHL1    C1 2560   1.299   4.519   7.482  0.2656  0.5173  0.3093
   35CHL1   H1A 2561   1.403   4.486   7.506  0.5088 -0.5644 -1.8854
   35CHL1   H1B 2562   1.240   4.425   7.487  0.1681  0.5303 -0.3977
   35CHL1    C2 2563   1.298   4.576   7.337  0.2256 -0.3181 -0.2130
   35CHL1   H2A 2564   1.344   4.503   7.267 -1.0460 -1.9980  0.6186
   35CHL1   H2B 2565   1.353   4.672   7.346  0.5056 -0.3731 -1.1593
   35CHL1   C20 2566   1.383   4.424   8.272  0.3819  0.2148 -0.1985
   35CHL1   H20 2567   1.397   4.526   8.316  1.6307 -0.9636  2.3487
   35CHL1   C21 2568   1.521   4.379   8.218 -0.4197 -0.0260  0.0535
   35CHL1  H21A 2569   1.577   4.468   8.180  1.9785 -2.2460 -1.9932
   35CHL1  H21B 2570   1.514   4.295   8.146  1.0747 -0.6522  0.5773
   35CHL1  H21C 2571   1.587   4.333   8.295 -2.4121 -1.2028  1.1175
   35CHL1   C22 2572   1.351   4.332   8.395  0.4333  0.4378 -0.0517
   35CHL1  H22A 2573   1.419   4.350   8.481  0.8360 -0.1328 -0.2404
   35CHL1  H22B 2574   1.250   4.365   8.428  0.0404 -0.1595 -0.6311
   35CHL1   C23 2575   1.338   4.184   8.358  0.0031  0.0462  0.6530
   35CHL1  H23A 2576   1.256   4.175   8.283 -0.5262  0.0835  1.2153
   35CHL1  H23B 2577   1.431   4.141   8.317  0.0766  0.6081  0.2265
   35CHL1   C24 2578   1.304   4.103   8.487  0.3894 -0.3866 -0.0250
   35CHL1  H24A 2579   1.236   4.171   8.544  2.6354  2.4502 -0.4896
   35CHL1  H24B 2580   1.247   4.015   8.452  0.0590 -0.3960  0.5291
   35CHL1   C25 2581   1.430   4.064   8.564 -0.1992  0.1301 -0.4482
   35CHL1   H25 2582   1.481   4.156   8.598  0.3540 -0.2567 -0.2192
   35CHL1   C26 2583   1.399   3.988   8.695  0.0612  0.2959 -0.2033
   35CHL1  H26A 2584   1.343   3.894   8.675 -1.1874  0.7572  0.9371
   35CHL1  H26B 2585   1.483   3.985   8.767  0.8625 -0.4495 -1.1433
   35CHL1  H26C 2586   1.321   4.047   8.748  0.3658 -1.0512  1.8344
   35CHL1   C27 2587   1.535   3.985   8.486  0.5143  0.3852 -0.2935
   35CHL1  H27A 2588   1.493   3.886   8.455 -0.5872  1.0304 -0.9245
   35CHL1  H27B 2589   1.618   3.961   8.555 -0.7366  0.4372  1.2828
   35CHL1  H27C 2590   1.589   4.048   8.412  1.5693 -1.1484 -0.8993
   36CHL1    C3 2591   2.196   5.099   7.068  0.7143 -0.3098 -0.5825
   36CHL1    H3 2592   2.101   5.153   7.085  0.1476 -1.4491 -0.0572
   36CHL1    O3 2593   2.248   5.114   6.935  0.6407 -0.0585 -0.3638
   36CHL1   H3' 2594   2.284   5.202   6.924 -0.1862  0.4243  0.6588
   36CHL1    C4 2595   2.300   5.155   7.163 -0.3112 -0.3932 -0.1698
   36CHL1   H4A 2596   2.397   5.110   7.135 -0.3811 -0.4874 -0.2631
   36CHL1   H4B 2597   2.305   5.264   7.142 -3.3095  0.2578  1.8431
   36CHL1    C5 2598   2.263   5.130   7.307 -0.0558  0.3629 -0.8451
   36CHL1    C6 2599   2.259   5.228   7.398 -0.5449  0.4261 -0.2115
   36CHL1    H6 2600   2.279   5.333   7.375  1.4771  0.0628 -0.3067
   36CHL1    C7 2601   2.235   5.204   7.544 -0.0545 -0.0829 -0.1343
   36CHL1   H7A 2602   2.310   5.265   7.598  0.4845 -3.0153  2.7388
   36CHL1   H7B 2603   2.136   5.242   7.578  1.2871  2.3429  1.2674
   36CHL1    C8 2604   2.255   5.061   7.597 -0.7876 -0.0132 -0.0526
   36CHL1    H8 2605   2.366   5.053   7.603 -0.8414 -0.9707 -0.1612
   36CHL1   C14 2606   2.179   5.035   7.723  0.0395  0.4356  0.2890
   36CHL1   H14 2607   2.071   5.047   7.705  0.0204 -1.5312 -1.2615
   36CHL1   C15 2608   2.207   5.130   7.841 -0.2935 -0.1942 -0.0545
   36CHL1  H15A 2609   2.315   5.157   7.838 -0.1570 -0.4514  1.5405
   36CHL1  H15B 2610   2.147   5.223   7.840  0.2334  0.2048  1.5352
   36CHL1   C16 2611   2.160   5.050   7.966 -0.7518 -0.1276  0.2404
   36CHL1  H16A 2612   2.250   5.033   8.029 -0.8988  1.6451  1.0054
   36CHL1  H16B 2613   2.084   5.102   8.028 -0.9970  1.5383 -1.3519
   36CHL1   C17 2614   2.122   4.912   7.915  0.6788 -0.0867  0.9136
   36CHL1   H17 2615   2.013   4.901   7.894  0.5137  2.3826  0.2072
   36CHL1   C13 2616   2.194   4.896   7.778 -0.7070 -0.1184 -0.2002
   36CHL1   C18 2617   2.339   4.862   7.819 -0.6778  0.2696 -0.3242
   36CHL1  H18A 2618   2.407   4.863   7.731  0.1085  0.1291  0.2697
   36CHL1  H18B 2619   2.383   4.940   7.883 -0.5757  0.0746 -0.1554
   36CHL1  H18C 2620   2.356   4.769   7.877 -1.8111  1.4849  2.1009
   36CHL1   C12 2621   2.133   4.791   7.680  0.1275  0.0917  0.4360
   36CHL1  H12A 2622   2.157   4.689   7.717 -1.0584 -1.8091 -3.4082
   36CHL1  H12B 2623   2.023   4.812   7.676  0.1623  0.6576  1.8755
   36CHL1   C11 2624   2.200   4.821   7.541  0.3960 -0.3837 -0.6792
   36CHL1  H11A 2625   2.304   4.782   7.547  0.7857  0.5678 -1.0291
   36CHL1  H11B 2626   2.140   4.764   7.468  0.7387  0.7607 -1.8958
   36CHL1    C9 2627   2.197   4.968   7.493 -0.3579 -0.2654  0.5353
   36CHL1    H9 2628   2.089   4.991   7.491 -0.9538 -2.7449 -0.6391
   36CHL1   C10 2629   2.251   4.982   7.344 -0.4979  0.0845 -0.1531
   36CHL1   C19 2630   2.384   4.906   7.329 -0.3780 -0.2675 -0.3166
   36CHL1  H19A 2631   2.369   4.801   7.363 -0.8435 -0.4406 -1.0427
   36CHL1  H19B 2632   2.437   4.913   7.232 -0.6176 -0.9389 -0.5054
   36CHL1  H19C 2633   2.450   4.939   7.412 -0.6946 -0.1310 -0.1143
   36CHL1    C1 2634   2.146   4.922   7.243 -0.4215  0.1137  0.2792
   36CHL1   H1A 2635   2.124   4.815   7.266  1.2979 -0.0689  1.2748
   36CHL1   H1B 2636   2.056   4.982   7.263 -0.2021  1.4888 -2.4626
   36CHL1    C2 2637   2.176   4.951   7.097 -0.4204  0.6139 -0.8714
   36CHL1   H2A 2638   2.088   4.926   7.034 -0.6290 -0.4643 -0.1779
   36CHL1   H2B 2639   2.258   4.885   7.061 -2.0590 -1.4407 -1.0358
   36CHL1   C20 2640   2.147   4.811   8.022  0.0962 -0.6845 -0.1093
   36CHL1   H20 2641   2.257   4.799   8.035  0.6287  2.5797 -0.8904
   36CHL1   C21 2642   2.102   4.677   7.984 -0.0533  0.4916 -0.0137
   36CHL1  H21A 2643   1.995   4.679   7.952 -0.5395 -0.1257  1.4873
   36CHL1  H21B 2644   2.113   4.610   8.072  1.3929 -0.3888 -0.8388
   36CHL1  H21C 2645   2.177   4.644   7.909  1.0728  1.0081  0.8585
   36CHL1   C22 2646   2.089   4.849   8.161 -0.3209 -0.5066 -0.3554
   36CHL1  H22A 2647   2.142   4.935   8.207  0.2087 -1.4378  0.8629
   36CHL1  H22B 2648   1.979   4.854   8.152 -0.4702  1.0283  1.6433
   36CHL1   C23 2649   2.118   4.741   8.271 -0.3095 -0.0628 -0.0356
   36CHL1  H23A 2650   2.040   4.663   8.266 -0.1588 -0.2206  0.0621
   36CHL1  H23B 2651   2.210   4.685   8.245  0.0404 -0.0979  1.1856
   36CHL1   C24 2652   2.122   4.801   8.413 -0.2249 -0.1461  0.5517
   36CHL1  H24A 2653   2.201   4.879   8.417 -1.2343  0.9256  0.4767
   36CHL1  H24B 2654   2.030   4.861   8.432  0.5972  1.2528  0.2449
   36CHL1   C25 2655   2.140   4.706   8.537  0.6463 -0.0628 -0.1728
   36CHL1   H25 2656   2.060   4.629   8.535  0.2982  0.1279  2.6089
   36CHL1   C26 2657   2.278   4.646   8.525  0.9031 -0.0226 -0.0044
   36CHL1  H26A 2658   2.289   4.572   8.608 -0.0587  0.4026  0.5198
   36CHL1  H26B 2659   2.286   4.591   8.429 -3.2355  1.3438 -1.3381
   36CHL1  H26C 2660   2.350   4.728   8.543  1.4212  0.3906 -3.3886
   36CHL1   C27 2661   2.136   4.792   8.663  0.1140 -0.9869 -0.6952
   36CHL1  H27A 2662   2.043   4.852   8.662 -0.5459 -1.9195  0.7305
   36CHL1  H27B 2663   2.128   4.726   8.752  0.7327  1.2388  1.1032
   36CHL1  H27C 2664   2.228   4.852   8.680 -0.2583 -0.5289 -0.2665
   37CHL1    C3 2665   4.628   6.085   7.052  0.6428  0.6240 -0.2756
   37CHL1    H3 2666   4.727   6.115   7.093  0.2394  1.8789 -0.1678
   37CHL1    O3 2667   4.644   6.090   6.915  0.2977 -0.1807 -0.0512
   37CHL1   H3' 2668   4.584   6.025   6.878  0.7116  1.0422 -3.1653
   37CHL1    C4 2669   4.597   5.940   7.091 -0.0232  0.6194  0.1574
   37CHL1   H4A 2670   4.506   5.899   7.042  0.5467 -0.0907 -0.3296
   37CHL1   H4B 2671   4.674   5.878   7.041 -0.4668 -0.3146  0.6209
   37CHL1    C5 2672   4.586   5.924   7.243 -0.0813  0.2322  0.0069
   37CHL1    C6 2673   4.656   5.827   7.306 -0.4596 -0.0380  0.0599
   37CHL1    H6 2674   4.727   5.768   7.246 -0.9090 -0.3715 -0.1563
   37CHL1    C7 2675   4.636   5.798   7.456  0.0122  0.4237 -1.0302
   37CHL1   H7A 2676   4.604   5.692   7.462 -1.9584  1.0824  1.7314
   37CHL1   H7B 2677   4.727   5.812   7.519 -0.3441 -1.5461  0.0174
   37CHL1    C8 2678   4.513   5.875   7.521  0.8024  0.1963 -0.8103
   37CHL1    H8 2679   4.418   5.817   7.515  1.4769 -1.3345  1.8109
   37CHL1   C14 2680   4.540   5.886   7.674  0.4892 -0.2707 -0.5291
   37CHL1   H14 2681   4.640   5.932   7.689 -0.6617  2.5285 -0.8425
   37CHL1   C15 2682   4.560   5.754   7.757  0.4291  1.0420  0.1841
   37CHL1  H15A 2683   4.484   5.681   7.725  0.7156  1.0936 -0.6287
   37CHL1  H15B 2684   4.667   5.723   7.749  0.0744 -0.1754  0.1261
   37CHL1   C16 2685   4.541   5.794   7.902  0.5202  0.8449 -0.0497
   37CHL1  H16A 2686   4.470   5.723   7.948 -0.9145  1.9699 -0.4809
   37CHL1  H16B 2687   4.635   5.775   7.959 -0.2013  1.4224  1.3460
   37CHL1   C17 2688   4.503   5.944   7.894  0.3712 -0.2658 -0.5133
   37CHL1   H17 2689   4.594   6.006   7.901 -0.7974  1.3670  1.1651
   37CHL1   C13 2690   4.438   5.973   7.751  0.3423  0.6501 -0.4324
   37CHL1   C18 2691   4.297   5.906   7.740 -1.0284 -0.4826  0.0088
   37CHL1  H18A 2692   4.226   5.978   7.785 -1.0061  1.5321 -2.9200
   37CHL1  H18B 2693   4.262   5.891   7.635 -2.3909 -0.9851  0.5152
   37CHL1  H18C 2694   4.295   5.810   7.796  1.2281 -1.1529 -0.9618
   37CHL1   C12 2695   4.436   6.115   7.697 -0.9438  0.1426  0.5391
   37CHL1  H12A 2696   4.361   6.176   7.753 -1.1846  0.2872  0.0664
   37CHL1  H12B 2697   4.532   6.164   7.724 -1.5017  1.1249  0.8225
   37CHL1   C11 2698   4.415   6.126   7.548  0.4552  0.1910 -0.6135
   37CHL1  H11A 2699   4.308   6.103   7.531  0.0923 -0.0276  1.6443
   37CHL1  H11B 2700   4.423   6.230   7.511  0.5777  0.6433  0.6452
   37CHL1    C9 2701   4.503   6.016   7.472 -0.1329  0.4955 -0.6932
   37CHL1    H9 2702   4.605   6.055   7.496  0.1896 -1.6075  1.7803
   37CHL1   C10 2703   4.483   6.021   7.313 -0.1269  0.1847  0.2529
   37CHL1   C19 2704   4.329   5.977   7.285 -0.1052  0.2564  0.2643
   37CHL1  H19A 2705   4.304   5.971   7.177  0.4924  0.8062  0.0888
   37CHL1  H19B 2706   4.309   5.884   7.343 -0.2667  0.7177  0.9548
   37CHL1  H19C 2707   4.262   6.058   7.318 -1.4382 -0.4276 -0.6795
   37CHL1    C1 2708   4.503   6.167   7.257  0.5521  0.2039 -0.4415
   37CHL1   H1A 2709   4.415   6.230   7.278  0.9246  0.0132  1.8832
   37CHL1   H1B 2710   4.592   6.212   7.305  0.2453 -2.5268  3.1335
   37CHL1    C2 2711   4.524   6.183   7.108  0.4357  0.4119 -0.4423
   37CHL1   H2A 2712   4.535   6.290   7.082 -2.2455  0.9853  0.3898
   37CHL1   H2B 2713   4.435   6.139   7.057  1.7880 -1.8110 -1.0437
   37CHL1   C20 2714   4.420   5.998   8.015  0.0125 -0.4793 -0.0104
   37CHL1   H20 2715   4.328   5.936   8.011 -1.3897  1.5623 -1.2785
   37CHL1   C21 2716   4.372   6.141   8.020  0.3260  1.2562 -0.8354
   37CHL1  H21A 2717   4.453   6.216   8.020  1.5269 -0.0063 -0.8761
   37CHL1  H21B 2718   4.314   6.141   8.115  2.5467 -1.0732  0.6615
   37CHL1  H21C 2719   4.292   6.161   7.945 -0.5853  1.7778  0.2541
   37CHL1   C22 2720   4.482   5.968   8.156 -1.3624  1.1445 -0.0271
   37CHL1  H22A 2721   4.404   5.987   8.233 -0.6702  0.2204  0.9334
   37CHL1  H22B 2722   4.496   5.859   8.165 -1.4133  0.8105 -3.1337
   37CHL1   C23 2723   4.596   6.058   8.208  0.4750  0.2798  0.2017
   37CHL1  H23A 2724   4.668   6.059   8.123 -1.3056  1.3266 -1.3881
   37CHL1  H23B 2725   4.548   6.159   8.211 -1.6539 -0.6713 -0.1325
   37CHL1   C24 2726   4.657   5.999   8.335  0.4610 -0.4895  0.9617
   37CHL1  H24A 2727   4.706   5.902   8.310 -0.5022 -1.2350  1.8834
   37CHL1  H24B 2728   4.742   6.061   8.371 -1.2043  1.7593  1.1918
   37CHL1   C25 2729   4.554   5.997   8.452  0.2273  0.6871 -0.3474
   37CHL1   H25 2730   4.470   5.928   8.429  0.0188  1.2213 -1.2492
   37CHL1   C26 2731   4.625   5.958   8.581 -0.6749  0.2444 -0.4732
   37CHL1  H26A 2732   4.565   5.976   8.672 -1.0944 -3.0858  0.0367
   37CHL1  H26B 2733   4.653   5.850   8.581  0.4423  0.5141  0.5014
   37CHL1  H26C 2734   4.717   6.017   8.600 -0.6659  0.9391 -2.4120
   37CHL1   C27 2735   4.485   6.128   8.477  0.5913 -0.8059 -0.5228
   37CHL1  H27A 2736   4.434   6.173   8.390 -0.1096 -0.9042 -0.1753
   37CHL1  H27B 2737   4.404   6.117   8.553  1.2873 -0.0132  0.3659
   37CHL1  H27C 2738   4.550   6.201   8.530  0.8286 -1.6202  0.3590
   38CHL1    C3 2739   1.630   1.374   6.813 -0.2336  0.3070  0.0147
   38CHL1    H3 2740   1.684   1.465   6.848  1.3829 -0.1897 -1.0463
   38CHL1    O3 2741   1.657   1.369   6.671 -0.0619  0.3358 -0.4845
   38CHL1   H3' 2742   1.598   1.299   6.643  2.2699 -1.2087 -1.9473
   38CHL1    C4 2743   1.694   1.245   6.881  0.5264  0.1874  0.2496
   38CHL1   H4A 2744   1.645   1.154   6.840  0.3727  0.0278  0.7753
   38CHL1   H4B 2745   1.802   1.237   6.857  0.2787 -1.0307 -0.5626
   38CHL1    C5 2746   1.673   1.263   7.029  0.6002 -0.0922 -0.5725
   38CHL1    C6 2747   1.776   1.257   7.112  1.0794 -1.0068  0.4253
   38CHL1    H6 2748   1.874   1.239   7.066  0.2549 -1.7524 -1.1514
   38CHL1    C7 2749   1.769   1.276   7.260  0.0792  0.0472  0.3282
   38CHL1   H7A 2750   1.837   1.196   7.297 -0.0140 -1.0350 -1.6863
   38CHL1   H7B 2751   1.823   1.367   7.294  0.5554 -0.3322  0.6125
   38CHL1    C8 2752   1.628   1.278   7.315 -0.2552  0.5664  0.7675
   38CHL1    H8 2753   1.587   1.175   7.331  1.2280 -0.0386  0.8179
   38CHL1   C14 2754   1.616   1.341   7.451 -0.2632 -0.0776  0.1308
   38CHL1   H14 2755   1.637   1.449   7.437  0.0745 -0.0648  0.6988
   38CHL1   C15 2756   1.725   1.294   7.549  0.5862 -1.1228  0.4213
   38CHL1  H15A 2757   1.734   1.184   7.544 -1.6198 -1.4202  1.6558
   38CHL1  H15B 2758   1.819   1.346   7.522 -0.1171 -0.5115 -0.9414
   38CHL1   C16 2759   1.666   1.335   7.689 -0.0201 -0.1847 -0.0374
   38CHL1  H16A 2760   1.651   1.240   7.746 -0.7248  0.3143  0.6264
   38CHL1  H16B 2761   1.719   1.411   7.750 -1.0089  1.5363 -1.2523
   38CHL1   C17 2762   1.524   1.402   7.656 -0.5087  0.1927  0.0941
   38CHL1   H17 2763   1.545   1.510   7.641  1.5257 -0.2553 -0.5208
   38CHL1   C13 2764   1.483   1.342   7.520  0.0016  0.0384 -0.0960
   38CHL1   C18 2765   1.428   1.201   7.544  0.7165 -0.4481  0.9709
   38CHL1  H18A 2766   1.412   1.147   7.448  0.2868  0.0785  0.7353
   38CHL1  H18B 2767   1.506   1.151   7.605 -0.3215 -2.6874  0.5394
   38CHL1  H18C 2768   1.335   1.196   7.605  0.4087  1.1194  0.6891
   38CHL1   C12 2769   1.383   1.428   7.435  0.0310  0.1417  0.2794
   38CHL1  H12A 2770   1.279   1.414   7.472 -0.4894  1.5894 -0.5444
   38CHL1  H12B 2771   1.412   1.535   7.429  0.1992  0.0966  0.2845
   38CHL1   C11 2772   1.382   1.368   7.291 -0.3214  0.3022  0.0455
   38CHL1  H11A 2773   1.341   1.265   7.295 -0.2843  0.3267  1.3308
   38CHL1  H11B 2774   1.315   1.421   7.220  2.0751  0.7825 -2.0336
   38CHL1    C9 2775   1.531   1.357   7.222 -0.2623 -0.8588  0.1370
   38CHL1    H9 2776   1.565   1.462   7.217 -1.0128 -0.5967  0.3305
   38CHL1   C10 2777   1.528   1.297   7.076  0.2217  0.0505 -0.1278
   38CHL1   C19 2778   1.438   1.171   7.064  0.3231 -0.0001 -0.1310
   38CHL1  H19A 2779   1.443   1.133   6.959 -1.5978 -1.6981  0.3265
   38CHL1  H19B 2780   1.489   1.097   7.129  1.0863  0.2892 -0.3889
   38CHL1  H19C 2781   1.328   1.166   7.078  0.3001 -3.8996 -0.7404
   38CHL1    C1 2782   1.462   1.418   6.989 -0.0164  0.2390  0.0150
   38CHL1   H1A 2783   1.355   1.422   7.018  0.1438 -0.4157  0.7457
   38CHL1   H1B 2784   1.519   1.510   7.010  1.7705 -0.9600  0.6771
   38CHL1    C2 2785   1.480   1.390   6.842  0.7356 -0.2870  0.7058
   38CHL1   H2A 2786   1.447   1.479   6.784  0.5998 -0.5570  0.3599
   38CHL1   H2B 2787   1.416   1.308   6.803 -0.2420  0.8721 -0.2128
   38CHL1   C20 2788   1.411   1.409   7.761  0.5764  0.2662 -0.3238
   38CHL1   H20 2789   1.345   1.320   7.756  0.0541  0.3221  3.1546
   38CHL1   C21 2790   1.332   1.542   7.736 -0.1790 -0.2114  0.0677
   38CHL1  H21A 2791   1.286   1.551   7.635 -1.3191  0.4352  0.6209
   38CHL1  H21B 2792   1.414   1.614   7.755  0.0204 -0.2260 -0.7092
   38CHL1  H21C 2793   1.249   1.564   7.807 -1.2418 -0.2771 -1.1037
   38CHL1   C22 2794   1.462   1.397   7.903 -0.8723  0.6250  0.2041
   38CHL1  H22A 2795   1.481   1.290   7.924 -0.8508 -0.3207 -3.8074
   38CHL1  H22B 2796   1.555   1.452   7.931 -2.0273  2.0019  1.5112
   38CHL1   C23 2797   1.371   1.439   8.019  0.4008 -0.3842 -0.2096
   38CHL1  H23A 2798   1.365   1.549   8.004  1.9686 -0.3627 -0.9403
   38CHL1  H23B 2799   1.270   1.394   8.012 -0.3630  1.0446  1.0326
   38CHL1   C24 2800   1.438   1.413   8.149  0.3548  0.0415  0.0204
   38CHL1  H24A 2801   1.438   1.304   8.172  0.1116  0.0630  0.1333
   38CHL1  H24B 2802   1.543   1.450   8.146  0.5246 -0.4525 -3.0979
   38CHL1   C25 2803   1.374   1.477   8.274  1.1992 -0.2045 -1.1038
   38CHL1   H25 2804   1.323   1.571   8.243  0.8071 -0.4661 -1.2746
   38CHL1   C26 2805   1.261   1.386   8.324 -0.0136 -0.6586 -0.1176
   38CHL1  H26A 2806   1.175   1.388   8.255 -0.8414  0.0239  0.9017
   38CHL1  H26B 2807   1.304   1.285   8.339  0.1837 -0.9791 -2.5302
   38CHL1  H26C 2808   1.222   1.426   8.420 -2.9670  0.9337 -1.8426
   38CHL1   C27 2809   1.467   1.507   8.385  0.1784  0.5930 -0.1494
   38CHL1  H27A 2810   1.519   1.414   8.417  0.0066  0.3686 -0.5225
   38CHL1  H27B 2811   1.546   1.570   8.338 -0.2296  0.3618 -1.1488
   38CHL1  H27C 2812   1.425   1.553   8.477  0.8033 -0.8863  0.9245
   39CHL1    C3 2813   2.009   0.843   6.878 -0.4195  0.3196  0.4606
   39CHL1    H3 2814   1.951   0.749   6.870  1.0426 -0.6866  1.2294
   39CHL1    O3 2815   2.037   0.884   6.740 -0.5617 -0.4425 -0.5177
   39CHL1   H3' 2816   1.955   0.928   6.715  0.5068  0.3404 -2.9720
   39CHL1    C4 2817   1.940   0.960   6.952 -0.6499  0.1448 -0.4523
   39CHL1   H4A 2818   2.007   1.049   6.943 -1.9036  1.0556 -1.1626
   39CHL1   H4B 2819   1.850   0.987   6.892 -0.8755  2.0309  0.6402
   39CHL1    C5 2820   1.908   0.915   7.096 -0.5960 -0.2397 -0.0323
   39CHL1    C6 2821   1.785   0.922   7.144 -1.0124 -0.3854  0.1685
   39CHL1    H6 2822   1.702   0.943   7.074 -0.4916 -2.9796 -1.3505
   39CHL1    C7 2823   1.741   0.879   7.285 -0.7193 -0.5927 -0.0305
   39CHL1   H7A 2824   1.663   0.943   7.331 -0.6851  0.9038 -1.9595
   39CHL1   H7B 2825   1.691   0.780   7.273 -2.9177  0.2312  1.7065
   39CHL1    C8 2826   1.865   0.873   7.382  0.2512  0.2946 -0.3899
   39CHL1    H8 2827   1.894   0.980   7.399  0.9069  0.0313  0.2324
   39CHL1   C14 2828   1.825   0.799   7.511  0.0658  0.0488  0.4515
   39CHL1   H14 2829   1.785   0.702   7.474  1.3750 -0.1925 -0.4104
   39CHL1   C15 2830   1.725   0.866   7.604 -0.2241  0.0771 -0.2623
   39CHL1  H15A 2831   1.754   0.972   7.616  0.6100 -0.3996  2.7888
   39CHL1  H15B 2832   1.621   0.865   7.563  0.5226  1.6954 -2.3887
   39CHL1   C16 2833   1.746   0.794   7.737  0.2935 -0.2217  0.3735
   39CHL1  H16A 2834   1.766   0.858   7.825  2.0157  1.3879 -1.1073
   39CHL1  H16B 2835   1.651   0.741   7.761  0.1683  0.0212  0.4099
   39CHL1   C17 2836   1.866   0.704   7.722 -0.5877  0.1252  0.4962
   39CHL1   H17 2837   1.820   0.614   7.677 -0.0161  1.3441 -2.8227
   39CHL1   C13 2838   1.949   0.761   7.604  0.1539 -0.3127  0.8598
   39CHL1   C18 2839   2.022   0.887   7.651  0.1339 -0.2371 -0.1415
   39CHL1  H18A 2840   2.056   0.942   7.561  1.7086  0.5830  0.9058
   39CHL1  H18B 2841   1.960   0.961   7.706  0.1568  0.1153 -0.5842
   39CHL1  H18C 2842   2.108   0.864   7.718 -1.2578  0.2020  1.8866
   39CHL1   C12 2843   2.053   0.673   7.524 -0.1957  0.3011 -0.3490
   39CHL1  H12A 2844   2.134   0.645   7.594  3.1000  1.8850 -3.1746
   39CHL1  H12B 2845   1.994   0.584   7.495  2.4212 -1.2060 -1.4232
   39CHL1   C11 2846   2.101   0.749   7.399 -0.5529 -0.8565 -0.3638
   39CHL1  H11A 2847   2.162   0.828   7.448 -1.8884 -0.6740  1.0646
   39CHL1  H11B 2848   2.180   0.689   7.348 -1.4298 -1.6556 -0.8102
   39CHL1    C9 2849   1.980   0.793   7.312 -0.3788  0.2073  0.2348
   39CHL1    H9 2850   1.925   0.702   7.280 -0.5536  0.1802  0.5999
   39CHL1   C10 2851   2.027   0.868   7.184  0.4165  0.3030  0.2656
   39CHL1   C19 2852   2.109   0.994   7.218  0.0622 -0.3208 -0.7346
   39CHL1  H19A 2853   2.189   0.979   7.294 -0.5461  0.9797  0.2019
   39CHL1  H19B 2854   2.156   1.024   7.122  1.0602 -3.7087 -1.4438
   39CHL1  H19C 2855   2.039   1.073   7.254 -1.2019 -0.5854 -2.4744
   39CHL1    C1 2856   2.111   0.764   7.099  0.8786 -0.6077 -0.1645
   39CHL1   H1A 2857   2.213   0.749   7.141  0.6587 -0.3609  0.4625
   39CHL1   H1B 2858   2.054   0.669   7.111 -1.7415  0.8385 -0.4038
   39CHL1    C2 2859   2.142   0.802   6.951 -0.3547  0.4012  1.5122
   39CHL1   H2A 2860   2.192   0.719   6.896 -0.7843  0.6583  0.6992
   39CHL1   H2B 2861   2.212   0.888   6.947 -0.8618  0.7897 -0.3555
   39CHL1   C20 2862   1.934   0.656   7.850  0.1853 -0.7734 -0.1069
   39CHL1   H20 2863   2.026   0.716   7.869 -0.8727  0.1410  2.5626
   39CHL1   C21 2864   1.969   0.511   7.821 -0.1123  0.3801  0.0118
   39CHL1  H21A 2865   2.028   0.470   7.906 -1.5491  0.7810  1.2645
   39CHL1  H21B 2866   2.036   0.506   7.733 -3.1255 -2.7791 -2.3691
   39CHL1  H21C 2867   1.886   0.442   7.793  2.3511 -1.1139 -4.5926
   39CHL1   C22 2868   1.835   0.655   7.976  0.2483 -0.5775 -0.3114
   39CHL1  H22A 2869   1.803   0.752   8.021  0.0547 -0.2014 -1.2344
   39CHL1  H22B 2870   1.746   0.604   7.934  0.6944 -1.5364 -0.1068
   39CHL1   C23 2871   1.884   0.578   8.095 -0.0703 -1.0152 -0.2796
   39CHL1  H23A 2872   1.910   0.471   8.079  2.5489 -0.4502 -0.1360
   39CHL1  H23B 2873   1.965   0.636   8.143  0.1631  0.6711 -2.5369
   39CHL1   C24 2874   1.770   0.580   8.194 -0.5433  0.0045 -0.2089
   39CHL1  H24A 2875   1.725   0.679   8.214 -1.4079 -0.5351  0.6064
   39CHL1  H24B 2876   1.689   0.517   8.151  0.8660 -0.9577 -1.5893
   39CHL1   C25 2877   1.806   0.510   8.323  0.2405  0.4684  0.1099
   39CHL1   H25 2878   1.863   0.418   8.298  0.4257  0.0498  1.9080
   39CHL1   C26 2879   1.892   0.599   8.411 -0.1408 -0.9658 -0.4081
   39CHL1  H26A 2880   1.860   0.705   8.403  2.6410  0.1583  1.5447
   39CHL1  H26B 2881   1.884   0.558   8.514 -1.8852  1.1082  0.3773
   39CHL1  H26C 2882   2.000   0.611   8.384  0.2185  1.4971  1.6692
   39CHL1   C27 2883   1.670   0.488   8.398 -0.2434  0.1874 -0.3834
   39CHL1  H27A 2884   1.621   0.395   8.363 -0.5658 -0.4520  1.6501
   39CHL1  H27B 2885   1.692   0.463   8.504  0.7768 -0.3321 -0.7045
   39CHL1  H27C 2886   1.611   0.582   8.384  1.5882  1.5126  0.3666
   40CHL1    C3 2887   2.808   5.668   6.987  0.0502 -0.7643 -0.9120
   40CHL1    H3 2888   2.721   5.738   6.993  2.3310  2.1759  0.5276
   40CHL1    O3 2889   2.852   5.635   6.855 -0.3100 -0.3863 -0.1840
   40CHL1   H3' 2890   2.909   5.561   6.876 -3.5028 -2.3576  2.4034
   40CHL1    C4 2891   2.933   5.735   7.067  0.1659 -1.2834  0.5271
   40CHL1   H4A 2892   3.012   5.660   7.043 -0.4400 -2.1932  1.3330
   40CHL1   H4B 2893   2.950   5.830   7.012  0.1140 -0.2413  2.2605
   40CHL1    C5 2894   2.909   5.748   7.218 -0.3413  0.1277 -0.0675
   40CHL1    C6 2895   2.924   5.868   7.279  0.8904  0.0788 -0.9912
   40CHL1    H6 2896   2.958   5.959   7.228  0.0196  3.0573  3.1880
   40CHL1    C7 2897   2.894   5.895   7.422 -0.4447  0.1227  0.1029
   40CHL1   H7A 2898   2.975   5.947   7.478  1.0509 -1.7679 -0.1777
   40CHL1   H7B 2899   2.806   5.961   7.432 -1.6516 -1.2005 -1.3975
   40CHL1    C8 2900   2.886   5.756   7.499  0.2044 -0.6142 -0.3955
   40CHL1    H8 2901   2.991   5.719   7.505  0.4145 -0.3997 -2.1271
   40CHL1   C14 2902   2.830   5.790   7.632 -0.1250  0.1417 -0.6317
   40CHL1   H14 2903   2.727   5.828   7.619 -0.8742 -1.5207  0.0520
   40CHL1   C15 2904   2.904   5.895   7.719  0.5762 -0.0295  0.1796
   40CHL1  H15A 2905   3.014   5.880   7.722  0.6438  0.5351  1.0469
   40CHL1  H15B 2906   2.873   6.000   7.699 -0.7737 -0.2354  1.0646
   40CHL1   C16 2907   2.853   5.867   7.857  0.6996  0.4288 -0.1049
   40CHL1  H16A 2908   2.931   5.867   7.936 -0.1293  0.2243  0.7224
   40CHL1  H16B 2909   2.791   5.946   7.904 -0.1189  1.2424 -2.3878
   40CHL1   C17 2910   2.766   5.734   7.856 -0.5147 -0.7708 -0.3269
   40CHL1   H17 2911   2.663   5.768   7.836  0.2141  1.1375 -1.0903
   40CHL1   C13 2912   2.817   5.664   7.728 -0.1583 -0.3609 -0.3262
   40CHL1   C18 2913   2.961   5.606   7.756  0.0017 -0.1000  0.5680
   40CHL1  H18A 2914   3.025   5.684   7.803 -1.5389  0.1700  2.2846
   40CHL1  H18B 2915   2.956   5.510   7.812 -0.7651 -0.2142  0.3158
   40CHL1  H18C 2916   3.003   5.571   7.659 -1.2916  1.1831 -0.5073
   40CHL1   C12 2917   2.728   5.563   7.655 -0.0567 -0.0188  0.0052
   40CHL1  H12A 2918   2.727   5.464   7.705  1.8755 -0.6611 -1.1081
   40CHL1  H12B 2919   2.624   5.599   7.647 -0.4807 -1.4290 -1.2288
   40CHL1   C11 2920   2.764   5.533   7.510 -0.6221 -0.4116 -0.5985
   40CHL1  H11A 2921   2.855   5.469   7.510 -0.8689 -0.9211  2.4856
   40CHL1  H11B 2922   2.676   5.483   7.464 -0.1108 -1.4128 -0.5229
   40CHL1    C9 2923   2.794   5.657   7.428 -0.9258 -0.8505  0.5111
   40CHL1    H9 2924   2.700   5.715   7.423 -0.6607 -0.4353  0.2767
   40CHL1   C10 2925   2.850   5.621   7.281  0.4505  0.5064 -0.8000
   40CHL1   C19 2926   2.963   5.512   7.282  0.1113  0.0739  0.0087
   40CHL1  H19A 2927   2.934   5.419   7.335 -0.1764  0.1782  0.0356
   40CHL1  H19B 2928   2.992   5.465   7.186  1.9076 -1.4713  1.2491
   40CHL1  H19C 2929   3.058   5.547   7.329 -0.1755  0.6710  0.1608
   40CHL1    C1 2930   2.729   5.574   7.199 -0.2097  0.5366  0.4794
   40CHL1   H1A 2931   2.692   5.475   7.235  0.2376  0.8506  1.8500
   40CHL1   H1B 2932   2.649   5.648   7.218 -2.8235 -2.0512  0.2329
   40CHL1    C2 2933   2.756   5.546   7.052  0.3628 -0.9215 -0.1731
   40CHL1   H2A 2934   2.668   5.509   6.995 -0.8502 -1.2196  1.8121
   40CHL1   H2B 2935   2.831   5.464   7.053  0.3548 -0.9381  1.6124
   40CHL1   C20 2936   2.750   5.664   7.994 -0.2078  0.5580  0.0828
   40CHL1   H20 2937   2.853   5.633   8.021  0.0821  0.5769 -0.9647
   40CHL1   C21 2938   2.653   5.541   7.970  0.0902  0.3060 -0.2382
   40CHL1  H21A 2939   2.615   5.498   8.066  0.7866  1.0426  0.3772
   40CHL1  H21B 2940   2.718   5.464   7.923  4.1409  3.6890 -0.7848
   40CHL1  H21C 2941   2.572   5.560   7.897 -0.2217 -0.6739 -0.1667
   40CHL1   C22 2942   2.695   5.758   8.105 -0.0393  0.1576 -0.0036
   40CHL1  H22A 2943   2.761   5.847   8.119  0.7399 -0.4836  0.4750
   40CHL1  H22B 2944   2.598   5.796   8.067  0.0947 -0.2779 -0.8171
   40CHL1   C23 2945   2.677   5.678   8.234 -0.1421 -0.2017 -0.3465
   40CHL1  H23A 2946   2.576   5.631   8.241 -0.7751  1.1245 -0.3813
   40CHL1  H23B 2947   2.755   5.599   8.224  2.1199  1.8370  0.3034
   40CHL1   C24 2948   2.689   5.757   8.371 -0.5168 -0.0924 -0.1426
   40CHL1  H24A 2949   2.683   5.687   8.457  3.6685  0.7550  1.0493
   40CHL1  H24B 2950   2.789   5.805   8.366 -0.2159 -0.8084 -2.0634
   40CHL1   C25 2951   2.589   5.870   8.373 -0.6839 -0.2177  0.5680
   40CHL1   H25 2952   2.584   5.913   8.271 -2.8663 -2.1125 -0.2123
   40CHL1   C26 2953   2.449   5.830   8.398  0.0158 -0.4825 -0.8092
   40CHL1  H26A 2954   2.376   5.913   8.389 -0.2467 -0.3512  1.7117
   40CHL1  H26B 2955   2.408   5.758   8.324  1.3916  0.4126 -2.5146
   40CHL1  H26C 2956   2.439   5.802   8.505 -1.3233  0.3111 -0.7082
   40CHL1   C27 2957   2.639   5.972   8.469 -0.3753  0.3275  0.5277
   40CHL1  H27A 2958   2.616   5.931   8.570 -2.4416 -0.0349 -0.0516
   40CHL1  H27B 2959   2.747   5.997   8.460 -0.1121 -0.8269  0.1867
   40CHL1  H27C 2960   2.573   6.060   8.463 -1.8704 -0.8429 -1.2821
   41CHL1    C3 2961   4.815   5.579   6.883 -0.1032  0.1657  0.0548
   41CHL1    H3 2962   4.777   5.682   6.904  0.6291  0.7667 -1.4059
   41CHL1    O3 2963   4.812   5.578   6.742 -0.1195 -0.0603 -0.2634
   41CHL1   H3' 2964   4.905   5.586   6.719 -0.3930 -0.5833 -1.6539
   41CHL1    C4 2965   4.955   5.546   6.942 -0.0330  0.0768  0.1274
   41CHL1   H4A 2966   4.996   5.447   6.913  0.4371 -0.5508  2.7207
   41CHL1   H4B 2967   5.021   5.622   6.896 -1.8465  2.1233  0.7253
   41CHL1    C5 2968   4.958   5.544   7.089  0.0950 -0.4628 -0.6560
   41CHL1    C6 2969   5.044   5.619   7.158 -0.6272 -0.3810  0.2159
   41CHL1    H6 2970   5.112   5.683   7.101  0.4496  0.6898  2.5400
   41CHL1    C7 2971   5.071   5.618   7.306 -0.8378 -0.1971  0.6242
   41CHL1   H7A 2972   5.174   5.578   7.319 -0.3565  0.1709 -1.6485
   41CHL1   H7B 2973   5.049   5.712   7.361  0.3735 -0.1904  1.1324
   41CHL1    C8 2974   4.991   5.507   7.376 -0.3277 -0.3684  0.2254
   41CHL1    H8 2975   5.051   5.413   7.375  1.3948  0.6488  1.8451
   41CHL1   C14 2976   4.972   5.537   7.526 -0.2439 -0.3518  0.0383
   41CHL1   H14 2977   4.908   5.626   7.509 -1.6221 -1.3120  0.0330
   41CHL1   C15 2978   5.098   5.573   7.596 -0.1972 -0.3644  0.0765
   41CHL1  H15A 2979   5.168   5.487   7.583  0.9301  0.4028  0.8506
   41CHL1  H15B 2980   5.156   5.661   7.563  0.6834 -1.1164 -0.4528
   41CHL1   C16 2981   5.068   5.579   7.742 -0.1164 -0.2068  0.1700
   41CHL1  H16A 2982   5.147   5.522   7.796  0.6108 -0.5396 -1.1720
   41CHL1  H16B 2983   5.063   5.686   7.771  3.4786  0.8069 -2.3226
   41CHL1   C17 2984   4.917   5.512   7.751  0.2818  1.0366 -0.4998
   41CHL1   H17 2985   4.858   5.606   7.738 -1.1802  0.1872 -0.2123
   41CHL1   C13 2986   4.901   5.438   7.620  0.5321  0.1023  0.0311
   41CHL1   C18 2987   4.976   5.310   7.637  0.4318  0.3838  1.0042
   41CHL1  H18A 2988   5.069   5.318   7.698  1.7954  2.3153 -1.1175
   41CHL1  H18B 2989   4.908   5.235   7.681 -1.4182  0.0656 -2.0961
   41CHL1  H18C 2990   4.997   5.269   7.536 -1.7917  2.1930 -0.2931
   41CHL1   C12 2991   4.756   5.417   7.551  0.0665  0.4754  0.2436
   41CHL1  H12A 2992   4.703   5.346   7.619  2.8255 -1.6205  0.4007
   41CHL1  H12B 2993   4.712   5.519   7.546  1.7096  1.2214  0.4294
   41CHL1   C11 2994   4.770   5.370   7.400 -0.0982  0.1650 -0.4771
   41CHL1  H11A 2995   4.814   5.268   7.400  1.9062  0.9639 -1.4104
   41CHL1  H11B 2996   4.670   5.364   7.352  0.7206 -1.0763 -2.1142
   41CHL1    C9 2997   4.854   5.475   7.313  0.4459  0.0539 -0.4692
   41CHL1    H9 2998   4.791   5.566   7.321 -0.1873 -0.2531 -1.7381
   41CHL1   C10 2999   4.865   5.445   7.165  0.4694  0.6287 -0.1557
   41CHL1   C19 3000   4.917   5.301   7.143  0.7419 -0.2580  0.0743
   41CHL1  H19A 3001   4.899   5.267   7.039  0.0811 -1.2926  0.5062
   41CHL1  H19B 3002   5.025   5.290   7.168  1.3228  1.3656 -1.5203
   41CHL1  H19C 3003   4.870   5.229   7.215  0.0171  2.3364  2.3665
   41CHL1    C1 3004   4.726   5.469   7.098  0.5130 -0.6846 -0.0097
   41CHL1   H1A 3005   4.658   5.392   7.139  0.9342 -0.7566  0.5735
   41CHL1   H1B 3006   4.703   5.575   7.122  2.2376 -0.3101  0.1667
   41CHL1    C2 3007   4.721   5.468   6.938  0.4030 -0.0754 -0.8646
   41CHL1   H2A 3008   4.615   5.481   6.908  0.5270  1.8247 -0.6186
   41CHL1   H2B 3009   4.775   5.378   6.902  2.5565  1.3802 -1.5086
   41CHL1   C20 3010   4.873   5.456   7.883  0.7868  0.3832 -0.0410
   41CHL1   H20 3011   4.935   5.366   7.898  0.6929  0.2279 -0.5591
   41CHL1   C21 3012   4.724   5.401   7.870  0.5299 -0.7482 -0.3782
   41CHL1  H21A 3013   4.652   5.477   7.833  0.3128  0.5024  2.3761
   41CHL1  H21B 3014   4.678   5.373   7.966  0.3392  2.2606  0.5284
   41CHL1  H21C 3015   4.723   5.307   7.810 -0.0125 -3.8518  4.0615
   41CHL1   C22 3016   4.891   5.568   7.983 -0.0800  0.2935 -0.6070
   41CHL1  H22A 3017   4.990   5.619   7.979  1.2835 -2.0678  0.4411
   41CHL1  H22B 3018   4.815   5.646   7.964 -2.2421 -0.9057  2.3666
   41CHL1   C23 3019   4.880   5.517   8.124 -0.2277  0.3554 -0.4938
   41CHL1  H23A 3020   4.777   5.482   8.145  0.3251 -1.3129 -0.3899
   41CHL1  H23B 3021   4.942   5.426   8.141  0.5746  1.2644  1.9777
   41CHL1   C24 3022   4.914   5.633   8.223 -0.5385 -0.0851  0.6264
   41CHL1  H24A 3023   5.023   5.654   8.228 -0.3916  0.0444 -1.7899
   41CHL1  H24B 3024   4.867   5.729   8.193  1.4229  0.7946  0.2015
   41CHL1   C25 3025   4.873   5.601   8.369 -0.3311 -0.1482 -0.3863
   41CHL1   H25 3026   4.923   5.508   8.403  2.6103  1.9656  1.4926
   41CHL1   C26 3027   4.939   5.701   8.466  0.7888 -0.2857  0.0441
   41CHL1  H26A 3028   5.050   5.695   8.462  0.7794  0.1927 -1.3164
   41CHL1  H26B 3029   4.896   5.800   8.443  0.1250  0.0085  2.3166
   41CHL1  H26C 3030   4.903   5.668   8.566 -2.4596  0.9632 -0.5951
   41CHL1   C27 3031   4.724   5.597   8.389  0.7813 -0.1368  0.1885
   41CHL1  H27A 3032   4.688   5.503   8.341 -1.0744  0.6226 -0.0095
   41CHL1  H27B 3033   4.699   5.601   8.497 -0.8486 -0.2487 -0.1578
   41CHL1  H27C 3034   4.682   5.690   8.345 -0.6027  0.0659  1.8109
   42CHL1    C3 3035   6.414   3.105   7.146  0.2987 -1.0722 -0.5532
   42CHL1    H3 3036   6.484   3.166   7.207  1.0610  0.2069 -2.6115
   42CHL1    O3 3037   6.395   3.179   7.023  0.0904 -0.7877  0.4784
   42CHL1   H3' 3038   6.326   3.140   6.968 -0.0355  0.7604 -0.5468
   42CHL1    C4 3039   6.490   2.973   7.116  0.7019  0.0163  0.1692
   42CHL1   H4A 3040   6.428   2.912   7.047  1.8431 -1.3718  0.3390
   42CHL1   H4B 3041   6.578   3.003   7.056  0.9363  2.8763  1.7400
   42CHL1    C5 3042   6.523   2.883   7.231  0.5629 -0.5347 -0.3033
   42CHL1    C6 3043   6.645   2.845   7.264  0.3224 -0.7464 -0.2331
   42CHL1    H6 3044   6.733   2.877   7.206  0.3209 -2.9153 -1.5409
   42CHL1    C7 3045   6.679   2.764   7.384  0.8004 -0.1994 -0.3537
   42CHL1   H7A 3046   6.764   2.695   7.363 -0.1625 -1.9317  1.1681
   42CHL1   H7B 3047   6.713   2.823   7.472  0.0215 -2.8665  1.8813
   42CHL1    C8 3048   6.552   2.684   7.431  0.5330 -0.4726 -0.4440
   42CHL1    H8 3049   6.525   2.608   7.354  0.4029  0.9867 -1.9104
   42CHL1   C14 3050   6.588   2.616   7.562 -0.2161  0.0168  0.5289
   42CHL1   H14 3051   6.606   2.700   7.634  0.3769  0.5911 -0.2704
   42CHL1   C15 3052   6.719   2.531   7.559 -0.8112 -0.9626  0.2924
   42CHL1  H15A 3053   6.721   2.468   7.468  0.7926 -1.3334  0.5548
   42CHL1  H15B 3054   6.805   2.599   7.576 -1.0424 -1.1286  2.4338
   42CHL1   C16 3055   6.697   2.452   7.694 -0.8442 -0.2237  0.3987
   42CHL1  H16A 3056   6.686   2.343   7.674  1.6704 -0.6354  0.9792
   42CHL1  H16B 3057   6.770   2.473   7.775 -0.3292 -4.6518  1.3597
   42CHL1   C17 3058   6.558   2.487   7.747  0.8319  0.3896 -0.4797
   42CHL1   H17 3059   6.583   2.565   7.822  1.4919 -0.7783  0.5556
   42CHL1   C13 3060   6.482   2.536   7.628  0.5757  0.2157 -0.3354
   42CHL1   C18 3061   6.440   2.419   7.539 -0.5144  0.8110  0.0485
   42CHL1  H18A 3062   6.524   2.351   7.514 -2.2552 -1.2732 -0.4483
   42CHL1  H18B 3063   6.358   2.362   7.588  0.3888 -1.7266 -1.2207
   42CHL1  H18C 3064   6.394   2.440   7.440  0.5384 -1.5417 -1.0051
   42CHL1   C12 3065   6.367   2.637   7.652 -0.1345  0.5287  0.7355
   42CHL1  H12A 3066   6.281   2.601   7.712 -1.2225  2.1161  0.2016
   42CHL1  H12B 3067   6.416   2.700   7.730  2.0567 -0.7952  0.5089
   42CHL1   C11 3068   6.323   2.709   7.523 -0.1503  0.5596  0.2102
   42CHL1  H11A 3069   6.277   2.631   7.459 -0.6660 -0.5801  1.8957
   42CHL1  H11B 3070   6.240   2.777   7.550  2.0578  2.3004  3.1244
   42CHL1    C9 3071   6.434   2.785   7.447 -0.6129 -0.2461 -0.3106
   42CHL1    H9 3072   6.457   2.870   7.515 -1.7842  0.2989 -0.5682
   42CHL1   C10 3073   6.390   2.857   7.314 -0.1307  0.3575 -0.2942
   42CHL1   C19 3074   6.312   2.752   7.233 -0.0698  0.1387  0.0039
   42CHL1  H19A 3075   6.374   2.660   7.228  0.0517  0.2208 -0.0418
   42CHL1  H19B 3076   6.218   2.726   7.285  0.6386  1.0651  1.8365
   42CHL1  H19C 3077   6.285   2.789   7.131  0.3240 -0.5926 -0.3765
   42CHL1    C1 3078   6.304   2.981   7.334  0.1202  0.1437  0.7760
   42CHL1   H1A 3079   6.199   2.976   7.369  0.3236  2.6865  2.0056
   42CHL1   H1B 3080   6.357   3.044   7.409  3.5828 -0.3785 -0.9982
   42CHL1    C2 3081   6.278   3.075   7.213  0.5057  0.1189 -0.1186
   42CHL1   H2A 3082   6.224   3.163   7.253 -2.5070 -1.0613 -1.2876
   42CHL1   H2B 3083   6.220   3.031   7.129  2.2036  4.1648 -3.8039
   42CHL1   C20 3084   6.492   2.371   7.837 -0.0243 -0.9601  0.1667
   42CHL1   H20 3085   6.489   2.273   7.783 -1.0998 -1.2445  0.7164
   42CHL1   C21 3086   6.346   2.404   7.885  0.0243  0.0297  1.0495
   42CHL1  H21A 3087   6.336   2.508   7.925  2.0367  1.1212 -1.0033
   42CHL1  H21B 3088   6.298   2.333   7.954 -0.3681 -0.5462  0.2007
   42CHL1  H21C 3089   6.282   2.403   7.795 -1.4031 -2.4510  2.0152
   42CHL1   C22 3090   6.589   2.350   7.963  0.1305 -0.4908  0.5305
   42CHL1  H22A 3091   6.696   2.352   7.934 -0.0603 -0.9485 -0.2527
   42CHL1  H22B 3092   6.575   2.436   8.032  1.7569  0.4206 -0.2168
   42CHL1   C23 3093   6.559   2.214   8.027  0.0070  0.7979 -0.6904
   42CHL1  H23A 3094   6.450   2.201   8.046 -0.2941 -1.5541 -3.4461
   42CHL1  H23B 3095   6.589   2.134   7.957  1.1124  0.6256 -0.0486
   42CHL1   C24 3096   6.637   2.203   8.160  0.6523  0.0674  0.4719
   42CHL1  H24A 3097   6.746   2.195   8.140  0.7118 -1.0353  1.1527
   42CHL1  H24B 3098   6.608   2.297   8.212  0.5687  1.0483 -1.2664
   42CHL1   C25 3099   6.596   2.072   8.242 -0.0457 -0.2119 -1.0438
   42CHL1   H25 3100   6.485   2.073   8.235 -0.0896  0.4489 -0.3851
   42CHL1   C26 3101   6.654   1.949   8.169  0.1540 -0.0643  0.3943
   42CHL1  H26A 3102   6.640   1.852   8.221  2.2503  0.7958  2.7164
   42CHL1  H26B 3103   6.601   1.944   8.071 -0.6626  0.5671  0.7894
   42CHL1  H26C 3104   6.764   1.955   8.155  0.4395  0.3408  2.5200
   42CHL1   C27 3105   6.641   2.070   8.389  0.9684  0.1260  0.1938
   42CHL1  H27A 3106   6.625   1.967   8.428  1.4584 -0.2071 -0.4624
   42CHL1  H27B 3107   6.587   2.151   8.442 -0.1245  0.9720 -2.0705
   42CHL1  H27C 3108   6.750   2.090   8.396  0.8509  2.8260 -3.1476
   43CHL1    C3 3109   5.496   6.374   7.069 -1.0876  0.2387  0.6521
   43CHL1    H3 3110   5.586   6.314   7.092 -0.1532  1.9165  1.5987
   43CHL1    O3 3111   5.484   6.376   6.924 -0.5089  0.2780  0.3456
   43CHL1   H3' 3112   5.396   6.412   6.910 -1.7895 -1.5610  2.7437
   43CHL1    C4 3113   5.363   6.325   7.130  0.5250 -0.3251  0.0072
   43CHL1   H4A 3114   5.283   6.384   7.081  1.0147  0.9856  0.7336
   43CHL1   H4B 3115   5.357   6.217   7.105  1.4151 -0.1671 -0.9410
   43CHL1    C5 3116   5.350   6.340   7.281 -0.3718 -0.0565  0.4919
   43CHL1    C6 3117   5.330   6.228   7.355  0.0860 -0.2449  0.4003
   43CHL1    H6 3118   5.314   6.131   7.305 -2.6358  1.5360 -2.5264
   43CHL1    C7 3119   5.335   6.228   7.508  0.6060 -0.1390 -0.3818
   43CHL1   H7A 3120   5.239   6.188   7.545  1.3260  0.2038  2.0312
   43CHL1   H7B 3121   5.418   6.163   7.544 -0.4707 -2.5198 -1.9492
   43CHL1    C8 3122   5.334   6.374   7.558 -0.0347  0.6314 -0.7132
   43CHL1    H8 3123   5.235   6.420   7.538 -0.3742 -0.1868 -0.9521
   43CHL1   C14 3124   5.357   6.373   7.710 -0.7896 -0.0947 -0.1291
   43CHL1   H14 3125   5.458   6.329   7.727 -0.3578  1.4940  1.8016
   43CHL1   C15 3126   5.268   6.286   7.802  0.4870 -0.5313  0.2361
   43CHL1  H15A 3127   5.162   6.305   7.774  0.7374 -1.0954 -1.1848
   43CHL1  H15B 3128   5.302   6.184   7.776 -2.3821 -0.8548 -2.9748
   43CHL1   C16 3129   5.298   6.331   7.947  0.3465 -0.3354 -0.0338
   43CHL1  H16A 3130   5.203   6.371   7.988 -0.6543 -3.2143  0.6858
   43CHL1  H16B 3131   5.332   6.250   8.016  0.8683  0.4384  0.6419
   43CHL1   C17 3132   5.396   6.452   7.931  0.5859  0.1478 -0.0384
   43CHL1   H17 3133   5.494   6.400   7.923  1.4016  1.5826  0.2879
   43CHL1   C13 3134   5.370   6.507   7.781 -0.0170 -0.0198  0.4239
   43CHL1   C18 3135   5.231   6.580   7.784 -0.0461  0.1828 -0.6062
   43CHL1  H18A 3136   5.152   6.514   7.826 -0.0437  0.5797  0.0438
   43CHL1  H18B 3137   5.240   6.664   7.856 -0.9714 -1.1453  1.1582
   43CHL1  H18C 3138   5.206   6.620   7.684 -2.0034 -0.4020 -0.4025
   43CHL1   C12 3139   5.482   6.585   7.710  0.2045  0.7008  0.8185
   43CHL1  H12A 3140   5.469   6.683   7.760 -1.4900  1.3661 -0.7879
   43CHL1  H12B 3141   5.577   6.538   7.741 -0.9774 -1.3237  1.6076
   43CHL1   C11 3142   5.465   6.602   7.557  0.5344  0.1491 -0.2245
   43CHL1  H11A 3143   5.381   6.671   7.532  2.7227  2.5908 -1.3295
   43CHL1  H11B 3144   5.551   6.658   7.515  1.0483 -0.7029 -0.3321
   43CHL1    C9 3145   5.437   6.465   7.486 -0.5845 -0.2332 -0.7891
   43CHL1    H9 3146   5.533   6.409   7.495 -0.4744  0.1673  0.6551
   43CHL1   C10 3147   5.401   6.474   7.336  0.2422 -0.9928 -0.1719
   43CHL1   C19 3148   5.286   6.578   7.322 -0.5764  0.2492  0.4087
   43CHL1  H19A 3149   5.318   6.684   7.334 -1.1610  0.2856  1.9895
   43CHL1  H19B 3150   5.243   6.582   7.220  0.6557 -0.1430 -0.1455
   43CHL1  H19C 3151   5.211   6.578   7.405 -2.3187  0.9418 -1.0978
   43CHL1    C1 3152   5.524   6.531   7.263 -0.3893  0.7240 -0.2952
   43CHL1   H1A 3153   5.538   6.641   7.276 -1.8377  1.1660 -1.9913
   43CHL1   H1B 3154   5.617   6.480   7.295 -0.5558 -0.7275 -1.9823
   43CHL1    C2 3155   5.530   6.515   7.109 -0.7857  0.5731  0.0109
   43CHL1   H2A 3156   5.624   6.545   7.057 -0.1863 -1.1920  0.0210
   43CHL1   H2B 3157   5.455   6.594   7.083  0.2150  1.2729 -0.8373
   43CHL1   C20 3158   5.415   6.544   8.049  0.3216  0.4757 -0.8658
   43CHL1   H20 3159   5.325   6.609   8.056 -1.2869 -1.7251  0.3779
   43CHL1   C21 3160   5.544   6.639   8.027  0.7738 -0.1147 -0.2612
   43CHL1  H21A 3161   5.629   6.575   7.997  1.1271  0.8353 -1.3858
   43CHL1  H21B 3162   5.573   6.689   8.121 -1.0409  1.0525 -0.2542
   43CHL1  H21C 3163   5.526   6.714   7.947  2.8711 -0.0517 -0.7239
   43CHL1   C22 3164   5.424   6.473   8.194 -0.0804  0.2621  0.4345
   43CHL1  H22A 3165   5.382   6.370   8.192  0.8747 -0.1338 -0.1377
   43CHL1  H22B 3166   5.534   6.458   8.206  0.1098  1.5425  0.3650
   43CHL1   C23 3167   5.355   6.544   8.309  0.2913  0.8217 -0.8847
   43CHL1  H23A 3168   5.398   6.647   8.307 -0.5917  1.1920 -1.3612
   43CHL1  H23B 3169   5.246   6.548   8.289  0.1429  0.9862 -0.0827
   43CHL1   C24 3170   5.382   6.475   8.447 -0.2654  0.2878 -0.3412
   43CHL1  H24A 3171   5.337   6.373   8.450  0.2673  0.0525  2.3560
   43CHL1  H24B 3172   5.490   6.457   8.462 -0.1306  0.6335 -0.8860
   43CHL1   C25 3173   5.320   6.549   8.564 -0.7385  0.8193 -0.2383
   43CHL1   H25 3174   5.282   6.636   8.507  0.5289  0.7061 -1.3091
   43CHL1   C26 3175   5.195   6.471   8.626 -0.9638  0.3781 -0.3539
   43CHL1  H26A 3176   5.123   6.449   8.545 -0.2018 -0.7918 -0.7438
   43CHL1  H26B 3177   5.230   6.386   8.689  1.8168  1.9465  0.3934
   43CHL1  H26C 3178   5.150   6.540   8.700  1.3248  1.1280  0.4482
   43CHL1   C27 3179   5.420   6.580   8.670 -0.1542  0.3153  0.4202
   43CHL1  H27A 3180   5.495   6.646   8.623  0.6663 -1.9450 -1.6897
   43CHL1  H27B 3181   5.381   6.633   8.760 -0.5553 -1.0204  1.0565
   43CHL1  H27C 3182   5.479   6.488   8.687 -1.3472 -0.3200  1.3094
   44CHL1    C3 3183   4.798   4.604   6.862  0.5268 -0.0358  0.1062
   44CHL1    H3 3184   4.866   4.691   6.863 -0.2956  0.6411 -1.0401
   44CHL1    O3 3185   4.742   4.574   6.732  0.0575 -0.1031 -0.5424
   44CHL1   H3' 3186   4.811   4.551   6.669  0.1913  0.3485 -0.5587
   44CHL1    C4 3187   4.877   4.488   6.909 -0.3319 -0.4279 -0.3719
   44CHL1   H4A 3188   4.825   4.395   6.876  0.5294 -0.3558 -2.0197
   44CHL1   H4B 3189   4.972   4.491   6.852  0.9061  1.8206  1.6550
   44CHL1    C5 3190   4.904   4.496   7.070 -0.2368  0.4103  0.0010
   44CHL1    C6 3191   5.017   4.471   7.129 -0.6836 -0.2986  0.7712
   44CHL1    H6 3192   5.097   4.439   7.061 -1.7741 -0.9010 -0.2682
   44CHL1    C7 3193   5.043   4.468   7.279 -0.3256  0.1180  0.3592
   44CHL1   H7A 3194   5.114   4.384   7.290 -1.9168 -1.5857 -1.5547
   44CHL1   H7B 3195   5.111   4.553   7.304  0.5218  0.2783 -2.2151
   44CHL1    C8 3196   4.918   4.461   7.362  0.3659 -0.5179  0.3014
   44CHL1    H8 3197   4.875   4.360   7.347 -2.3877  0.6431 -0.1079
   44CHL1   C14 3198   4.938   4.495   7.512 -0.6500 -0.4567  0.5286
   44CHL1   H14 3199   4.983   4.597   7.511 -0.6384 -0.4259 -1.7288
   44CHL1   C15 3200   5.048   4.414   7.581  0.2486 -0.2809 -0.0271
   44CHL1  H15A 3201   5.040   4.304   7.594  2.4773 -0.2746  2.2350
   44CHL1  H15B 3202   5.155   4.433   7.560  0.0341  0.0334 -0.8767
   44CHL1   C16 3203   5.038   4.460   7.732 -0.1227 -0.2908  0.3654
   44CHL1  H16A 3204   5.059   4.373   7.798 -1.5062 -0.7892  0.1848
   44CHL1  H16B 3205   5.117   4.535   7.752  0.3529 -0.8992  0.8179
   44CHL1   C17 3206   4.897   4.534   7.738 -0.2498 -0.5584  0.3873
   44CHL1   H17 3207   4.915   4.644   7.731 -0.3986 -0.5617 -0.0873
   44CHL1   C13 3208   4.816   4.495   7.611  0.2587 -0.7654  0.3633
   44CHL1   C18 3209   4.750   4.353   7.618  0.2788 -0.0352 -0.0433
   44CHL1  H18A 3210   4.719   4.315   7.518 -2.8464  1.7637  0.1064
   44CHL1  H18B 3211   4.811   4.277   7.671 -1.7680 -1.0233  0.9807
   44CHL1  H18C 3212   4.655   4.368   7.672  0.3644 -0.8007  0.3264
   44CHL1   C12 3213   4.711   4.593   7.553 -0.2458 -0.3686 -0.1998
   44CHL1  H12A 3214   4.612   4.588   7.603  0.0503  0.1312  0.4508
   44CHL1  H12B 3215   4.753   4.693   7.577  3.0422 -2.1363  2.2492
   44CHL1   C11 3216   4.686   4.571   7.405 -0.8680 -0.0607  0.5892
   44CHL1  H11A 3217   4.632   4.474   7.397  1.7587 -1.9555  3.4451
   44CHL1  H11B 3218   4.618   4.652   7.369 -0.6446 -0.4488 -0.7705
   44CHL1    C9 3219   4.815   4.561   7.311 -0.4484 -0.3228 -0.5594
   44CHL1    H9 3220   4.857   4.664   7.308 -3.0547  0.8683  0.5075
   44CHL1   C10 3221   4.782   4.534   7.166 -0.1556  0.6659 -0.4829
   44CHL1   C19 3222   4.690   4.404   7.157  0.3164 -0.1513  0.7061
   44CHL1  H19A 3223   4.589   4.431   7.195  0.3457  0.4195  0.3901
   44CHL1  H19B 3224   4.666   4.359   7.059 -1.4822  1.4932  0.3179
   44CHL1  H19C 3225   4.728   4.325   7.225  0.0080 -1.5454 -0.7112
   44CHL1    C1 3226   4.717   4.656   7.095 -0.5222  0.4921 -0.7030
   44CHL1   H1A 3227   4.620   4.684   7.143  0.4469  0.3493  1.4404
   44CHL1   H1B 3228   4.779   4.746   7.115 -2.0773  1.4896 -0.2100
   44CHL1    C2 3229   4.680   4.628   6.947  0.0137 -0.3294  0.5056
   44CHL1   H2A 3230   4.631   4.723   6.915 -2.0748  0.2517  4.7082
   44CHL1   H2B 3231   4.603   4.549   6.931 -0.2551  0.1561 -0.6945
   44CHL1   C20 3232   4.817   4.505   7.871 -0.6468 -0.0902  0.0082
   44CHL1   H20 3233   4.798   4.398   7.893 -0.2746 -0.1058  0.2631
   44CHL1   C21 3234   4.689   4.592   7.874 -0.9647 -0.1158  0.3635
   44CHL1  H21A 3235   4.720   4.696   7.849  2.4258 -1.0714  0.0415
   44CHL1  H21B 3236   4.645   4.593   7.976  0.5456  0.8481  1.0293
   44CHL1  H21C 3237   4.610   4.566   7.800  1.9723 -3.6123 -1.8754
   44CHL1   C22 3238   4.907   4.540   7.987 -0.7167  0.1544  0.8313
   44CHL1  H22A 3239   4.993   4.470   7.984 -0.9417 -0.1287  0.9687
   44CHL1  H22B 3240   4.939   4.643   7.962  0.2731 -0.3530 -0.0344
   44CHL1   C23 3241   4.850   4.534   8.126 -0.1626 -1.3687  0.5970
   44CHL1  H23A 3242   4.931   4.565   8.194 -0.6055  0.0333  0.5244
   44CHL1  H23B 3243   4.767   4.607   8.140 -0.6659 -1.6031 -0.9603
   44CHL1   C24 3244   4.815   4.391   8.171  0.2312  0.1774  0.4100
   44CHL1  H24A 3245   4.741   4.393   8.254  0.9244 -2.3937  1.1907
   44CHL1  H24B 3246   4.754   4.350   8.088 -0.4114  1.9291 -0.0330
   44CHL1   C25 3247   4.933   4.299   8.207  1.0194  0.4439  0.0325
   44CHL1   H25 3248   5.016   4.317   8.135  0.9494 -1.7525 -0.6821
   44CHL1   C26 3249   4.977   4.325   8.353  0.0485  0.0966  0.0229
   44CHL1  H26A 3250   5.016   4.429   8.356 -1.1057  0.6031 -1.3858
   44CHL1  H26B 3251   4.890   4.317   8.421 -0.3513  2.1947 -0.1822
   44CHL1  H26C 3252   5.059   4.255   8.382  0.1349 -0.4962 -1.5545
   44CHL1   C27 3253   4.883   4.152   8.187 -0.5506  0.0678 -0.6448
   44CHL1  H27A 3254   4.885   4.137   8.076 -0.7684  2.0646 -0.9452
   44CHL1  H27B 3255   4.961   4.089   8.235  2.6136  2.6102 -2.0279
   44CHL1  H27C 3256   4.778   4.137   8.220 -0.0996 -0.5270  0.5521
   45CHL1    C3 3257   6.752   4.065   6.835  0.1631 -0.2362 -0.2605
   45CHL1    H3 3258   6.689   4.152   6.861  1.3465  1.1330 -1.7843
   45CHL1    O3 3259   6.747   4.054   6.697  0.2153 -0.4710  0.4863
   45CHL1   H3' 3260   6.838   4.046   6.666 -0.3805 -1.8556 -1.0330
   45CHL1    C4 3261   6.895   4.097   6.885 -0.1991  0.7009 -0.4154
   45CHL1   H4A 3262   6.967   4.021   6.847 -1.3079 -0.0929 -0.9820
   45CHL1   H4B 3263   6.941   4.191   6.847  1.1228 -0.1036 -0.8951
   45CHL1    C5 3264   6.905   4.108   7.039  0.7992  0.3127  0.3857
   45CHL1    C6 3265   6.950   4.223   7.092  0.1189  0.4746  0.8274
   45CHL1    H6 3266   7.001   4.289   7.020  1.3345 -0.2037  1.0296
   45CHL1    C7 3267   6.958   4.246   7.240  0.5769  0.8206 -0.7742
   45CHL1   H7A 3268   7.061   4.279   7.268 -0.0269  1.7520  0.4393
   45CHL1   H7B 3269   6.879   4.317   7.273  0.6540  0.7501 -0.4389
   45CHL1    C8 3270   6.929   4.117   7.333  0.2552 -0.0653  0.8816
   45CHL1    H8 3271   7.020   4.055   7.315  0.2468  0.3155 -0.6251
   45CHL1   C14 3272   6.903   4.150   7.474 -0.1580  1.4499 -0.3498
   45CHL1   H14 3273   6.804   4.200   7.477  0.2292  2.2341 -0.5529
   45CHL1   C15 3274   7.000   4.253   7.539 -0.7028  0.0618 -0.2319
   45CHL1  H15A 3275   7.099   4.225   7.497 -1.7332 -2.0873 -1.3825
   45CHL1  H15B 3276   6.979   4.358   7.508  2.6247  0.7601 -0.4892
   45CHL1   C16 3277   6.980   4.234   7.689  0.5388  0.3560 -0.2284
   45CHL1  H16A 3278   7.077   4.199   7.731  0.1747  0.7072  0.9202
   45CHL1  H16B 3279   6.946   4.324   7.743  1.9396 -0.8280  2.8228
   45CHL1   C17 3280   6.877   4.120   7.700  0.3960  0.5178 -0.0215
   45CHL1   H17 3281   6.779   4.173   7.696 -0.5421 -1.0747  0.7162
   45CHL1   C13 3282   6.893   4.039   7.565 -0.0578 -0.5169 -0.3769
   45CHL1   C18 3283   7.021   3.958   7.565  0.3947 -0.0054 -0.9142
   45CHL1  H18A 3284   7.058   3.945   7.461  1.9466  1.7516 -0.6491
   45CHL1  H18B 3285   7.102   4.002   7.628 -1.2911  1.4258  0.3489
   45CHL1  H18C 3286   6.999   3.853   7.593  1.8512  0.0358  0.5727
   45CHL1   C12 3287   6.779   3.946   7.517  0.5796 -0.4715  0.5444
   45CHL1  H12A 3288   6.752   3.858   7.580  0.5609 -1.7023 -1.1130
   45CHL1  H12B 3289   6.689   4.012   7.516  1.5692  0.9150 -1.4767
   45CHL1   C11 3290   6.793   3.906   7.361 -0.5438  0.2831  1.0882
   45CHL1  H11A 3291   6.877   3.833   7.353 -1.3078 -0.7053  1.7853
   45CHL1  H11B 3292   6.706   3.845   7.329  0.1470 -0.3703  0.4230
   45CHL1    C9 3293   6.813   4.035   7.269 -0.9776 -0.6042 -0.3571
   45CHL1    H9 3294   6.719   4.093   7.280 -0.6882 -0.5046  2.1677
   45CHL1   C10 3295   6.834   3.998   7.121 -1.1573 -0.2571  0.5610
   45CHL1   C19 3296   6.923   3.872   7.107  0.1076  0.0830  0.3311
   45CHL1  H19A 3297   6.950   3.843   7.002  1.4477 -4.0113  1.5876
   45CHL1  H19B 3298   7.025   3.905   7.136 -0.1476  2.5060 -1.2025
   45CHL1  H19C 3299   6.882   3.781   7.155 -1.2182  0.0972 -0.7166
   45CHL1    C1 3300   6.696   3.963   7.057  0.5372  0.1099  0.2302
   45CHL1   H1A 3301   6.663   3.872   7.113  1.4984  1.5876  3.4459
   45CHL1   H1B 3302   6.633   4.052   7.073 -1.4665 -1.2228  0.0876
   45CHL1    C2 3303   6.699   3.943   6.902 -0.2296  0.5356 -0.5662
   45CHL1   H2A 3304   6.600   3.911   6.861 -0.7392  1.4015 -0.0405
   45CHL1   H2B 3305   6.775   3.868   6.872  0.8256  0.1075  2.7136
   45CHL1   C20 3306   6.883   4.040   7.828  0.1046 -0.4545  0.1843
   45CHL1   H20 3307   6.970   3.970   7.835 -0.2311 -1.0649 -1.3573
   45CHL1   C21 3308   6.752   3.948   7.834  0.0107 -0.7645 -0.1510
   45CHL1  H21A 3309   6.677   3.973   7.756 -0.2026 -0.0558  0.2784
   45CHL1  H21B 3310   6.705   3.953   7.935 -1.5702 -0.1432 -0.8831
   45CHL1  H21C 3311   6.783   3.844   7.808 -0.7257 -0.8724 -0.6259
   45CHL1   C22 3312   6.886   4.132   7.959 -0.1039  0.6269  0.5579
   45CHL1  H22A 3313   6.948   4.221   7.937 -0.6774  0.8463 -0.1883
   45CHL1  H22B 3314   6.780   4.157   7.977 -1.0952 -1.3297 -1.9755
   45CHL1   C23 3315   6.948   4.070   8.083 -0.5686  0.3983 -0.6232
   45CHL1  H23A 3316   6.900   3.976   8.119  3.8666 -2.8983 -2.2594
   45CHL1  H23B 3317   7.052   4.042   8.054 -0.6492 -0.0707 -0.4792
   45CHL1   C24 3318   6.965   4.181   8.191  0.3180  0.2140  0.6960
   45CHL1  H24A 3319   6.970   4.282   8.146 -1.8917 -0.1565 -0.5313
   45CHL1  H24B 3320   6.868   4.195   8.245  0.3801  3.5253  0.1598
   45CHL1   C25 3321   7.074   4.146   8.294  0.3339 -0.0565 -0.8020
   45CHL1   H25 3322   7.176   4.128   8.253  1.0656  0.7426  0.6019
   45CHL1   C26 3323   7.091   4.271   8.389 -0.6043  0.6147  0.6630
   45CHL1  H26A 3324   7.132   4.353   8.327 -0.4614 -0.8912 -1.3553
   45CHL1  H26B 3325   6.992   4.302   8.429 -1.5086 -0.2208 -0.8473
   45CHL1  H26C 3326   7.174   4.251   8.461  0.7677 -0.8807 -1.2204
   45CHL1   C27 3327   7.035   4.017   8.374 -0.2863  0.5350 -0.5292
   45CHL1  H27A 3328   7.041   4.044   8.482  1.4038  1.2286 -0.7667
   45CHL1  H27B 3329   6.934   3.976   8.352  0.5466 -2.2434  0.3274
   45CHL1  H27C 3330   7.108   3.935   8.357  1.5485  2.2076 -1.1215
   46CHL1    C3 3331   6.014   4.492   7.071 -0.0653  0.0329 -0.1620
   46CHL1    H3 3332   5.987   4.599   7.081  0.4368  0.0564  1.1510
   46CHL1    O3 3333   6.028   4.462   6.934 -0.2541 -0.0468  0.0784
   46CHL1   H3' 3334   6.109   4.409   6.929 -1.4224 -1.9626  0.5305
   46CHL1    C4 3335   6.148   4.467   7.147 -0.4667 -0.1277  0.0981
   46CHL1   H4A 3336   6.178   4.361   7.139  0.3027  0.2244 -2.4036
   46CHL1   H4B 3337   6.231   4.527   7.104  1.2332 -1.5704  1.2093
   46CHL1    C5 3338   6.139   4.502   7.296  0.0745 -0.2354  0.2026
   46CHL1    C6 3339   6.214   4.595   7.356  0.2254  0.3521  0.2183
   46CHL1    H6 3340   6.295   4.653   7.310  0.0725  0.0284 -0.4758
   46CHL1    C7 3341   6.206   4.625   7.501 -0.1894  0.0501 -0.7544
   46CHL1   H7A 3342   6.306   4.644   7.545 -0.2504  0.7373 -0.9073
   46CHL1   H7B 3343   6.166   4.728   7.508  0.4421  0.2489  0.0334
   46CHL1    C8 3344   6.124   4.521   7.580 -0.6277  0.5638 -0.8353
   46CHL1    H8 3345   6.184   4.427   7.576 -1.7195 -0.2262  0.3144
   46CHL1   C14 3346   6.082   4.565   7.715 -0.4510  0.0616  0.1376
   46CHL1   H14 3347   6.015   4.651   7.695 -1.0848 -0.5164 -0.2787
   46CHL1   C15 3348   6.201   4.602   7.802 -0.5960 -0.0302  0.5200
   46CHL1  H15A 3349   6.280   4.524   7.808 -1.1501 -0.5849  0.8250
   46CHL1  H15B 3350   6.254   4.691   7.762  1.2734 -1.5187 -0.4593
   46CHL1   C16 3351   6.132   4.619   7.940 -0.1215 -0.0596  0.0979
   46CHL1  H16A 3352   6.186   4.569   8.024  1.1670 -1.9950 -1.7832
   46CHL1  H16B 3353   6.123   4.729   7.951 -0.6892 -0.1900  0.9816
   46CHL1   C17 3354   5.990   4.553   7.927  0.2888 -0.0202 -0.3580
   46CHL1   H17 3355   5.929   4.644   7.908 -1.1199 -1.2789 -2.0525
   46CHL1   C13 3356   5.991   4.469   7.796 -0.4235 -0.0529  0.0897
   46CHL1   C18 3357   6.058   4.333   7.822  0.6917 -0.6502 -0.3632
   46CHL1  H18A 3358   6.155   4.343   7.875  1.6301  1.8220 -2.3346
   46CHL1  H18B 3359   6.005   4.269   7.895  0.4559 -0.1911 -0.1318
   46CHL1  H18C 3360   6.067   4.272   7.730 -0.8006 -2.4719  0.6330
   46CHL1   C12 3361   5.856   4.459   7.719  0.5844  0.5589 -0.4744
   46CHL1  H12A 3362   5.792   4.391   7.779  1.7023  0.1554  0.2745
   46CHL1  H12B 3363   5.802   4.556   7.712 -0.4110  0.1751  1.2866
   46CHL1   C11 3364   5.888   4.408   7.583  0.5740 -0.5088  0.0439
   46CHL1  H11A 3365   5.925   4.304   7.594  0.0068 -0.6662  0.5027
   46CHL1  H11B 3366   5.802   4.407   7.513  0.0580 -0.1372  0.6626
   46CHL1    C9 3367   5.994   4.491   7.500  0.5955  0.3829  0.1233
   46CHL1    H9 3368   5.954   4.594   7.500  0.1649  0.2981  3.2955
   46CHL1   C10 3369   6.017   4.433   7.365 -0.1853 -0.0376 -0.2723
   46CHL1   C19 3370   6.046   4.281   7.366  0.1100  0.3661 -0.4785
   46CHL1  H19A 3371   5.958   4.220   7.396  1.4321 -2.1320 -1.4158
   46CHL1  H19B 3372   6.070   4.244   7.264  0.0703  0.3682 -0.4890
   46CHL1  H19C 3373   6.129   4.256   7.436 -0.1421  0.8228 -0.0061
   46CHL1    C1 3374   5.893   4.450   7.280  0.0375 -0.0529 -0.5292
   46CHL1   H1A 3375   5.800   4.403   7.318  0.2641  0.3143  0.5427
   46CHL1   H1B 3376   5.856   4.555   7.282  1.2394  0.3905 -0.4990
   46CHL1    C2 3377   5.905   4.414   7.132  0.5048  0.7675 -0.2155
   46CHL1   H2A 3378   5.805   4.434   7.087 -0.2759 -2.8918 -0.4735
   46CHL1   H2B 3379   5.931   4.308   7.109  0.1278  0.2192  1.6929
   46CHL1   C20 3380   5.950   4.475   8.054 -0.3554 -0.4161  0.4667
   46CHL1   H20 3381   6.010   4.384   8.076  0.2282  0.3218  2.0849
   46CHL1   C21 3382   5.797   4.432   8.046 -0.1467 -0.1610 -0.2996
   46CHL1  H21A 3383   5.732   4.520   8.030  0.3757  0.8479  2.4794
   46CHL1  H21B 3384   5.779   4.380   8.143 -0.0442 -1.1198 -0.7821
   46CHL1  H21C 3385   5.784   4.356   7.967  0.2337 -1.8727  1.2127
   46CHL1   C22 3386   5.966   4.572   8.181 -0.4593 -0.0508  0.4841
   46CHL1  H22A 3387   6.034   4.660   8.179 -2.3793  1.5463  1.0206
   46CHL1  H22B 3388   5.866   4.613   8.206 -0.6695 -0.7231  0.7603
   46CHL1   C23 3389   6.008   4.492   8.309  0.7848 -0.0806  0.9320
   46CHL1  H23A 3390   5.947   4.401   8.325 -0.5650  0.6751  0.2399
   46CHL1  H23B 3391   6.115   4.464   8.295  0.3079 -1.7689  0.3928
   46CHL1   C24 3392   6.011   4.565   8.441  0.0712 -0.4925 -0.3639
   46CHL1  H24A 3393   6.060   4.664   8.429 -1.0724  0.3827  1.6658
   46CHL1  H24B 3394   5.907   4.592   8.469  0.9424  1.4212  1.2732
   46CHL1   C25 3395   6.083   4.481   8.549  0.3375 -0.1637  0.4943
   46CHL1   H25 3396   6.181   4.464   8.500 -1.0062 -0.7903 -2.1260
   46CHL1   C26 3397   6.103   4.578   8.666 -0.0437 -0.6850  0.0371
   46CHL1  H26A 3398   6.114   4.680   8.623  2.2148 -0.9288 -0.0481
   46CHL1  H26B 3399   6.009   4.579   8.726  0.9841 -1.0972  1.7120
   46CHL1  H26C 3400   6.187   4.544   8.729  0.0550  0.9593  0.8474
   46CHL1   C27 3401   6.016   4.356   8.608 -0.0367 -1.0581  0.7315
   46CHL1  H27A 3402   6.056   4.326   8.707  0.1492  0.4435  1.1410
   46CHL1  H27B 3403   5.908   4.376   8.622  0.5304  1.2394  2.4819
   46CHL1  H27C 3404   6.025   4.271   8.536 -1.0722  2.1063 -3.5996
   47CHL1    C3 3405   5.358   3.722   7.018 -0.4804 -0.6421 -0.4837
   47CHL1    H3 3406   5.448   3.788   7.018 -1.1315  0.2774 -0.4015
   47CHL1    O3 3407   5.312   3.718   6.884 -0.3058 -0.7536 -0.0397
   47CHL1   H3' 3408   5.342   3.802   6.848 -1.2520  0.0952  1.0455
   47CHL1    C4 3409   5.390   3.580   7.061 -0.0519  0.0359  0.0777
   47CHL1   H4A 3410   5.304   3.510   7.060  0.7954 -1.0727  1.2034
   47CHL1   H4B 3411   5.469   3.543   6.992  0.8141  2.0218 -0.0532
   47CHL1    C5 3412   5.453   3.582   7.200  0.6925 -0.0296 -0.8603
   47CHL1    C6 3413   5.576   3.536   7.227 -0.3161  0.3370  0.6824
   47CHL1    H6 3414   5.643   3.502   7.147 -0.0574 -1.0038  1.4347
   47CHL1    C7 3415   5.634   3.523   7.365  0.2562 -0.0619  0.3133
   47CHL1   H7A 3416   5.671   3.419   7.374  0.9401 -0.0336 -1.6616
   47CHL1   H7B 3417   5.712   3.601   7.381 -0.1306  0.1567  1.2026
   47CHL1    C8 3418   5.519   3.550   7.466 -0.5513  0.1396 -1.0781
   47CHL1    H8 3419   5.464   3.453   7.468 -1.1073  0.4013  2.1990
   47CHL1   C14 3420   5.578   3.554   7.609  0.2719 -0.1630  0.2962
   47CHL1   H14 3421   5.666   3.621   7.622 -1.0415  1.3905  1.7124
   47CHL1   C15 3422   5.650   3.421   7.656  0.1309  0.0525  1.0756
   47CHL1  H15A 3423   5.595   3.330   7.624 -1.0933  1.2383 -0.3404
   47CHL1  H15B 3424   5.756   3.424   7.622 -0.0886  1.3001  0.4654
   47CHL1   C16 3425   5.644   3.430   7.810  0.6623 -0.2879 -0.0904
   47CHL1  H16A 3426   5.591   3.340   7.848  2.1342 -0.0749  2.6871
   47CHL1  H16B 3427   5.747   3.432   7.851  0.6021  1.3614  0.0251
   47CHL1   C17 3428   5.578   3.563   7.845 -0.2531 -0.2057 -0.0115
   47CHL1   H17 3429   5.659   3.639   7.840  1.5391 -2.0734 -0.9460
   47CHL1   C13 3430   5.482   3.587   7.721 -0.5802  0.1316  0.7776
   47CHL1   C18 3431   5.365   3.484   7.730 -0.3458  0.0951 -0.8879
   47CHL1  H18A 3432   5.318   3.494   7.629  0.6817 -1.5895 -1.5681
   47CHL1  H18B 3433   5.406   3.381   7.736  3.4901  1.5564  3.7797
   47CHL1  H18C 3434   5.296   3.513   7.812  0.8037 -0.7147  0.3925
   47CHL1   C12 3435   5.423   3.727   7.692 -0.5599  0.6435 -0.8126
   47CHL1  H12A 3436   5.351   3.760   7.771  0.1781 -2.2298  1.2138
   47CHL1  H12B 3437   5.500   3.807   7.700 -0.7909  0.8087 -0.0740
   47CHL1   C11 3438   5.352   3.731   7.552  0.5628  0.3949  0.9589
   47CHL1  H11A 3439   5.266   3.662   7.564  1.1094 -0.5229 -0.0838
   47CHL1  H11B 3440   5.322   3.834   7.525  1.3363  0.0962 -1.3370
   47CHL1    C9 3441   5.441   3.677   7.436  0.2199 -0.1272  0.4074
   47CHL1    H9 3442   5.513   3.759   7.419 -0.6425  0.8334  1.2561
   47CHL1   C10 3443   5.367   3.659   7.302  0.0906  0.1074 -0.2804
   47CHL1   C19 3444   5.240   3.571   7.325  0.9307 -0.0229  0.2571
   47CHL1  H19A 3445   5.268   3.481   7.383  0.0367 -1.1857 -1.0508
   47CHL1  H19B 3446   5.160   3.626   7.381  0.1541  2.4607 -2.9630
   47CHL1  H19C 3447   5.196   3.534   7.230  1.5783 -2.9152  1.0173
   47CHL1    C1 3448   5.307   3.795   7.249 -0.1928 -0.8661 -0.4233
   47CHL1   H1A 3449   5.231   3.834   7.321 -0.1093  2.8151 -2.0901
   47CHL1   H1B 3450   5.387   3.872   7.255 -1.7444  0.7030  2.1851
   47CHL1    C2 3451   5.258   3.793   7.106  0.5225  0.0786 -0.3749
   47CHL1   H2A 3452   5.231   3.892   7.063 -3.2085 -0.5665  0.1133
   47CHL1   H2B 3453   5.167   3.730   7.093  1.2013 -0.6393 -1.8116
   47CHL1   C20 3454   5.523   3.561   7.991 -0.6575 -0.1374  0.4047
   47CHL1   H20 3455   5.424   3.510   7.987 -0.3659 -0.7052  0.3476
   47CHL1   C21 3456   5.518   3.712   8.041 -0.5632  0.2896 -0.4930
   47CHL1  H21A 3457   5.622   3.750   8.042 -0.0383 -0.8388  3.6260
   47CHL1  H21B 3458   5.478   3.722   8.144  0.5783 -1.3607  0.1387
   47CHL1  H21C 3459   5.449   3.760   7.968 -0.5188 -3.6457 -3.4350
   47CHL1   C22 3460   5.601   3.474   8.096 -0.2065 -0.1104 -0.1773
   47CHL1  H22A 3461   5.622   3.373   8.055  1.2118 -0.3392  1.0491
   47CHL1  H22B 3462   5.696   3.531   8.100 -1.0109  1.8425 -3.8877
   47CHL1   C23 3463   5.526   3.463   8.229  0.3902  0.2411 -0.2032
   47CHL1  H23A 3464   5.511   3.560   8.281 -0.3910  0.7711 -1.3609
   47CHL1  H23B 3465   5.430   3.408   8.221  0.6887 -0.7285  2.0164
   47CHL1   C24 3466   5.608   3.377   8.328 -0.6866 -0.4783  0.7294
   47CHL1  H24A 3467   5.652   3.287   8.278  2.3937  0.9443  0.7047
   47CHL1  H24B 3468   5.696   3.440   8.351 -0.6265 -0.2684 -0.0324
   47CHL1   C25 3469   5.544   3.326   8.464 -0.0417  0.1249  0.6030
   47CHL1   H25 3470   5.522   3.421   8.517  2.4926  1.5852 -0.7816
   47CHL1   C26 3471   5.415   3.245   8.447 -0.1553 -0.1912 -0.7988
   47CHL1  H26A 3472   5.430   3.150   8.391 -1.2657  0.0882 -1.6067
   47CHL1  H26B 3473   5.371   3.205   8.541  0.4427 -0.9705 -0.8406
   47CHL1  H26C 3474   5.328   3.299   8.403  0.2008 -0.0902 -1.3952
   47CHL1   C27 3475   5.658   3.248   8.538  0.4773  0.5854  0.1489
   47CHL1  H27A 3476   5.643   3.245   8.648  1.0774  1.4750  0.2653
   47CHL1  H27B 3477   5.675   3.147   8.496 -0.1140  1.6230 -2.8140
   47CHL1  H27C 3478   5.752   3.305   8.523  1.3464 -1.2909 -2.1337
   48CHL1    C3 3479   2.977   1.061   6.622  0.1177 -0.3175  1.0984
   48CHL1    H3 3480   2.997   1.169   6.640 -1.5655  0.1500  0.3139
   48CHL1    O3 3481   2.940   1.052   6.482 -0.0506  0.7180 -0.1247
   48CHL1   H3' 3482   2.860   1.103   6.465 -0.2611  0.4561  0.0754
   48CHL1    C4 3483   3.103   0.985   6.639 -0.2691 -0.2537  0.2056
   48CHL1   H4A 3484   3.088   0.882   6.601  0.7623 -0.7034  0.9964
   48CHL1   H4B 3485   3.177   1.032   6.571 -0.8034  1.6716  0.8800
   48CHL1    C5 3486   3.155   0.980   6.785  0.2798 -0.1977  0.4857
   48CHL1    C6 3487   3.272   1.011   6.820 -0.3325  0.1239 -0.4696
   48CHL1    H6 3488   3.343   1.042   6.742 -1.2282 -0.4738 -1.5461
   48CHL1    C7 3489   3.321   1.004   6.967  0.4080 -0.7451 -0.3389
   48CHL1   H7A 3490   3.416   0.947   6.968  1.8458  1.5581  0.0535
   48CHL1   H7B 3491   3.336   1.107   7.004 -2.4889  1.8582 -5.2855
   48CHL1    C8 3492   3.230   0.926   7.057  0.8343 -0.3374 -0.9737
   48CHL1    H8 3493   3.239   0.819   7.028  0.2034 -0.2341 -1.5818
   48CHL1   C14 3494   3.257   0.958   7.201 -0.9071 -0.0340  0.5138
   48CHL1   H14 3495   3.244   1.068   7.197  0.0067  0.0678 -2.9326
   48CHL1   C15 3496   3.405   0.928   7.246  0.0818 -0.3218 -0.2718
   48CHL1  H15A 3497   3.423   0.828   7.201 -2.7103 -0.2328 -1.7684
   48CHL1  H15B 3498   3.478   1.000   7.203 -0.2620  1.7092  2.3053
   48CHL1   C16 3499   3.395   0.922   7.401 -0.3310  0.1670 -0.0625
   48CHL1  H16A 3500   3.438   0.822   7.419  0.4684  0.1636 -1.7821
   48CHL1  H16B 3501   3.470   0.991   7.446  0.8782 -1.6122  0.7611
   48CHL1   C17 3502   3.249   0.937   7.439  0.6339 -0.5477  0.0055
   48CHL1   H17 3503   3.231   1.046   7.455 -0.9547 -0.2442 -3.0994
   48CHL1   C13 3504   3.170   0.902   7.309 -0.1656 -0.5364  0.7897
   48CHL1   C18 3505   3.168   0.743   7.299  0.3621 -0.0832 -1.3245
   48CHL1  H18A 3506   3.126   0.712   7.201 -2.6051  1.9049 -0.8372
   48CHL1  H18B 3507   3.266   0.698   7.327 -0.1636 -0.0221  0.8258
   48CHL1  H18C 3508   3.104   0.712   7.384  1.8361  0.7671  0.1731
   48CHL1   C12 3509   3.030   0.957   7.287 -0.1884 -0.0678  0.6307
   48CHL1  H12A 3510   2.953   0.927   7.361  0.0903 -0.3586  0.8045
   48CHL1  H12B 3511   3.036   1.067   7.298  0.1522  0.2499 -1.9341
   48CHL1   C11 3512   2.981   0.923   7.142 -0.3097 -0.2817 -0.5477
   48CHL1  H11A 3513   2.950   0.816   7.133 -2.9263  0.2623  1.2251
   48CHL1  H11B 3514   2.890   0.985   7.132  0.1505  0.4010 -0.5887
   48CHL1    C9 3515   3.086   0.971   7.029 -0.4829 -0.2355  0.3602
   48CHL1    H9 3516   3.084   1.081   7.047  0.5765 -0.3927  1.5188
   48CHL1   C10 3517   3.041   0.946   6.882  0.0087 -0.2296  0.0778
   48CHL1   C19 3518   3.000   0.792   6.879  0.1506  0.3379  0.4778
   48CHL1  H19A 3519   3.087   0.727   6.902 -0.6233 -0.5663  0.9162
   48CHL1  H19B 3520   2.912   0.756   6.935 -0.2000 -0.1244 -0.3481
   48CHL1  H19C 3521   2.974   0.763   6.775  0.0935 -1.5433  0.9771
   48CHL1    C1 3522   2.906   1.022   6.856 -0.4505  0.0672  0.6574
   48CHL1   H1A 3523   2.833   0.989   6.932  0.5663 -1.2291  1.1029
   48CHL1   H1B 3524   2.926   1.129   6.879  1.0632 -0.0405 -0.0290
   48CHL1    C2 3525   2.856   1.017   6.713 -0.0495 -0.4008 -0.3131
   48CHL1   H2A 3526   2.770   1.083   6.688 -0.3382  0.0826  1.8218
   48CHL1   H2B 3527   2.829   0.914   6.682  1.1686 -1.4110  1.8514
   48CHL1   C20 3528   3.216   0.851   7.564  0.8692 -0.5070 -0.1009
   48CHL1   H20 3529   3.237   0.745   7.536  1.5149 -0.1280 -1.1071
   48CHL1   C21 3530   3.068   0.876   7.612 -0.0378 -0.0124 -0.0324
   48CHL1  H21A 3531   3.049   0.807   7.697  0.2749 -1.4939 -1.1171
   48CHL1  H21B 3532   2.982   0.844   7.548 -1.7255  0.4581  1.9082
   48CHL1  H21C 3533   3.058   0.984   7.634  1.1870  0.2991 -0.8929
   48CHL1   C22 3534   3.308   0.881   7.678  0.5108  0.9275 -0.3064
   48CHL1  H22A 3535   3.410   0.838   7.667 -0.1396 -0.3745 -1.5237
   48CHL1  H22B 3536   3.320   0.991   7.690  1.0710  0.6799  2.0418
   48CHL1   C23 3537   3.273   0.825   7.818 -0.0758 -0.4642  0.5557
   48CHL1  H23A 3538   3.165   0.833   7.843 -0.5415 -0.2721 -1.3804
   48CHL1  H23B 3539   3.305   0.719   7.813 -1.4742 -0.8440 -2.2107
   48CHL1   C24 3540   3.356   0.887   7.928  0.3529 -0.7415 -0.6521
   48CHL1  H24A 3541   3.460   0.895   7.891  0.2964  2.8933 -0.3555
   48CHL1  H24B 3542   3.327   0.992   7.951  1.9207 -0.8801  2.5955
   48CHL1   C25 3543   3.359   0.812   8.062 -0.2759 -0.1428 -0.0391
   48CHL1   H25 3544   3.397   0.708   8.049 -0.1106 -0.4178  2.1656
   48CHL1   C26 3545   3.460   0.890   8.152 -0.6463  0.1046 -0.4861
   48CHL1  H26A 3546   3.444   0.871   8.260 -1.6707  1.2759 -0.4022
   48CHL1  H26B 3547   3.567   0.885   8.123 -0.8440 -0.9497 -1.0727
   48CHL1  H26C 3548   3.429   0.997   8.147 -0.5099  0.2155  0.7875
   48CHL1   C27 3549   3.214   0.805   8.118  0.1547  0.3359  0.1718
   48CHL1  H27A 3550   3.150   0.747   8.048  0.2720  1.8246 -1.2082
   48CHL1  H27B 3551   3.225   0.750   8.214 -1.3117  1.4113  0.9803
   48CHL1  H27C 3552   3.171   0.906   8.133 -1.4569 -0.2612 -0.1848
   49CHL1    C3 3553   1.721   1.929   6.844  0.7130  0.2016 -0.9187
   49CHL1    H3 3554   1.713   2.035   6.876  0.9908  0.8096 -2.7411
   49CHL1    O3 3555   1.705   1.926   6.705  0.3887 -0.5674  0.3327
   49CHL1   H3' 3556   1.654   1.847   6.686  0.8139 -0.9827  0.8687
   49CHL1    C4 3557   1.855   1.883   6.881  0.2682 -0.3783  0.3582
   49CHL1   H4A 3558   1.861   1.782   6.835  1.7161  0.3317 -1.0993
   49CHL1   H4B 3559   1.920   1.949   6.819  1.6834 -0.5984  1.5425
   49CHL1    C5 3560   1.883   1.879   7.032 -0.8887  0.0751  0.4821
   49CHL1    C6 3561   1.988   1.948   7.092  0.0875 -0.0197  0.4486
   49CHL1    H6 3562   2.059   2.015   7.043  0.2685  0.3198  1.1644
   49CHL1    C7 3563   2.026   1.930   7.237 -0.0366  0.0300 -0.3357
   49CHL1   H7A 3564   2.130   1.896   7.259 -1.2973 -3.9659  0.3961
   49CHL1   H7B 3565   2.014   2.025   7.292  4.4747 -0.2782  1.6495
   49CHL1    C8 3566   1.937   1.822   7.306  0.0349  0.1484  0.1603
   49CHL1    H8 3567   1.977   1.724   7.273 -1.3466  0.0323 -1.2892
   49CHL1   C14 3568   1.944   1.844   7.450 -1.0169 -0.1300 -0.0054
   49CHL1   H14 3569   1.909   1.949   7.462 -0.3465  0.0339  0.6286
   49CHL1   C15 3570   2.084   1.841   7.511 -0.0986  0.5001  0.1349
   49CHL1  H15A 3571   2.135   1.751   7.471  0.0866 -1.5651  4.4386
   49CHL1  H15B 3572   2.133   1.936   7.482  0.0518  0.0507 -1.1435
   49CHL1   C16 3573   2.068   1.821   7.663  0.5130  0.1301 -0.0128
   49CHL1  H16A 3574   2.131   1.734   7.693  2.0256  1.2439  0.1827
   49CHL1  H16B 3575   2.100   1.906   7.727  0.8183  0.8265 -1.0651
   49CHL1   C17 3576   1.917   1.811   7.679  0.3850  0.0402  0.9993
   49CHL1   H17 3577   1.876   1.910   7.707  1.7353  0.6338  0.9515
   49CHL1   C13 3578   1.857   1.762   7.541 -0.4227 -0.3204  0.5300
   49CHL1   C18 3579   1.885   1.613   7.525  0.1557  0.0971 -0.6930
   49CHL1  H18A 3580   1.848   1.578   7.426 -1.7831  1.9351 -0.6891
   49CHL1  H18B 3581   1.995   1.600   7.527  0.0582 -1.6324 -2.6192
   49CHL1  H18C 3582   1.825   1.551   7.594 -0.0904 -0.5926 -1.5039
   49CHL1   C12 3583   1.711   1.795   7.506 -0.1503 -0.0700 -0.4471
   49CHL1  H12A 3584   1.644   1.729   7.565 -0.6014  0.1331 -0.7220
   49CHL1  H12B 3585   1.669   1.893   7.536  0.6150 -0.5223  2.4065
   49CHL1   C11 3586   1.689   1.761   7.358  0.7517 -0.4716  0.1202
   49CHL1  H11A 3587   1.682   1.655   7.326 -0.2798 -0.1526 -0.7691
   49CHL1  H11B 3588   1.586   1.799   7.338  0.7594  0.4597  1.6991
   49CHL1    C9 3589   1.791   1.832   7.261  0.2620  0.9102 -1.3682
   49CHL1    H9 3590   1.759   1.938   7.274 -0.5442  0.5937 -0.5966
   49CHL1   C10 3591   1.771   1.799   7.112 -0.9988 -0.3242  0.3737
   49CHL1   C19 3592   1.800   1.652   7.080  0.1553  0.1711  0.4821
   49CHL1  H19A 3593   1.745   1.575   7.138 -0.1536 -0.9023 -1.1979
   49CHL1  H19B 3594   1.786   1.636   6.971 -0.4503  1.3264  0.3761
   49CHL1  H19C 3595   1.909   1.631   7.089  0.6529  1.8321 -1.0849
   49CHL1    C1 3596   1.629   1.835   7.074 -0.0734 -0.7778  0.2064
   49CHL1   H1A 3597   1.548   1.769   7.110 -0.4210  1.2299  3.5707
   49CHL1   H1B 3598   1.606   1.934   7.120 -0.3979 -1.8352  2.4609
   49CHL1    C2 3599   1.607   1.847   6.919  0.2266  0.3117 -0.1471
   49CHL1   H2A 3600   1.513   1.893   6.882  0.7540 -0.0578 -2.0740
   49CHL1   H2B 3601   1.604   1.745   6.875 -1.1294  0.4938 -0.5304
   49CHL1   C20 3602   1.886   1.714   7.802 -0.2620  0.0235  0.2689
   49CHL1   H20 3603   1.935   1.619   7.770  1.5539  0.7246  0.8223
   49CHL1   C21 3604   1.734   1.716   7.835 -1.0067  0.0581  0.5880
   49CHL1  H21A 3605   1.685   1.651   7.759 -0.2960 -0.7783  0.8285
   49CHL1  H21B 3606   1.702   1.822   7.823  2.5666  1.4337  1.7891
   49CHL1  H21C 3607   1.713   1.687   7.940  0.8398 -1.1246  0.6770
   49CHL1   C22 3608   1.947   1.752   7.942  0.3765 -0.2334  0.1383
   49CHL1  H22A 3609   2.056   1.765   7.925  0.6002 -1.2882  0.6930
   49CHL1  H22B 3610   1.908   1.855   7.962  1.0058 -0.2222  1.4007
   49CHL1   C23 3611   1.935   1.663   8.063  0.1448  0.0950 -0.0096
   49CHL1  H23A 3612   1.838   1.647   8.114 -0.4783 -2.0794 -1.7625
   49CHL1  H23B 3613   1.974   1.565   8.029  0.8392  0.5379 -0.5161
   49CHL1   C24 3614   2.024   1.718   8.178  0.1167  0.6354  0.3584
   49CHL1  H24A 3615   2.125   1.719   8.132  0.2669  5.8078  0.2256
   49CHL1  H24B 3616   1.990   1.822   8.196  0.5934  1.3949 -2.6789
   49CHL1   C25 3617   2.021   1.629   8.300  0.1519 -0.4944  0.0993
   49CHL1   H25 3618   1.915   1.607   8.324  0.1401 -1.1731 -0.5165
   49CHL1   C26 3619   2.090   1.500   8.259  0.0928 -0.4641 -0.1505
   49CHL1  H26A 3620   2.030   1.445   8.184  0.6858  0.3366 -1.2416
   49CHL1  H26B 3621   2.197   1.512   8.229  0.1166  1.1462  0.4953
   49CHL1  H26C 3622   2.080   1.439   8.352  0.7832  2.6836  2.1385
   49CHL1   C27 3623   2.091   1.694   8.416 -0.1838  0.1150 -0.0047
   49CHL1  H27A 3624   2.111   1.610   8.485 -2.6343 -1.1662 -0.7261
   49CHL1  H27B 3625   2.182   1.750   8.387  0.1541 -1.0577 -1.3194
   49CHL1  H27C 3626   2.009   1.751   8.465  0.0957 -0.3057  0.9694
   50CHL1    C3 3627   2.328   3.891   7.007  0.3761 -0.3540  0.0610
   50CHL1    H3 3628   2.362   3.786   7.022 -0.0982 -0.7785 -1.6437
   50CHL1    O3 3629   2.344   3.920   6.873 -0.2667  0.5857  0.5146
   50CHL1   H3' 3630   2.291   3.997   6.855  0.7978  1.1156 -0.4516
   50CHL1    C4 3631   2.177   3.884   7.036  0.0793 -0.6763 -0.3731
   50CHL1   H4A 3632   2.126   3.978   7.007  2.6151  0.7862 -0.3688
   50CHL1   H4B 3633   2.134   3.805   6.972  0.7538  1.1379 -3.2449
   50CHL1    C5 3634   2.176   3.851   7.184  0.6203 -0.1864  0.4974
   50CHL1    C6 3635   2.107   3.740   7.228 -0.6045 -0.7206 -0.1688
   50CHL1    H6 3636   2.061   3.668   7.158  0.9845 -0.5912 -1.3927
   50CHL1    C7 3637   2.086   3.723   7.377  0.9727 -0.5875  0.4828
   50CHL1   H7A 3638   1.979   3.703   7.399  0.8776  1.8277  2.5948
   50CHL1   H7B 3639   2.137   3.628   7.404 -0.1652 -0.7060  2.4100
   50CHL1    C8 3640   2.125   3.843   7.469 -0.4996  0.2906 -0.5861
   50CHL1    H8 3641   2.035   3.908   7.470 -0.5451  0.2271  0.3558
   50CHL1   C14 3642   2.143   3.793   7.610  1.2615 -0.1619  1.0276
   50CHL1   H14 3643   2.238   3.737   7.621  3.0968  2.7797  1.2838
   50CHL1   C15 3644   2.022   3.713   7.674  0.0832 -0.2755 -0.1075
   50CHL1  H15A 3645   1.918   3.747   7.656 -0.2529  0.3342  2.6361
   50CHL1  H15B 3646   2.034   3.604   7.653  2.1730 -0.2498  0.6842
   50CHL1   C16 3647   2.051   3.734   7.825 -0.3626  0.0546 -0.4013
   50CHL1  H16A 3648   1.969   3.795   7.868 -1.6920  0.9400 -3.8016
   50CHL1  H16B 3649   2.064   3.641   7.884 -0.4607  0.7152  0.6673
   50CHL1   C17 3650   2.174   3.831   7.843 -0.2849 -0.0085  0.1209
   50CHL1   H17 3651   2.264   3.766   7.850 -0.8554 -0.7429  0.7107
   50CHL1   C13 3652   2.170   3.907   7.713  0.2370 -0.2562 -0.0277
   50CHL1   C18 3653   2.064   4.013   7.726 -0.3072  0.2957  0.5035
   50CHL1  H18A 3654   2.033   4.039   7.623 -0.7358 -1.4032  0.1817
   50CHL1  H18B 3655   1.971   3.993   7.783 -0.6347  0.1253 -0.0826
   50CHL1  H18C 3656   2.117   4.100   7.772  1.0379 -0.2687  0.0863
   50CHL1   C12 3657   2.306   3.971   7.667  0.1646  0.2024 -0.4483
   50CHL1  H12A 3658   2.334   4.057   7.731 -0.3254 -2.7684  4.2696
   50CHL1  H12B 3659   2.391   3.900   7.678  0.5207  0.6904  0.0278
   50CHL1   C11 3660   2.300   4.015   7.525  0.7359  0.1630  0.4190
   50CHL1  H11A 3661   2.233   4.103   7.536  0.8759  0.2097  0.9461
   50CHL1  H11B 3662   2.397   4.055   7.487 -0.1240 -0.3211 -2.5267
   50CHL1    C9 3663   2.255   3.903   7.427 -0.0320  0.1094  0.0143
   50CHL1    H9 3664   2.333   3.825   7.422  0.2449  0.4732 -1.9918
   50CHL1   C10 3665   2.251   3.951   7.284  0.4158  0.2337  0.7591
   50CHL1   C19 3666   2.170   4.085   7.277 -0.7853  0.6985 -0.0688
   50CHL1  H19A 3667   2.228   4.162   7.333  0.5977 -1.9231  2.3282
   50CHL1  H19B 3668   2.155   4.125   7.174 -1.5501 -0.8583 -0.5947
   50CHL1  H19C 3669   2.071   4.071   7.325 -0.7295 -2.4305 -0.6571
   50CHL1    C1 3670   2.392   3.969   7.231 -0.2483 -0.1632 -0.0424
   50CHL1   H1A 3671   2.440   4.057   7.278  0.2541 -0.8075  0.6801
   50CHL1   H1B 3672   2.451   3.877   7.252 -1.5252 -1.0624 -0.2429
   50CHL1    C2 3673   2.397   4.002   7.084  0.3511 -0.3891 -0.2302
   50CHL1   H2A 3674   2.502   4.004   7.046 -0.0234 -1.9746 -1.4765
   50CHL1   H2B 3675   2.354   4.103   7.068  4.0062  1.3234 -0.1999
   50CHL1   C20 3676   2.173   3.905   7.981 -0.3253 -0.6052 -0.5393
   50CHL1   H20 3677   2.087   3.976   7.992 -0.6989 -1.1640  0.2781
   50CHL1   C21 3678   2.294   3.999   8.001 -0.0691 -0.4617 -0.2211
   50CHL1  H21A 3679   2.288   4.048   8.100 -0.5555 -0.2395 -0.3553
   50CHL1  H21B 3680   2.301   4.087   7.934  2.2784 -0.6343 -0.2840
   50CHL1  H21C 3681   2.390   3.944   7.995 -0.0215 -0.2298 -2.9069
   50CHL1   C22 3682   2.166   3.809   8.102  0.0586 -0.6499  0.4134
   50CHL1  H22A 3683   2.151   3.708   8.059  0.4424 -0.9801  1.0349
   50CHL1  H22B 3684   2.267   3.810   8.147  1.1297 -1.5214 -1.8352
   50CHL1   C23 3685   2.065   3.839   8.212 -0.2234 -0.0524  0.5361
   50CHL1  H23A 3686   2.081   3.933   8.268 -1.5581  0.9490 -0.6883
   50CHL1  H23B 3687   1.969   3.842   8.156 -0.1637 -0.3485  0.4117
   50CHL1   C24 3688   2.058   3.720   8.316  0.0256 -0.6384  0.2981
   50CHL1  H24A 3689   2.037   3.620   8.272  1.2304 -1.0548  0.6366
   50CHL1  H24B 3690   2.162   3.713   8.354  0.0174 -3.6474  0.0342
   50CHL1   C25 3691   1.954   3.734   8.429  0.0473  0.3547  0.2746
   50CHL1   H25 3692   1.971   3.830   8.483 -0.7300 -0.4599  2.0553
   50CHL1   C26 3693   1.806   3.722   8.383  0.1288 -0.3679 -0.4467
   50CHL1  H26A 3694   1.790   3.796   8.301  1.4470  1.3742  0.7986
   50CHL1  H26B 3695   1.785   3.616   8.358 -0.0938 -0.2838 -0.6250
   50CHL1  H26C 3696   1.732   3.731   8.466  0.6883 -0.8170  0.1086
   50CHL1   C27 3697   1.974   3.623   8.537 -0.5168  0.0051  0.4663
   50CHL1  H27A 3698   1.960   3.523   8.491 -1.1888  1.1337 -1.9841
   50CHL1  H27B 3699   2.076   3.629   8.581 -0.5294  1.6476  0.3654
   50CHL1  H27C 3700   1.893   3.632   8.612 -0.2272 -2.3557  1.1360
   51CHL1    C3 3701   2.526   1.933   7.038  0.1952  1.1486  0.3175
   51CHL1    H3 3702   2.583   2.028   7.050 -0.9784  2.0447 -0.8824
   51CHL1    O3 3703   2.491   1.927   6.902 -0.0721  0.0687 -0.0429
   51CHL1   H3' 3704   2.482   1.833   6.886 -0.6513  0.2900 -1.0597
   51CHL1    C4 3705   2.619   1.815   7.060  0.1563 -0.2074  0.4136
   51CHL1   H4A 3706   2.569   1.727   7.015 -0.9035 -1.4774  3.7717
   51CHL1   H4B 3707   2.714   1.833   7.005  0.4114 -1.0491  0.5747
   51CHL1    C5 3708   2.664   1.794   7.202 -0.5929 -0.2400 -0.4066
   51CHL1    C6 3709   2.788   1.786   7.253 -0.2448 -0.9824  0.1495
   51CHL1    H6 3710   2.871   1.802   7.183 -1.5815  1.7213 -0.9358
   51CHL1    C7 3711   2.827   1.756   7.395 -0.7303 -0.4690 -0.8552
   51CHL1   H7A 3712   2.905   1.677   7.394  0.2485  0.4594 -2.8729
   51CHL1   H7B 3713   2.879   1.846   7.435  0.3080 -1.1064 -0.7341
   51CHL1    C8 3714   2.710   1.711   7.484  0.6477  0.2007 -0.1269
   51CHL1    H8 3715   2.682   1.608   7.452 -2.6851  1.3810 -1.3775
   51CHL1   C14 3716   2.746   1.710   7.630  0.5094  0.4774  0.1591
   51CHL1   H14 3717   2.770   1.816   7.656  1.0097 -0.1224  2.3134
   51CHL1   C15 3718   2.864   1.627   7.674 -0.0525  0.5665  0.1619
   51CHL1  H15A 3719   2.863   1.530   7.619  0.0962  0.1130  0.9459
   51CHL1  H15B 3720   2.955   1.678   7.635 -0.0372 -0.0232 -0.5928
   51CHL1   C16 3721   2.844   1.599   7.818 -0.5538 -0.8297 -0.4468
   51CHL1  H16A 3722   2.840   1.491   7.843 -0.2540 -0.6161  0.5687
   51CHL1  H16B 3723   2.922   1.645   7.883 -0.4796 -2.0217  0.3450
   51CHL1   C17 3724   2.697   1.662   7.856 -0.2431  0.5240 -0.2522
   51CHL1   H17 3725   2.711   1.768   7.884 -0.0425  0.6701 -0.8788
   51CHL1   C13 3726   2.622   1.672   7.718  0.2721 -0.5721 -0.1906
   51CHL1   C18 3727   2.576   1.532   7.686 -1.2218  0.6355  0.7886
   51CHL1  H18A 3728   2.493   1.486   7.745 -0.4367  0.1552  1.5415
   51CHL1  H18B 3729   2.559   1.509   7.579  0.7209  0.6831  0.4343
   51CHL1  H18C 3730   2.665   1.468   7.703  0.6845  1.7355 -3.6268
   51CHL1   C12 3731   2.513   1.777   7.703 -0.2306  0.8401  0.1873
   51CHL1  H12A 3732   2.431   1.740   7.769  0.6052  1.4675  1.6212
   51CHL1  H12B 3733   2.543   1.878   7.736 -2.3249  0.7086  2.7961
   51CHL1   C11 3734   2.470   1.776   7.555 -0.5518  0.4582 -0.1125
   51CHL1  H11A 3735   2.429   1.679   7.520 -1.3114  0.4589  0.7518
   51CHL1  H11B 3736   2.398   1.859   7.538  1.2692  2.1177 -0.1035
   51CHL1    C9 3737   2.584   1.801   7.452 -0.4721  0.7966  0.5833
   51CHL1    H9 3738   2.621   1.905   7.463  1.4001  0.6545 -2.9435
   51CHL1   C10 3739   2.539   1.786   7.298  0.7279  0.2413 -0.4424
   51CHL1   C19 3740   2.474   1.649   7.265  0.5529  0.1715  0.3922
   51CHL1  H19A 3741   2.446   1.650   7.157 -3.2614 -0.9412  1.2055
   51CHL1  H19B 3742   2.536   1.559   7.286 -0.6884 -1.3629 -1.9801
   51CHL1  H19C 3743   2.375   1.641   7.315  0.1741 -0.1702 -0.3971
   51CHL1    C1 3744   2.446   1.903   7.274 -0.0941  0.5647 -0.1169
   51CHL1   H1A 3745   2.364   1.909   7.348  0.7077 -1.7414  1.0727
   51CHL1   H1B 3746   2.503   1.993   7.304  0.1851  0.3812 -0.0948
   51CHL1    C2 3747   2.402   1.930   7.121 -1.1598 -1.0059 -0.1333
   51CHL1   H2A 3748   2.354   2.030   7.109  1.8671  0.5710  0.1127
   51CHL1   H2B 3749   2.330   1.852   7.087 -3.6433  0.9035  0.4593
   51CHL1   C20 3750   2.635   1.595   7.975  0.0926  1.0674  0.0732
   51CHL1   H20 3751   2.630   1.486   7.957 -0.0738  1.1061 -0.1268
   51CHL1   C21 3752   2.486   1.650   7.997 -0.9512  0.1807 -0.2951
   51CHL1  H21A 3753   2.417   1.617   7.917 -0.1809  3.3763 -2.4620
   51CHL1  H21B 3754   2.491   1.761   7.996 -0.9496  0.2181  1.4488
   51CHL1  H21C 3755   2.448   1.601   8.089 -0.9560 -1.6166 -1.2135
   51CHL1   C22 3756   2.721   1.610   8.102 -0.7269 -0.3940 -0.0010
   51CHL1  H22A 3757   2.831   1.595   8.091 -0.2763  1.8607  0.9356
   51CHL1  H22B 3758   2.715   1.713   8.143 -1.5535  0.8923 -3.1000
   51CHL1   C23 3759   2.676   1.512   8.212 -0.1225  0.2092 -0.7447
   51CHL1  H23A 3760   2.575   1.536   8.250 -0.0824 -1.5009  0.5211
   51CHL1  H23B 3761   2.662   1.411   8.169 -2.1640 -0.3090  0.9923
   51CHL1   C24 3762   2.780   1.496   8.324  0.2652  0.0620 -0.0127
   51CHL1  H24A 3763   2.866   1.450   8.270  0.8769  0.5751  0.5171
   51CHL1  H24B 3764   2.800   1.599   8.358  0.2004 -0.5947  2.1710
   51CHL1   C25 3765   2.757   1.401   8.443  0.1588 -0.3056 -0.2458
   51CHL1   H25 3766   2.661   1.437   8.487  0.7402  0.5579  0.3710
   51CHL1   C26 3767   2.765   1.255   8.402  0.1988  0.4410 -0.2007
   51CHL1  H26A 3768   2.870   1.221   8.385  0.4123  0.2895  1.3164
   51CHL1  H26B 3769   2.716   1.183   8.471 -0.7332 -0.0497 -1.3233
   51CHL1  H26C 3770   2.705   1.251   8.308  2.1352  2.9970 -1.6806
   51CHL1   C27 3771   2.862   1.411   8.549 -0.2144  0.3570  0.2538
   51CHL1  H27A 3772   2.865   1.511   8.597 -1.3259  1.4510 -1.8225
   51CHL1  H27B 3773   2.839   1.335   8.626 -2.5495  1.0596  0.3319
   51CHL1  H27C 3774   2.957   1.401   8.492 -1.4239  1.0448 -1.9848
   52CHL1    C3 3775   4.118   2.872   6.994  0.0779 -0.5337 -0.1682
   52CHL1    H3 3776   4.027   2.866   6.931 -0.5050 -1.1984  0.7194
   52CHL1    O3 3777   4.228   2.903   6.915 -0.2711  0.2008 -0.2334
   52CHL1   H3' 3778   4.303   2.912   6.974  0.2809 -1.0812 -0.7175
   52CHL1    C4 3779   4.101   2.985   7.098  0.2734 -0.4792 -0.1692
   52CHL1   H4A 3780   4.198   3.008   7.148  0.5833  0.6976 -1.2846
   52CHL1   H4B 3781   4.062   3.071   7.041 -0.0112  0.5386  1.5029
   52CHL1    C5 3782   4.000   2.945   7.204 -0.3921 -0.2301  0.3125
   52CHL1    C6 3783   3.890   3.016   7.237  0.9957  0.8350 -0.4469
   52CHL1    H6 3784   3.863   3.109   7.185 -0.6556  0.4401 -0.3409
   52CHL1    C7 3785   3.801   2.993   7.355  0.1316  0.1337  0.1689
   52CHL1   H7A 3786   3.792   3.090   7.408 -0.1812 -0.8000  1.9329
   52CHL1   H7B 3787   3.704   2.965   7.310 -0.4297  2.7153 -0.3388
   52CHL1    C8 3788   3.850   2.887   7.455  1.0413 -0.5299 -0.2245
   52CHL1    H8 3789   3.931   2.936   7.513  0.7478  0.5263 -0.6868
   52CHL1   C14 3790   3.739   2.851   7.549  0.1424  0.4524  0.5400
   52CHL1   H14 3791   3.655   2.801   7.496  0.3785  1.5526 -0.9295
   52CHL1   C15 3792   3.667   2.966   7.619  0.3154  0.7188 -0.5433
   52CHL1  H15A 3793   3.738   3.039   7.662  1.8233 -1.1607  0.2829
   52CHL1  H15B 3794   3.605   3.013   7.540 -2.3012 -0.5581  0.6150
   52CHL1   C16 3795   3.586   2.878   7.723 -0.3936  0.1818 -0.1369
   52CHL1  H16A 3796   3.584   2.929   7.821  0.1600 -0.3027  0.1288
   52CHL1  H16B 3797   3.484   2.857   7.684 -0.9909 -2.5949  2.5277
   52CHL1   C17 3798   3.648   2.739   7.740 -0.4585 -0.2703 -0.8298
   52CHL1   H17 3799   3.577   2.668   7.692 -1.0127 -1.0342  1.0325
   52CHL1   C13 3800   3.773   2.743   7.656 -0.3660  0.1124 -0.1689
   52CHL1   C18 3801   3.897   2.783   7.736  0.9935 -0.7444 -0.7887
   52CHL1  H18A 3802   3.973   2.815   7.662 -0.6814 -0.1166 -2.2868
   52CHL1  H18B 3803   3.873   2.862   7.811 -0.9690 -0.7284 -1.3877
   52CHL1  H18C 3804   3.933   2.691   7.788  1.7795 -1.0430 -1.8466
   52CHL1   C12 3805   3.801   2.623   7.559  0.3217  0.1818  0.4517
   52CHL1  H12A 3806   3.808   2.528   7.615  0.1268 -0.7129 -0.9856
   52CHL1  H12B 3807   3.712   2.606   7.494 -0.5814  1.3651  1.3163
   52CHL1   C11 3808   3.922   2.654   7.464  0.4543  0.3848 -0.5580
   52CHL1  H11A 3809   4.016   2.656   7.524  0.2240  2.1184 -0.2151
   52CHL1  H11B 3810   3.920   2.566   7.396  0.3379 -0.7711  0.8814
   52CHL1    C9 3811   3.902   2.773   7.379 -0.3241  0.1795  0.1563
   52CHL1    H9 3812   3.823   2.735   7.310 -0.1492 -1.2109  0.6927
   52CHL1   C10 3813   4.018   2.810   7.283  0.1071  0.7107  0.6592
   52CHL1   C19 3814   4.143   2.820   7.373 -0.5322 -0.7338  0.5831
   52CHL1  H19A 3815   4.123   2.874   7.468  1.2164  2.6736 -0.8193
   52CHL1  H19B 3816   4.192   2.723   7.398  1.0612  0.4649  2.3908
   52CHL1  H19C 3817   4.227   2.874   7.323  0.6972 -1.1757  2.0897
   52CHL1    C1 3818   4.037   2.702   7.175 -0.5598 -0.5873 -0.2407
   52CHL1   H1A 3819   4.080   2.612   7.224  0.4108 -1.4775 -2.5779
   52CHL1   H1B 3820   3.938   2.675   7.135 -0.7876 -2.2923  1.3410
   52CHL1    C2 3821   4.144   2.737   7.069 -0.6443 -0.1622  0.3484
   52CHL1   H2A 3822   4.159   2.659   6.991  1.6464  0.4480  0.0928
   52CHL1   H2B 3823   4.240   2.741   7.124 -1.0685 -1.9861  1.3158
   52CHL1   C20 3824   3.661   2.687   7.884 -1.2055 -0.4164 -0.6734
   52CHL1   H20 3825   3.727   2.761   7.934 -5.3733  1.5084  2.5577
   52CHL1   C21 3826   3.727   2.548   7.894 -0.3600  0.7127 -0.0235
   52CHL1  H21A 3827   3.836   2.545   7.873 -0.1876 -2.1493  0.8962
   52CHL1  H21B 3828   3.680   2.490   7.812  0.8987 -1.1704  0.5198
   52CHL1  H21C 3829   3.715   2.493   7.990 -0.5382  0.4726 -0.1800
   52CHL1   C22 3830   3.530   2.687   7.955  0.4185  0.4013  0.4847
   52CHL1  H22A 3831   3.484   2.788   7.957  1.1458  0.7468  2.7795
   52CHL1  H22B 3832   3.470   2.604   7.912  0.0893  1.0295 -0.2872
   52CHL1   C23 3833   3.554   2.671   8.107  0.0111 -0.4262 -0.8638
   52CHL1  H23A 3834   3.560   2.561   8.123 -0.4851 -0.2295  0.8408
   52CHL1  H23B 3835   3.647   2.711   8.152 -1.3539 -1.3081  3.1658
   52CHL1   C24 3836   3.445   2.724   8.207 -0.8654 -0.3058 -0.2103
   52CHL1  H24A 3837   3.440   2.825   8.161 -1.0410 -0.4374 -0.4848
   52CHL1  H24B 3838   3.348   2.673   8.188 -0.5424 -0.7036 -0.8665
   52CHL1   C25 3839   3.477   2.726   8.356  0.1931  0.2714 -0.1674
   52CHL1   H25 3840   3.580   2.761   8.377 -0.5939  1.7043  1.5971
   52CHL1   C26 3841   3.386   2.827   8.430 -0.3147  0.1738  0.6391
   52CHL1  H26A 3842   3.409   2.812   8.537  1.1043 -1.8150  0.1045
   52CHL1  H26B 3843   3.414   2.925   8.384 -2.9413  0.6501 -0.1041
   52CHL1  H26C 3844   3.277   2.814   8.409 -0.0081 -0.1969 -0.8555
   52CHL1   C27 3845   3.463   2.587   8.417 -0.1853  0.4487  0.2422
   52CHL1  H27A 3846   3.516   2.513   8.353  0.5715  0.9802  0.2430
   52CHL1  H27B 3847   3.504   2.589   8.520 -0.7073  1.9990  0.4428
   52CHL1  H27C 3848   3.353   2.570   8.413 -0.6292  3.0765 -1.6562
   53CHL1    C3 3849   6.688   5.816   7.152 -0.0491 -0.0059 -0.2607
   53CHL1    H3 3850   6.653   5.921   7.142  1.5258  0.5317 -0.3302
   53CHL1    O3 3851   6.715   5.778   7.015 -0.1382  0.1717 -0.0939
   53CHL1   H3' 3852   6.638   5.735   6.977 -0.2805 -0.4558  0.8780
   53CHL1    C4 3853   6.816   5.823   7.234 -0.1122 -0.4102  0.6355
   53CHL1   H4A 3854   6.876   5.732   7.212 -0.4554 -0.3159 -0.7826
   53CHL1   H4B 3855   6.885   5.893   7.182  0.5880 -0.0454  2.0061
   53CHL1    C5 3856   6.790   5.867   7.378  0.0664  0.0074  0.3425
   53CHL1    C6 3857   6.855   5.968   7.444 -0.0548 -0.3696  1.0185
   53CHL1    H6 3858   6.930   6.024   7.386 -3.0222 -1.3988 -4.6016
   53CHL1    C7 3859   6.835   5.998   7.595 -0.5919  0.3297  0.8583
   53CHL1   H7A 3860   6.930   6.020   7.647 -0.1823 -1.6150  1.0033
   53CHL1   H7B 3861   6.777   6.093   7.603 -0.1113  0.4464  4.2139
   53CHL1    C8 3862   6.757   5.891   7.677  0.3915  0.4397 -0.2374
   53CHL1    H8 3863   6.823   5.804   7.695 -1.0865 -0.7685 -0.5287
   53CHL1   C14 3864   6.700   5.948   7.813 -0.1047  0.3421 -0.7486
   53CHL1   H14 3865   6.623   6.024   7.788 -1.0115  0.0239  0.9247
   53CHL1   C15 3866   6.800   6.015   7.903  0.4086  0.1782 -0.4764
   53CHL1  H15A 3867   6.897   5.962   7.912  0.2889  0.1114  0.5833
   53CHL1  H15B 3868   6.813   6.121   7.872  3.0831  0.3571  0.9800
   53CHL1   C16 3869   6.731   6.015   8.045 -0.3467 -0.1744 -0.6589
   53CHL1  H16A 3870   6.804   5.966   8.114 -0.1807  1.9012  0.7430
   53CHL1  H16B 3871   6.705   6.118   8.078  2.3059  1.1852 -2.4237
   53CHL1   C17 3872   6.604   5.925   8.028  0.1349 -0.4718  0.0926
   53CHL1   H17 3873   6.516   5.989   8.004 -0.0711 -0.2517  1.3699
   53CHL1   C13 3874   6.633   5.845   7.903 -0.3829 -0.0910  0.2365
   53CHL1   C18 3875   6.727   5.728   7.930  0.0516  0.4137  0.6059
   53CHL1  H18A 3876   6.760   5.680   7.836 -4.2510 -0.6538 -0.6191
   53CHL1  H18B 3877   6.818   5.758   7.985  0.5685 -0.9146  0.4945
   53CHL1  H18C 3878   6.674   5.646   7.984 -0.0322  1.0268  1.4793
   53CHL1   C12 3879   6.508   5.808   7.817 -0.5150 -0.4660 -0.8493
   53CHL1  H12A 3880   6.453   5.727   7.870  1.4231 -0.2066  1.7750
   53CHL1  H12B 3881   6.450   5.902   7.814  2.1306  1.2352 -2.2529
   53CHL1   C11 3882   6.536   5.757   7.674  0.6277 -0.7417 -0.1437
   53CHL1  H11A 3883   6.578   5.654   7.683 -0.4416 -1.0486  1.9795
   53CHL1  H11B 3884   6.438   5.742   7.624  0.2328  0.1757  0.3435
   53CHL1    C9 3885   6.635   5.846   7.590 -0.2179 -0.1953 -0.0927
   53CHL1    H9 3886   6.580   5.939   7.565  0.5246  0.3792  0.3874
   53CHL1   C10 3887   6.678   5.790   7.454 -0.0259 -0.6482 -0.5005
   53CHL1   C19 3888   6.742   5.651   7.474  0.1591 -0.0507 -0.0601
   53CHL1  H19A 3889   6.672   5.578   7.520 -1.1315  1.9067  1.2162
   53CHL1  H19B 3890   6.769   5.612   7.373  1.6276 -0.7752  0.5792
   53CHL1  H19C 3891   6.840   5.644   7.527 -0.1719  0.9083  0.7056
   53CHL1    C1 3892   6.554   5.784   7.364  0.5064 -0.2097  0.3089
   53CHL1   H1A 3893   6.478   5.712   7.403 -0.3759  0.1841 -0.6499
   53CHL1   H1B 3894   6.506   5.884   7.357  1.9404  0.6074  1.4331
   53CHL1    C2 3895   6.579   5.738   7.220 -0.3465  0.6788 -0.4051
   53CHL1   H2A 3896   6.487   5.767   7.165 -0.7610  4.2225  1.9088
   53CHL1   H2B 3897   6.614   5.632   7.217 -2.9612 -0.2781  0.1828
   53CHL1   C20 3898   6.570   5.845   8.153 -0.2909 -0.0486  0.4776
   53CHL1   H20 3899   6.656   5.781   8.183 -0.4346 -0.1905  0.5874
   53CHL1   C21 3900   6.446   5.754   8.124  0.4576 -0.3784 -0.6510
   53CHL1  H21A 3901   6.369   5.796   8.056 -1.6251 -1.4794  0.9136
   53CHL1  H21B 3902   6.386   5.739   8.216 -3.1121  2.4744 -2.2826
   53CHL1  H21C 3903   6.482   5.654   8.092 -1.1658 -1.1745 -0.0734
   53CHL1   C22 3904   6.535   5.935   8.275 -0.5953 -0.6479  0.2389
   53CHL1  H22A 3905   6.604   6.023   8.275  1.0299 -1.8709  0.1691
   53CHL1  H22B 3906   6.434   5.976   8.255 -1.1125  0.0844  3.7200
   53CHL1   C23 3907   6.532   5.869   8.420  0.0818  0.6272 -0.0936
   53CHL1  H23A 3908   6.476   5.939   8.486  0.2556  0.6958 -0.0163
   53CHL1  H23B 3909   6.459   5.786   8.417 -3.6136  3.5830  0.6245
   53CHL1   C24 3910   6.664   5.852   8.481  0.2179 -0.1082 -0.0213
   53CHL1  H24A 3911   6.723   5.782   8.418 -1.2087 -1.5357  0.1534
   53CHL1  H24B 3912   6.724   5.945   8.469 -0.0059  0.1165  0.5885
   53CHL1   C25 3913   6.669   5.806   8.630  0.1539  0.5199  0.5791
   53CHL1   H25 3914   6.603   5.879   8.681 -1.3418  0.3413 -1.0188
   53CHL1   C26 3915   6.605   5.671   8.666  0.5572 -0.4791  0.4311
   53CHL1  H26A 3916   6.629   5.601   8.583  2.8153  0.1341  0.4882
   53CHL1  H26B 3917   6.645   5.626   8.759  0.4612  0.4636  0.9353
   53CHL1  H26C 3918   6.495   5.678   8.675  0.4855  0.8924 -1.1516
   53CHL1   C27 3919   6.814   5.837   8.680 -0.0289 -0.3291  0.1678
   53CHL1  H27A 3920   6.843   5.941   8.655 -0.3145 -0.4713 -0.7830
   53CHL1  H27B 3921   6.822   5.816   8.789  0.2848  0.0239  0.2138
   53CHL1  H27C 3922   6.886   5.780   8.618  2.5203  3.2582 -0.4827
   54CHL1    C3 3923   0.398   0.628   7.111 -1.2564 -0.4858 -0.1242
   54CHL1    H3 3924   0.501   0.656   7.143 -1.2083  0.6885 -1.2431
   54CHL1    O3 3925   0.391   0.635   6.970 -0.1630 -0.3050 -0.1715
   54CHL1   H3' 3926   0.482   0.631   6.938 -0.2486  0.3234 -0.4919
   54CHL1    C4 3927   0.376   0.474   7.145 -0.2266  0.1239  0.1127
   54CHL1   H4A 3928   0.276   0.454   7.101 -0.4961  0.9488  0.3352
   54CHL1   H4B 3929   0.439   0.400   7.091  0.4024 -1.0970  2.3902
   54CHL1    C5 3930   0.381   0.450   7.292  0.0573  0.6497  0.4570
   54CHL1    C6 3931   0.456   0.348   7.348 -0.0255  0.0018  0.8296
   54CHL1    H6 3932   0.516   0.290   7.275 -0.0716  3.0945 -1.9121
   54CHL1    C7 3933   0.477   0.326   7.492  0.1026 -1.1243  0.3493
   54CHL1   H7A 3934   0.461   0.217   7.507  2.2517 -1.5575 -0.1465
   54CHL1   H7B 3935   0.583   0.352   7.512 -0.5718  0.9528  1.5888
   54CHL1    C8 3936   0.391   0.407   7.587 -0.7073 -0.0476  0.4546
   54CHL1    H8 3937   0.294   0.355   7.605 -0.3398 -1.0525 -0.3771
   54CHL1   C14 3938   0.450   0.421   7.729 -0.8956  0.3090 -0.1754
   54CHL1   H14 3939   0.543   0.482   7.715 -0.1018 -0.6388  0.8394
   54CHL1   C15 3940   0.485   0.288   7.791  0.4458  0.5232 -0.7541
   54CHL1  H15A 3941   0.406   0.211   7.778  3.5538 -2.8624 -1.0817
   54CHL1  H15B 3942   0.584   0.245   7.767  0.0030 -0.7088 -0.4309
   54CHL1   C16 3943   0.480   0.315   7.942  0.8753 -0.8538  0.5972
   54CHL1  H16A 3944   0.405   0.254   7.996 -2.4629  1.5048 -0.9960
   54CHL1  H16B 3945   0.578   0.314   7.995 -0.0447  1.6777  2.5165
   54CHL1   C17 3946   0.434   0.468   7.960 -0.2283 -0.2854  0.8508
   54CHL1   H17 3947   0.521   0.537   7.966 -1.1249  0.9455  0.0589
   54CHL1   C13 3948   0.356   0.493   7.829 -0.0235 -0.1095 -0.3447
   54CHL1   C18 3949   0.214   0.430   7.833  0.4309  0.3244 -0.6093
   54CHL1  H18A 3950   0.141   0.480   7.901  1.2516  0.1815  0.4117
   54CHL1  H18B 3951   0.157   0.443   7.739 -1.2398  1.1454  0.4526
   54CHL1  H18C 3952   0.213   0.324   7.866  1.3129  1.1111  2.2933
   54CHL1   C12 3953   0.341   0.639   7.767  0.3639  0.0840 -0.2748
   54CHL1  H12A 3954   0.278   0.706   7.830 -0.4139  0.2076 -1.1632
   54CHL1  H12B 3955   0.441   0.687   7.777  0.4916 -0.5981  2.6027
   54CHL1   C11 3956   0.281   0.645   7.625  0.0170 -1.0325 -0.1241
   54CHL1  H11A 3957   0.174   0.622   7.647  0.4128 -0.3402  2.9629
   54CHL1  H11B 3958   0.281   0.747   7.581 -1.1065 -1.6599 -1.6928
   54CHL1    C9 3959   0.361   0.550   7.531  0.5978  0.3535 -0.0094
   54CHL1    H9 3960   0.461   0.598   7.529  0.5563  0.4528  0.2316
   54CHL1   C10 3961   0.307   0.554   7.388 -0.5998 -0.6358  0.4504
   54CHL1   C19 3962   0.167   0.513   7.385  0.2618 -0.7290  0.0904
   54CHL1  H19A 3963   0.143   0.406   7.405 -4.1902 -0.4692 -2.5277
   54CHL1  H19B 3964   0.103   0.573   7.454  0.1773 -1.6927  0.8652
   54CHL1  H19C 3965   0.123   0.532   7.285  0.8779  2.4361  0.3143
   54CHL1    C1 3966   0.328   0.701   7.327  0.2743 -0.1121  0.6554
   54CHL1   H1A 3967   0.257   0.777   7.366 -0.0930  1.2649 -2.3424
   54CHL1   H1B 3968   0.426   0.746   7.351  0.3037  0.2022 -0.0088
   54CHL1    C2 3969   0.303   0.715   7.171 -0.0484 -0.0517 -0.6393
   54CHL1   H2A 3970   0.324   0.820   7.138  3.9494 -0.4011  0.1904
   54CHL1   H2B 3971   0.204   0.681   7.136 -0.0155  0.1375 -0.9244
   54CHL1   C20 3972   0.358   0.497   8.092  0.0725  0.2396  1.5180
   54CHL1   H20 3973   0.286   0.413   8.089  0.2897  0.0842 -1.0831
   54CHL1   C21 3974   0.281   0.633   8.102 -0.0225 -0.7045 -0.1155
   54CHL1  H21A 3975   0.218   0.628   8.194  0.3319 -0.5853  0.1337
   54CHL1  H21B 3976   0.205   0.628   8.021  0.0717  0.7751 -0.3314
   54CHL1  H21C 3977   0.349   0.720   8.090 -2.5405  1.0684 -3.0473
   54CHL1   C22 3978   0.448   0.474   8.214 -0.0396  0.5338 -0.1326
   54CHL1  H22A 3979   0.468   0.364   8.210  0.8255  0.7074 -1.2699
   54CHL1  H22B 3980   0.542   0.532   8.199 -0.1438  1.2833  1.7936
   54CHL1   C23 3981   0.388   0.495   8.352  0.1160 -0.2813  0.2292
   54CHL1  H23A 3982   0.381   0.605   8.365 -0.2792 -0.0964 -1.3225
   54CHL1  H23B 3983   0.287   0.452   8.340  0.3386 -1.1506  1.3162
   54CHL1   C24 3984   0.457   0.417   8.461 -1.1587  0.2054  0.3495
   54CHL1  H24A 3985   0.427   0.311   8.447  2.3757 -0.9149  0.1291
   54CHL1  H24B 3986   0.568   0.422   8.455 -1.2037  0.4530 -0.3444
   54CHL1   C25 3987   0.417   0.460   8.599 -0.0995 -0.9146 -0.7544
   54CHL1   H25 3988   0.452   0.564   8.610  1.0058 -1.2801 -0.6866
   54CHL1   C26 3989   0.260   0.463   8.611  0.5921  0.2757  0.2228
   54CHL1  H26A 3990   0.219   0.467   8.714 -0.6630  0.4018 -0.2734
   54CHL1  H26B 3991   0.206   0.546   8.562  0.9637  0.3651 -0.0412
   54CHL1  H26C 3992   0.223   0.368   8.569  0.6948  0.6696 -0.7888
   54CHL1   C27 3993   0.471   0.366   8.707 -0.2858 -0.0708 -0.1360
   54CHL1  H27A 3994   0.455   0.418   8.803 -1.5163  0.3387 -0.5485
   54CHL1  H27B 3995   0.427   0.264   8.701 -1.6723  0.5865 -2.5480
   54CHL1  H27C 3996   0.581   0.354   8.698 -0.0724  1.9483 -0.8059
   55CHL1    C3 3997   2.394   3.421   7.004 -0.4677 -0.0071  0.1588
   55CHL1    H3 3998   2.469   3.470   7.069 -0.8153 -2.1639  2.3299
   55CHL1    O3 3999   2.413   3.473   6.876  0.5347 -0.3061 -0.0492
   55CHL1   H3' 4000   2.495   3.431   6.851  0.7012 -0.9367  1.4233
   55CHL1    C4 4001   2.418   3.278   7.015  0.4870  0.5106 -0.6480
   55CHL1   H4A 4002   2.342   3.220   6.959  0.5121 -2.2419  1.9094
   55CHL1   H4B 4003   2.522   3.252   6.985  0.4370 -1.0588  0.4190
   55CHL1    C5 4004   2.403   3.243   7.166  0.3245  0.4425  0.5664
   55CHL1    C6 4005   2.502   3.183   7.227 -0.0072 -0.0851  0.2479
   55CHL1    H6 4006   2.592   3.156   7.170 -0.4604 -0.4016 -0.3274
   55CHL1    C7 4007   2.492   3.144   7.371  0.5419  1.1823  0.6497
   55CHL1   H7A 4008   2.528   3.040   7.386 -0.5707  0.1379 -3.0450
   55CHL1   H7B 4009   2.569   3.202   7.427 -0.2512  1.7396  1.1748
   55CHL1    C8 4010   2.350   3.155   7.437 -0.1273 -0.3897 -0.0328
   55CHL1    H8 4011   2.289   3.070   7.399  1.0804 -0.0078 -3.1168
   55CHL1   C14 4012   2.361   3.152   7.586  0.5941 -0.2032 -0.2244
   55CHL1   H14 4013   2.428   3.239   7.606 -0.4545  0.4111  0.7215
   55CHL1   C15 4014   2.422   3.030   7.651 -0.3750 -0.4759  0.5402
   55CHL1  H15A 4015   2.381   2.929   7.632  1.3741 -1.0118 -0.5806
   55CHL1  H15B 4016   2.533   3.037   7.647 -0.4494  3.7617  0.9157
   55CHL1   C16 4017   2.374   3.051   7.804  0.1942 -0.9888  0.5212
   55CHL1  H16A 4018   2.322   2.955   7.825  0.7239 -1.9004 -1.9901
   55CHL1  H16B 4019   2.460   3.074   7.870  1.3105 -0.3423 -1.0840
   55CHL1   C17 4020   2.274   3.167   7.810 -0.5380 -0.0819  0.2538
   55CHL1   H17 4021   2.333   3.259   7.831 -1.0719 -0.1754  2.3291
   55CHL1   C13 4022   2.223   3.179   7.663 -0.2714  0.7421  0.0676
   55CHL1   C18 4023   2.126   3.061   7.640 -0.2202 -0.0264  0.5626
   55CHL1  H18A 4024   2.157   2.967   7.690 -0.7760 -2.2589 -2.9226
   55CHL1  H18B 4025   2.019   3.082   7.660 -0.7563  0.0927 -2.0310
   55CHL1  H18C 4026   2.117   3.028   7.534 -1.2224  1.2674  0.2177
   55CHL1   C12 4027   2.168   3.312   7.617  0.3819 -0.5961  0.6517
   55CHL1  H12A 4028   2.072   3.327   7.671  0.4176 -0.1436  0.5889
   55CHL1  H12B 4029   2.239   3.393   7.643 -0.8257  0.3088  1.2141
   55CHL1   C11 4030   2.147   3.311   7.462  0.3209 -0.2759 -0.4234
   55CHL1  H11A 4031   2.083   3.223   7.440 -0.5488 -0.0575  1.1035
   55CHL1  H11B 4032   2.095   3.401   7.423  0.1669 -0.1233  0.1347
   55CHL1    C9 4033   2.282   3.285   7.387 -0.1009 -0.0593 -0.1135
   55CHL1    H9 4034   2.351   3.370   7.410  0.6612 -0.9775  1.0802
   55CHL1   C10 4035   2.272   3.294   7.237  0.1704  0.3575  0.6155
   55CHL1   C19 4036   2.158   3.202   7.193  0.2375  0.8588 -0.0659
   55CHL1  H19A 4037   2.056   3.244   7.208 -0.9641 -2.1658  0.9869
   55CHL1  H19B 4038   2.167   3.187   7.083 -0.2546 -0.8514  0.1003
   55CHL1  H19C 4039   2.174   3.106   7.248  0.8663  0.6409 -0.6194
   55CHL1    C1 4040   2.239   3.436   7.200  0.2300  0.4694 -0.5925
   55CHL1   H1A 4041   2.139   3.467   7.237  0.8303  0.9948  0.6686
   55CHL1   H1B 4042   2.307   3.510   7.249 -0.8780  0.9142  0.3270
   55CHL1    C2 4043   2.255   3.464   7.050  0.0411  0.3850 -0.1160
   55CHL1   H2A 4044   2.273   3.574   7.041  0.2172  0.6907  3.0026
   55CHL1   H2B 4045   2.168   3.429   6.991  0.3493  0.4052 -0.5856
   55CHL1   C20 4046   2.169   3.157   7.918 -0.5808  0.1411 -0.0768
   55CHL1   H20 4047   2.111   3.063   7.902  0.4703 -0.1269 -2.7500
   55CHL1   C21 4048   2.078   3.279   7.932  0.1917 -0.1956  0.1980
   55CHL1  H21A 4049   2.140   3.370   7.934  1.3774 -0.9958  1.1092
   55CHL1  H21B 4050   2.020   3.277   8.026  1.0981  0.5591  0.7875
   55CHL1  H21C 4051   2.008   3.281   7.845 -1.1038 -0.6857  1.2093
   55CHL1   C22 4052   2.233   3.134   8.059  0.1581  0.2542  0.1131
   55CHL1  H22A 4053   2.319   3.065   8.060  1.1870  1.4827 -0.6491
   55CHL1  H22B 4054   2.278   3.230   8.095  1.5520 -0.0537 -0.7579
   55CHL1   C23 4055   2.135   3.089   8.171  1.1946  0.0769 -0.2177
   55CHL1  H23A 4056   2.071   3.175   8.199 -1.0763 -1.9448  1.1774
   55CHL1  H23B 4057   2.070   3.011   8.126  1.5551  0.2174 -0.9976
   55CHL1   C24 4058   2.205   3.044   8.297  0.2731 -0.3276  0.3154
   55CHL1  H24A 4059   2.280   2.967   8.272 -1.2939 -2.1581  1.0289
   55CHL1  H24B 4060   2.259   3.133   8.335  0.1843  1.1083 -2.6806
   55CHL1   C25 4061   2.112   3.004   8.415  0.0758 -0.2768 -0.5142
   55CHL1   H25 4062   2.073   2.903   8.392 -3.0238  0.8790 -0.8396
   55CHL1   C26 4063   2.191   2.982   8.548  0.0946  0.1682  0.1148
   55CHL1  H26A 4064   2.273   2.912   8.522 -2.2496 -2.0343 -1.9339
   55CHL1  H26B 4065   2.233   3.077   8.587  1.0823  1.3287 -3.3603
   55CHL1  H26C 4066   2.128   2.926   8.620  1.9681 -1.7819  0.3444
   55CHL1   C27 4067   1.995   3.104   8.446 -0.2873  0.1729  0.2646
   55CHL1  H27A 4068   1.922   3.094   8.363  0.6275  1.1017 -0.6755
   55CHL1  H27B 4069   1.959   3.082   8.549  1.3122 -1.4236  0.5462
   55CHL1  H27C 4070   2.032   3.209   8.449  3.1618 -0.9311  0.1864
   56CHL1    C3 4071   6.378   0.152   7.081  0.1730 -0.6445  0.1908
   56CHL1    H3 4072   6.267   0.153   7.082  0.1541 -0.1821 -1.0912
   56CHL1    O3 4073   6.411   0.158   6.945  0.5379  0.1353  0.0340
   56CHL1   H3' 4074   6.401   0.068   6.913  0.3021 -0.3863  1.4815
   56CHL1    C4 4075   6.423   0.279   7.147  0.3102 -0.1982 -0.5127
   56CHL1   H4A 4076   6.531   0.296   7.134  0.6528 -0.6352  1.3811
   56CHL1   H4B 4077   6.367   0.357   7.092 -1.6878 -0.2650  1.2821
   56CHL1    C5 4078   6.389   0.270   7.295 -0.2189 -0.7065  0.5336
   56CHL1    C6 4079   6.315   0.367   7.351 -0.4829  0.5155  0.0390
   56CHL1    H6 4080   6.267   0.438   7.281  1.5946 -1.0301 -3.1657
   56CHL1    C7 4081   6.275   0.359   7.499 -0.1000 -0.4869  0.1601
   56CHL1   H7A 4082   6.280   0.464   7.536  0.4019 -0.4307 -0.0582
   56CHL1   H7B 4083   6.170   0.328   7.516 -0.5105  0.9403  0.3311
   56CHL1    C8 4084   6.363   0.265   7.587 -0.0514 -0.6595  0.2875
   56CHL1    H8 4085   6.457   0.324   7.591 -0.6058  0.5243 -2.2327
   56CHL1   C14 4086   6.304   0.244   7.725 -0.5154 -0.5421  0.1938
   56CHL1   H14 4087   6.211   0.189   7.699 -0.1984 -0.3071 -1.5923
   56CHL1   C15 4088   6.249   0.364   7.808 -0.0369 -0.4671  1.1664
   56CHL1  H15A 4089   6.337   0.432   7.815  0.7773 -0.5557 -4.3513
   56CHL1  H15B 4090   6.156   0.392   7.755 -0.0841  0.1935  1.5828
   56CHL1   C16 4091   6.229   0.297   7.946 -0.0177  0.1651  0.2298
   56CHL1  H16A 4092   6.267   0.368   8.023 -0.3096 -0.7341  1.2198
   56CHL1  H16B 4093   6.124   0.275   7.973 -0.3727  1.3519 -0.0979
   56CHL1   C17 4094   6.295   0.157   7.943 -0.5257 -0.2491 -0.1709
   56CHL1   H17 4095   6.222   0.077   7.919  2.2314 -2.7580 -0.9517
   56CHL1   C13 4096   6.389   0.156   7.815 -0.1369 -0.0616 -0.1016
   56CHL1   C18 4097   6.518   0.232   7.849 -0.0734  0.3567 -0.4875
   56CHL1  H18A 4098   6.594   0.160   7.885  0.2915  1.0256  0.1050
   56CHL1  H18B 4099   6.577   0.269   7.762  0.1365 -1.8918 -1.3647
   56CHL1  H18C 4100   6.508   0.311   7.926 -0.0687  0.2516 -0.3807
   56CHL1   C12 4101   6.417   0.013   7.745  0.3834  0.0825  0.5088
   56CHL1  H12A 4102   6.494  -0.039   7.806 -0.3847 -1.0242  0.5769
   56CHL1  H12B 4103   6.322  -0.045   7.749 -0.2054  0.8976 -1.0003
   56CHL1   C11 4104   6.476   0.046   7.609 -0.6522 -0.4061  0.0582
   56CHL1  H11A 4105   6.573   0.097   7.623  0.6506 -1.6493 -3.5036
   56CHL1  H11B 4106   6.501  -0.047   7.553  0.4812  0.6516 -1.2481
   56CHL1    C9 4107   6.389   0.134   7.518 -0.4317 -0.8280 -0.5037
   56CHL1    H9 4108   6.287   0.090   7.515 -0.6884 -0.1982 -1.3349
   56CHL1   C10 4109   6.441   0.154   7.373  0.7305  0.1629 -0.2362
   56CHL1   C19 4110   6.596   0.181   7.382  0.1950  0.2458 -0.2348
   56CHL1  H19A 4111   6.619   0.269   7.446  0.5012 -0.0671  0.0848
   56CHL1  H19B 4112   6.642   0.091   7.428  0.8079  1.4782  1.6495
   56CHL1  H19C 4113   6.647   0.204   7.286 -1.4462  1.4796 -0.8583
   56CHL1    C1 4114   6.405   0.025   7.288 -0.4434  0.8158  0.1458
   56CHL1   H1A 4115   6.442  -0.064   7.343 -1.0205  1.1172  1.0313
   56CHL1   H1B 4116   6.295   0.007   7.288 -0.8208  2.0052 -3.8855
   56CHL1    C2 4117   6.452   0.030   7.140 -0.1253 -0.0837 -0.4259
   56CHL1   H2A 4118   6.417  -0.060   7.085 -0.5303  1.1157 -2.2154
   56CHL1   H2B 4119   6.563   0.037   7.134 -0.1495 -0.4299 -1.6871
   56CHL1   C20 4120   6.355   0.118   8.080  0.8814  0.4666 -0.7106
   56CHL1   H20 4121   6.434   0.193   8.099  0.1969  0.9751  0.2147
   56CHL1   C21 4122   6.404  -0.027   8.070 -0.2287 -0.1543  0.5625
   56CHL1  H21A 4123   6.497  -0.031   8.009 -0.1400  2.2203  0.4331
   56CHL1  H21B 4124   6.333  -0.092   8.014  1.4723 -1.6683  0.0701
   56CHL1  H21C 4125   6.427  -0.072   8.168 -0.3438 -0.5641  0.4016
   56CHL1   C22 4126   6.253   0.137   8.195 -0.4253  0.5322  0.4255
   56CHL1  H22A 4127   6.212   0.240   8.186  0.3643  0.8558  0.3754
   56CHL1  H22B 4128   6.168   0.067   8.180  0.3890 -0.7597  1.5989
   56CHL1   C23 4129   6.306   0.111   8.335 -0.7112 -0.1095  0.7788
   56CHL1  H23A 4130   6.342   0.007   8.343  0.4184 -0.0888 -2.6253
   56CHL1  H23B 4131   6.392   0.173   8.368  0.4239 -1.3704  0.2580
   56CHL1   C24 4132   6.198   0.139   8.441 -0.0257  0.2019 -0.1902
   56CHL1  H24A 4133   6.150   0.235   8.414 -0.2955  0.0268 -0.3356
   56CHL1  H24B 4134   6.131   0.051   8.452 -0.4272  0.6536  1.2470
   56CHL1   C25 4135   6.258   0.178   8.580  0.0504 -0.0236 -0.5862
   56CHL1   H25 4136   6.329   0.261   8.557  0.9742 -0.3771  0.8561
   56CHL1   C26 4137   6.157   0.239   8.674 -0.2461  0.2273 -0.4872
   56CHL1  H26A 4138   6.123   0.338   8.638  1.0839  0.5235 -0.9717
   56CHL1  H26B 4139   6.202   0.255   8.774 -1.8712  0.8179  0.1846
   56CHL1  H26C 4140   6.066   0.175   8.682 -0.1427  0.1672  0.2986
   56CHL1   C27 4141   6.333   0.060   8.652  0.1070 -0.5539 -0.0994
   56CHL1  H27A 4142   6.420   0.025   8.593  0.5641  1.0002 -0.4096
   56CHL1  H27B 4143   6.370   0.111   8.743 -5.2965  1.7872  1.2035
   56CHL1  H27C 4144   6.267  -0.025   8.676 -0.4951 -0.3517 -0.9713
   57SAPC     N 4145   5.228   3.611  11.010 -0.6687  0.1700 -0.0418
   57SAPC   C12 4146   5.167   3.596  10.873  0.1946  0.3193 -0.2489
   57SAPC  H12A 4147   5.153   3.696  10.835  2.0876  0.3164 -1.0384
   57SAPC  H12B 4148   5.067   3.558  10.891 -0.4862  2.7357  1.6033
   57SAPC   C13 4149   5.350   3.700  11.002 -0.1130 -0.6250  0.0770
   57SAPC  H13A 4150   5.425   3.647  10.946  0.4117 -0.5929  0.7351
   57SAPC  H13B 4151   5.316   3.797  10.968  1.7490  0.7252  1.8156
   57SAPC  H13C 4152   5.387   3.725  11.101 -0.3380  1.3279 -0.2859
   57SAPC   C14 4153   5.128   3.667  11.108  0.3362  0.3314  0.0148
   57SAPC  H14A 4154   5.038   3.607  11.109  0.1170  0.6567 -0.0618
   57SAPC  H14B 4155   5.162   3.671  11.210  0.2031  1.1894  0.0367
   57SAPC  H14C 4156   5.094   3.767  11.082  1.8992  0.7435 -0.5392
   57SAPC   C15 4157   5.280   3.486  11.057  0.4301 -0.0489  0.1450
   57SAPC  H15A 4158   5.317   3.422  10.979  0.5280 -3.5677  2.8336
   57SAPC  H15B 4159   5.358   3.501  11.130  1.2184 -1.5851 -0.3594
   57SAPC  H15C 4160   5.206   3.416  11.093  1.4724 -0.8862  0.6941
   57SAPC   C11 4161   5.241   3.533  10.752 -0.3384  0.0195 -0.6872
   57SAPC  H11A 4162   5.337   3.588  10.744  0.4277 -0.8294  1.9237
   57SAPC  H11B 4163   5.176   3.561  10.666 -4.3102 -1.8307  1.4404
   57SAPC     P 4164   5.139   3.294  10.751 -0.1641 -0.7531  0.0588
   57SAPC   O13 4165   5.122   3.200  10.863  0.0408 -0.3740 -0.4658
   57SAPC   O14 4166   5.023   3.383  10.717  0.6953  0.3120 -0.3143
   57SAPC   O12 4167   5.267   3.394  10.762  0.1444 -0.3088  0.3266
   57SAPC   O11 4168   5.174   3.205  10.628  0.0793 -0.2251 -0.1642
   57SAPC    C1 4169   5.302   3.192  10.563 -0.3478  0.3032  0.0195
   57SAPC    HA 4170   5.323   3.286  10.507 -1.6488 -1.1096 -3.0755
   57SAPC    HB 4171   5.381   3.189  10.640  0.1796  0.2748 -0.5141
   57SAPC    C2 4172   5.307   3.074  10.468  0.0027 -0.5124  0.6967
   57SAPC    HS 4173   5.409   3.057  10.428 -1.3077 -1.6009 -2.4715
   57SAPC   O21 4174   5.211   3.094  10.357 -0.1172 -0.3758  0.5188
   57SAPC   C21 4175   5.259   3.165  10.254 -0.8115 -0.3473  0.0619
   57SAPC   O22 4176   5.382   3.193  10.240 -0.0602  0.6772 -0.3730
   57SAPC   C22 4177   5.157   3.192  10.143  0.0395 -0.2750 -0.7007
   57SAPC   H2R 4178   5.056   3.159  10.175 -0.1929  0.7199 -0.3828
   57SAPC   H2S 4179   5.139   3.300  10.128 -2.6568 -0.6761 -0.8632
   57SAPC    C3 4180   5.262   2.936  10.531  0.0431 -0.0821  0.2686
   57SAPC    HX 4181   5.153   2.921  10.521  0.3296 -2.9546  0.7871
   57SAPC    HY 4182   5.279   2.928  10.641  2.4192 -1.1733 -0.1123
   57SAPC   O31 4183   5.329   2.823  10.469 -0.0133  0.0972  0.2938
   57SAPC   C31 4184   5.257   2.715  10.422 -1.1296  0.2400 -0.6785
   57SAPC   O32 4185   5.141   2.694  10.450  0.3329  0.6443  0.6537
   57SAPC   C32 4186   5.346   2.623  10.338 -0.0929  0.2090  0.0498
   57SAPC   H2X 4187   5.309   2.518  10.340 -0.4933  0.2717 -1.8018
   57SAPC   H2Y 4188   5.448   2.636  10.380 -0.1871  3.2729 -0.4402
   57SAPC   C23 4189   5.182   3.115  10.008 -0.3574 -0.3043  0.4418
   57SAPC   H3R 4190   5.200   3.006  10.023  0.0217 -0.0549  1.9957
   57SAPC   H3S 4191   5.270   3.155   9.953 -0.4426  0.0799  0.5865
   57SAPC   C24 4192   5.055   3.127   9.916 -0.6549  0.4146  0.7766
   57SAPC   H4R 4193   5.083   3.129   9.808 -1.8255  0.1156  0.4553
   57SAPC   H4S 4194   5.014   3.228   9.938 -1.6920 -0.5544  3.6831
   57SAPC   C25 4195   4.933   3.047   9.958  0.2523 -0.5445  0.0784
   57SAPC   H5R 4196   4.904   3.075  10.060  0.1430 -0.3245 -0.0135
   57SAPC   C26 4197   4.862   2.946   9.899 -0.5342  0.3308 -0.0300
   57SAPC   H6R 4198   4.771   2.908   9.947 -0.5198 -1.4978 -1.3562
   57SAPC   C27 4199   4.886   2.886   9.759  0.1494  0.6643 -0.5259
   57SAPC   H7R 4200   4.907   2.777   9.765  0.2725  0.7288  0.2040
   57SAPC   H7S 4201   4.980   2.932   9.723  1.0780 -0.9645 -0.2685
   57SAPC   C28 4202   4.760   2.898   9.668  0.1283 -0.4233  0.1465
   57SAPC   H8R 4203   4.686   2.969   9.708 -1.7721 -0.6744 -2.6607
   57SAPC   C29 4204   4.734   2.834   9.554  0.5849  0.5120  0.1432
   57SAPC   H9R 4205   4.633   2.845   9.512 -0.5355 -0.5540  2.3660
   57SAPC  C210 4206   4.812   2.718   9.497  0.2231  0.1663 -0.1459
   57SAPC  H10R 4207   4.753   2.627   9.523  1.3277 -0.4975  0.0995
   57SAPC  H10S 4208   4.916   2.712   9.536 -0.3435 -3.6970  1.2905
   57SAPC  C211 4209   4.816   2.732   9.343 -0.0566  0.0841  0.0739
   57SAPC  H11R 4210   4.915   2.754   9.300  0.8586 -3.0869  0.3050
   57SAPC  C212 4211   4.725   2.718   9.248 -0.3206  0.5727  0.0379
   57SAPC  H12R 4212   4.750   2.747   9.145 -2.2401 -1.7591 -1.1690
   57SAPC  C213 4213   4.578   2.671   9.276 -0.0449 -0.2439 -0.1305
   57SAPC  H13R 4214   4.507   2.755   9.289  0.1145  0.3763 -2.7004
   57SAPC  H13S 4215   4.575   2.614   9.371 -2.0088  2.0135  1.2625
   57SAPC  C214 4216   4.533   2.589   9.164 -0.8180  0.7912 -0.5636
   57SAPC  H14R 4217   4.615   2.525   9.127 -1.4269  0.4448 -1.3484
   57SAPC  C215 4218   4.406   2.565   9.114 -0.3119 -0.4779  0.0747
   57SAPC  H15R 4219   4.402   2.493   9.031 -2.2942  1.5170 -1.6895
   57SAPC  C216 4220   4.282   2.628   9.160  0.8234  0.0690  0.2438
   57SAPC  H16R 4221   4.295   2.677   9.259  0.3000  1.0439 -0.1645
   57SAPC  H16S 4222   4.197   2.557   9.165  0.3146  0.5320 -1.2991
   57SAPC  C217 4223   4.233   2.732   9.053  0.7989 -0.0158  0.2404
   57SAPC  H17R 4224   4.310   2.810   9.033 -1.5143  1.9631 -1.5727
   57SAPC  H17S 4225   4.148   2.776   9.109  1.0713 -0.8413  1.3415
   57SAPC  C218 4226   4.177   2.663   8.926  0.5236  0.6035  0.1128
   57SAPC  H18R 4227   4.090   2.608   8.967  1.1665  0.6776  1.6373
   57SAPC  H18S 4228   4.243   2.582   8.888 -0.4238 -0.5919  0.9213
   57SAPC  C219 4229   4.138   2.754   8.808 -0.0878 -0.2240 -0.4574
   57SAPC  H19R 4230   4.070   2.706   8.734 -0.5106 -0.2908 -0.0284
   57SAPC  H19S 4231   4.235   2.772   8.756  0.1778  1.5335  0.5718
   57SAPC  C220 4232   4.075   2.890   8.850  0.0073  1.1361 -0.3004
   57SAPC  H20R 4233   4.157   2.949   8.896 -1.2498  0.8501  2.5172
   57SAPC  H20S 4234   3.995   2.878   8.927  2.2832 -0.3615  2.0142
   57SAPC  H20T 4235   4.050   2.939   8.754  1.2426  0.7556 -0.8323
   57SAPC   C33 4236   5.351   2.667  10.188  0.2922  0.1584  0.5752
   57SAPC   H3X 4237   5.437   2.613  10.143  0.0187 -1.3416  1.7745
   57SAPC   H3Y 4238   5.375   2.775  10.197 -1.1078  0.3619  2.5158
   57SAPC   C34 4239   5.226   2.627  10.112 -0.3961 -0.5617 -0.8821
   57SAPC   H4X 4240   5.138   2.677  10.157  0.8589 -0.4211  1.5635
   57SAPC   H4Y 4241   5.199   2.520  10.118 -0.3944 -0.4748  1.2750
   57SAPC   C35 4242   5.228   2.672   9.961 -0.0391  0.4723 -0.1351
   57SAPC   H5X 4243   5.334   2.655   9.936  0.8050  1.7228  2.2997
   57SAPC   H5Y 4244   5.192   2.775   9.940 -1.7683  0.2037  1.1974
   57SAPC   C36 4245   5.137   2.577   9.886 -0.0432 -0.3305 -0.4985
   57SAPC   H6X 4246   5.030   2.598   9.908  0.0214  0.7059 -1.1268
   57SAPC   H6Y 4247   5.152   2.471   9.914  2.4701  0.3321  0.9485
   57SAPC   C37 4248   5.169   2.599   9.738 -0.7975 -0.0091  0.1519
   57SAPC   H7X 4249   5.274   2.569   9.716 -0.8391 -0.2390  0.2689
   57SAPC   H7Y 4250   5.145   2.701   9.700  0.4863  0.9930  1.8548
   57SAPC   C38 4251   5.098   2.500   9.646  0.4899  0.2636  0.3471
   57SAPC   H8X 4252   4.992   2.533   9.656  0.3339 -0.7745  2.6989
   57SAPC   H8Y 4253   5.096   2.394   9.679 -1.4378 -0.3178 -1.4186
   57SAPC   C39 4254   5.137   2.506   9.502 -0.6070 -0.5439  0.2083
   57SAPC   H9X 4255   5.247   2.497   9.506 -0.5182 -0.4734 -1.4787
   57SAPC   H9Y 4256   5.124   2.603   9.450 -0.2007 -0.3137  0.5363
   57SAPC  C310 4257   5.078   2.398   9.414  0.0634  0.0921  0.5192
   57SAPC  H10X 4258   4.969   2.383   9.431  0.0634  0.4809  0.8643
   57SAPC  H10Y 4259   5.135   2.309   9.450  0.4536 -0.4338 -1.3152
   57SAPC  C311 4260   5.106   2.408   9.261  0.3547  0.4869 -0.1836
   57SAPC  H11X 4261   5.069   2.308   9.230 -0.2405  0.3446  0.9146
   57SAPC  H11Y 4262   5.212   2.398   9.228  0.2115  0.6703 -0.7083
   57SAPC  C312 4263   5.022   2.500   9.185 -0.4345  0.0325 -0.4797
   57SAPC  H12X 4264   5.064   2.603   9.196  0.4342 -0.4583  0.9248
   57SAPC  H12Y 4265   4.926   2.496   9.240  0.1287  0.8894  0.6108
   57SAPC  C313 4266   5.011   2.463   9.043  0.2266 -0.0134  0.6260
   57SAPC  H13X 4267   5.006   2.354   9.022 -0.7818  0.5787 -2.9578
   57SAPC  H13Y 4268   5.105   2.490   8.990 -0.5606 -0.6022 -1.1316
   57SAPC  C314 4269   4.898   2.537   8.963  0.3065  0.9932  0.1549
   57SAPC  H14X 4270   4.910   2.647   8.973 -0.0897  1.0975 -0.4688
   57SAPC  H14Y 4271   4.804   2.494   9.004  1.5003 -0.7599  1.1832
   57SAPC  C315 4272   4.885   2.504   8.812 -0.5277  0.3569  0.2340
   57SAPC  H15X 4273   4.861   2.396   8.801  2.3749 -0.2214 -1.4693
   57SAPC  H15Y 4274   4.988   2.511   8.771 -0.7354  1.1025 -0.1774
   57SAPC  C316 4275   4.783   2.599   8.739  0.3940 -0.3694  0.0037
   57SAPC  H16X 4276   4.795   2.571   8.633  2.1159 -1.1317  0.3679
   57SAPC  H16Y 4277   4.798   2.709   8.739 -1.2041 -0.0469 -2.7510
   57SAPC  C317 4278   4.646   2.587   8.798  0.1339 -0.3538 -0.0289
   57SAPC  H17X 4279   4.641   2.625   8.902 -1.1567 -1.1702  0.2265
   57SAPC  H17Y 4280   4.625   2.480   8.819 -0.1518 -0.3348 -0.2029
   57SAPC  C318 4281   4.548   2.661   8.706  0.0476  0.1823  0.3163
   57SAPC  H18X 4282   4.590   2.750   8.653 -0.7935 -1.0082 -2.5516
   57SAPC  H18Y 4283   4.461   2.687   8.769  1.1302  0.6418  1.6654
   57SAPC  H18Z 4284   4.516   2.588   8.629  1.4526 -0.2179  0.0883
   58SAPC     N 4285   6.648   1.863  11.257 -0.1649 -0.6279  0.2266
   58SAPC   C12 4286   6.611   1.782  11.135 -0.1385 -0.0377 -0.6140
   58SAPC  H12A 4287   6.537   1.837  11.079 -0.2950 -0.2177 -0.5851
   58SAPC  H12B 4288   6.557   1.697  11.175 -0.4665  0.8067  0.7664
   58SAPC   C13 4289   6.524   1.883  11.339 -0.2370  0.5481 -0.4904
   58SAPC  H13A 4290   6.556   1.946  11.420 -0.0072 -0.0821 -0.0832
   58SAPC  H13B 4291   6.440   1.923  11.284 -0.3805  0.8871 -0.0362
   58SAPC  H13C 4292   6.489   1.792  11.384  1.1309 -0.0228 -0.5165
   58SAPC   C14 4293   6.749   1.786  11.333 -0.0460  0.0461  0.6962
   58SAPC  H14A 4294   6.794   1.828  11.422  2.4757 -3.1508  1.1386
   58SAPC  H14B 4295   6.711   1.688  11.358 -0.1777 -0.4215 -1.2241
   58SAPC  H14C 4296   6.830   1.766  11.264 -1.9195 -2.1757 -1.0061
   58SAPC   C15 4297   6.714   1.995  11.221 -1.2242 -0.2719 -0.4016
   58SAPC  H15A 4298   6.784   1.982  11.140  0.6779  2.6168  0.6117
   58SAPC  H15B 4299   6.639   2.067  11.192 -1.2786 -1.0285 -2.3552
   58SAPC  H15C 4300   6.772   2.035  11.302  0.9256  0.3574 -2.1465
   58SAPC   C11 4301   6.721   1.734  11.034 -0.1711 -0.2652 -0.8671
   58SAPC  H11A 4302   6.675   1.657  10.969 -2.8350  0.2889  0.2003
   58SAPC  H11B 4303   6.799   1.688  11.098  1.7600  0.3098 -2.6989
   58SAPC     P 4304   6.680   1.919  10.861  0.0111 -0.0322  0.0577
   58SAPC   O13 4305   6.547   1.946  10.929  0.1669  0.7890 -0.2425
   58SAPC   O14 4306   6.750   2.043  10.812  0.4848  0.5378 -0.3300
   58SAPC   O12 4307   6.775   1.834  10.950 -0.1540 -0.4473 -0.1286
   58SAPC   O11 4308   6.660   1.829  10.728 -0.1345 -0.2242 -0.5351
   58SAPC    C1 4309   6.763   1.756  10.664 -0.3421 -0.0162  0.3972
   58SAPC    HA 4310   6.837   1.717  10.738  2.2023  2.1636 -0.8354
   58SAPC    HB 4311   6.724   1.663  10.617  2.3954 -1.7327  1.2593
   58SAPC    C2 4312   6.852   1.848  10.568 -0.4046 -0.6909  0.5920
   58SAPC    HS 4313   6.899   1.926  10.631 -2.6574  0.9247  0.3923
   58SAPC   O21 4314   6.773   1.898  10.460  0.3146 -0.0686  0.4646
   58SAPC   C21 4315   6.828   2.003  10.403 -0.7632 -0.1576  0.2407
   58SAPC   O22 4316   6.937   2.055  10.430 -0.0564  0.4500 -0.1393
   58SAPC   C22 4317   6.749   2.037  10.281 -0.3243  0.1425  0.1870
   58SAPC   H2R 4318   6.818   2.080  10.205 -2.1895  3.4003  0.1502
   58SAPC   H2S 4319   6.715   1.941  10.236  0.4902  0.1163 -0.3888
   58SAPC    C3 4320   6.973   1.763  10.518 -0.2721  1.0120  0.4339
   58SAPC    HX 4321   7.011   1.722  10.614  1.7808  1.7705 -0.0025
   58SAPC    HY 4322   7.059   1.825  10.484 -0.0387 -0.0015 -0.8837
   58SAPC   O31 4323   6.933   1.662  10.412 -0.3843 -0.5920  0.5427
   58SAPC   C31 4324   6.948   1.706  10.281  0.0058 -0.2734 -0.8444
   58SAPC   O32 4325   7.013   1.806  10.247  0.2119 -0.1789  0.4525
   58SAPC   C32 4326   6.892   1.589  10.189 -0.0812 -0.5232  0.3078
   58SAPC   H2X 4327   6.797   1.551  10.233 -0.2612 -0.9005 -0.3997
   58SAPC   H2Y 4328   6.970   1.511  10.182  0.1720 -0.3948  1.4482
   58SAPC   C23 4329   6.638   2.141  10.297  0.3287  0.3954  0.2433
   58SAPC   H3R 4330   6.679   2.234  10.343  0.1537  2.4294 -3.3425
   58SAPC   H3S 4331   6.560   2.084  10.351  0.2857  1.2612  1.1252
   58SAPC   C24 4332   6.564   2.184  10.161 -0.8370 -0.6423  0.5421
   58SAPC   H4R 4333   6.467   2.231  10.188 -1.5524 -0.2413 -2.4009
   58SAPC   H4S 4334   6.537   2.097  10.097 -1.4289  1.5599 -2.4024
   58SAPC   C25 4335   6.657   2.267  10.080 -0.5259 -1.4247 -0.0207
   58SAPC   H5R 4336   6.661   2.372  10.111  0.8911 -1.3388 -0.4127
   58SAPC   C26 4337   6.738   2.231   9.980  0.2222  0.4506  0.0949
   58SAPC   H6R 4338   6.805   2.307   9.937  2.1780 -1.7178 -0.9460
   58SAPC   C27 4339   6.753   2.092   9.919  0.1766 -0.1589 -0.8801
   58SAPC   H7R 4340   6.719   2.081   9.814  3.6993 -0.9172 -2.0909
   58SAPC   H7S 4341   6.698   2.019   9.982 -2.2368 -1.0995 -3.8196
   58SAPC   C28 4342   6.901   2.047   9.923 -0.0273 -0.3580  0.0050
   58SAPC   H8R 4343   6.967   2.076  10.006  1.9347 -0.0613 -1.5759
   58SAPC   C29 4344   6.951   1.970   9.831 -0.3428 -0.4253 -0.2057
   58SAPC   H9R 4345   7.060   1.960   9.822 -0.1354  1.6572 -0.4749
   58SAPC  C210 4346   6.889   1.913   9.709 -0.2163 -0.1975 -0.2368
   58SAPC  H10R 4347   6.791   1.876   9.745  0.4507  0.3855  2.4643
   58SAPC  H10S 4348   6.949   1.827   9.674  1.1607  0.7228 -0.2241
   58SAPC  C211 4349   6.869   2.008   9.591  0.4763 -0.6101 -0.2618
   58SAPC  H11R 4350   6.890   2.116   9.599 -0.7351 -0.2352 -1.7173
   58SAPC  C212 4351   6.827   1.962   9.469 -0.0799 -0.2251 -0.8593
   58SAPC  H12R 4352   6.821   2.028   9.381 -0.6862  1.0118  0.0914
   58SAPC  C213 4353   6.785   1.825   9.432 -0.1891  0.6237 -0.3414
   58SAPC  H13R 4354   6.803   1.744   9.506 -2.1582 -1.5110 -2.0566
   58SAPC  H13S 4355   6.856   1.786   9.357 -1.1845 -1.5556 -0.2046
   58SAPC  C214 4356   6.641   1.812   9.391  0.2967 -0.0798 -0.2965
   58SAPC  H14R 4357   6.561   1.865   9.445  1.1863  0.6735  0.3020
   58SAPC  C215 4358   6.605   1.767   9.271  0.1780  0.2643  0.4920
   58SAPC  H15R 4359   6.498   1.766   9.247  0.3551  1.5239 -0.4079
   58SAPC  C216 4360   6.693   1.710   9.160  0.0480  0.0936 -0.4430
   58SAPC  H16R 4361   6.660   1.606   9.138  0.1916 -0.0587  0.0618
   58SAPC  H16S 4362   6.798   1.707   9.196 -0.7897  0.0818  2.1446
   58SAPC  C217 4363   6.707   1.815   9.047  0.1410  0.1340 -0.3600
   58SAPC  H17R 4364   6.768   1.905   9.071  1.0971 -0.1428 -1.6295
   58SAPC  H17S 4365   6.602   1.850   9.036  0.7686  1.9172 -1.1717
   58SAPC  C218 4366   6.780   1.764   8.925 -0.0286 -0.3594  0.4380
   58SAPC  H18R 4367   6.702   1.702   8.876  1.1533 -0.9186 -0.8057
   58SAPC  H18S 4368   6.860   1.686   8.929 -0.8023 -1.2102 -0.0775
   58SAPC  C219 4369   6.803   1.883   8.828 -0.2960 -0.2849 -0.6319
   58SAPC  H19R 4370   6.878   1.946   8.881 -0.6684 -2.4442  2.7674
   58SAPC  H19S 4371   6.717   1.952   8.812  0.0318  0.0355 -1.0436
   58SAPC  C220 4372   6.868   1.836   8.697  0.8895 -0.2071  0.4993
   58SAPC  H20R 4373   6.789   1.787   8.637  0.2455  0.9143  0.4169
   58SAPC  H20S 4374   6.954   1.766   8.705 -0.7418 -2.2132  1.5151
   58SAPC  H20T 4375   6.908   1.927   8.647 -0.0119  0.5175  1.0651
   58SAPC   C33 4376   6.845   1.641  10.044  0.0950  0.3792 -0.4713
   58SAPC   H3X 4377   6.939   1.678   9.997  0.1785 -0.6466 -1.1370
   58SAPC   H3Y 4378   6.772   1.724  10.035 -0.5443  0.1466  1.8703
   58SAPC   C34 4379   6.790   1.527   9.960  0.1703  0.0636 -0.0360
   58SAPC   H4X 4380   6.719   1.463  10.017  0.3576  0.5997  0.8285
   58SAPC   H4Y 4381   6.873   1.459   9.931 -1.5800 -1.5371 -1.4730
   58SAPC   C35 4382   6.737   1.571   9.824  0.2327 -0.5804 -0.4648
   58SAPC   H5X 4383   6.827   1.619   9.781  1.3053 -0.8424  1.3685
   58SAPC   H5Y 4384   6.657   1.649   9.817  1.0985  0.5058  1.1058
   58SAPC   C36 4385   6.689   1.447   9.746 -0.3417 -0.7291 -0.1074
   58SAPC   H6X 4386   6.584   1.425   9.776  0.4913 -0.8064  3.0603
   58SAPC   H6Y 4387   6.747   1.362   9.787 -2.1934 -2.0730 -0.1676
   58SAPC   C37 4388   6.718   1.450   9.591  0.4592 -0.1732  0.7133
   58SAPC   H7X 4389   6.815   1.399   9.573  2.0312  2.9085 -0.1297
   58SAPC   H7Y 4390   6.745   1.553   9.560 -0.0024 -0.0353  0.7594
   58SAPC   C38 4391   6.620   1.376   9.505  0.3120 -0.0384  0.0076
   58SAPC   H8X 4392   6.521   1.420   9.526 -0.0110 -0.3915 -0.7343
   58SAPC   H8Y 4393   6.616   1.270   9.538 -0.1947  0.2364  0.8400
   58SAPC   C39 4394   6.639   1.378   9.357  0.4722  0.8292 -0.0983
   58SAPC   H9X 4395   6.734   1.331   9.325 -1.0898 -2.1234 -0.8671
   58SAPC   H9Y 4396   6.640   1.484   9.325  2.3976  1.8321  2.8442
   58SAPC  C310 4397   6.528   1.294   9.293  0.1244  0.4712 -0.4159
   58SAPC  H10X 4398   6.426   1.312   9.331 -0.6540  0.2716 -2.3077
   58SAPC  H10Y 4399   6.549   1.188   9.319  1.5478  1.2686  2.0087
   58SAPC  C311 4400   6.536   1.290   9.141  0.0910 -0.3023 -0.2995
   58SAPC  H11X 4401   6.635   1.247   9.113  0.0628 -0.6602  0.1381
   58SAPC  H11Y 4402   6.517   1.395   9.113  1.1090  0.2047  0.8387
   58SAPC  C312 4403   6.418   1.200   9.101  1.4748 -0.1479 -0.2621
   58SAPC  H12X 4404   6.330   1.231   9.160  0.1502 -1.1033 -1.6613
   58SAPC  H12Y 4405   6.446   1.096   9.128 -1.9437 -0.9982  0.4901
   58SAPC  C313 4406   6.379   1.221   8.956 -0.0196  0.4307  0.5041
   58SAPC  H13X 4407   6.473   1.208   8.898 -0.3048  0.0463  0.1276
   58SAPC  H13Y 4408   6.335   1.323   8.942 -1.9908 -0.0178  2.7338
   58SAPC  C314 4409   6.268   1.119   8.916  0.4787 -0.1086 -0.1759
   58SAPC  H14X 4410   6.181   1.121   8.985  1.9858 -1.6323  1.8851
   58SAPC  H14Y 4411   6.312   1.020   8.941 -1.8535 -1.1881 -0.1334
   58SAPC  C315 4412   6.225   1.124   8.770 -0.1733  0.5463 -0.7365
   58SAPC  H15X 4413   6.179   1.221   8.744  0.1160  0.1506 -2.9413
   58SAPC  H15Y 4414   6.145   1.047   8.763  1.3452 -1.3256  1.1396
   58SAPC  C316 4415   6.330   1.073   8.673 -0.0592 -0.4762  0.1240
   58SAPC  H16X 4416   6.400   1.154   8.643 -1.8542  1.2572  0.4027
   58SAPC  H16Y 4417   6.278   1.044   8.580 -0.5086  0.0028  0.2235
   58SAPC  C317 4418   6.400   0.930   8.715  0.6124 -0.4795  0.5302
   58SAPC  H17X 4419   6.318   0.859   8.740 -0.1141  0.8199  2.0485
   58SAPC  H17Y 4420   6.465   0.930   8.805  2.1956 -0.0635 -0.5606
   58SAPC  C318 4421   6.486   0.866   8.603  0.0822 -1.0646  0.1989
   58SAPC  H18X 4422   6.422   0.821   8.524 -1.7997  2.9887 -0.8234
   58SAPC  H18Y 4423   6.546   0.788   8.654  0.3341 -0.4619  0.8313
   58SAPC  H18Z 4424   6.544   0.941   8.546 -1.3839 -2.0530 -2.8497
   59SAPC     N 4425   2.004   4.258  11.360 -0.0787  0.1485  0.1227
   59SAPC   C12 4426   2.101   4.344  11.284  0.7777  0.3078 -0.2682
   59SAPC  H12A 4427   2.185   4.284  11.254 -0.5289 -0.8149 -1.8558
   59SAPC  H12B 4428   2.120   4.429  11.348 -0.1423 -1.2184  2.1679
   59SAPC   C13 4429   1.964   4.139  11.277  0.4197 -0.0647 -0.1406
   59SAPC  H13A 4430   2.053   4.086  11.245  0.3251 -0.1850 -0.2053
   59SAPC  H13B 4431   1.909   4.068  11.337 -1.3687 -0.3648 -2.0082
   59SAPC  H13C 4432   1.898   4.167  11.196 -1.3482  2.7795  2.0770
   59SAPC   C14 4433   2.076   4.200  11.487 -0.2062  0.3982 -0.3581
   59SAPC  H14A 4434   2.123   4.278  11.545  2.1643  0.3016 -2.0054
   59SAPC  H14B 4435   2.007   4.150  11.554 -0.2036 -0.6602 -1.1223
   59SAPC  H14C 4436   2.152   4.128  11.462 -2.0587 -1.5712 -0.7125
   59SAPC   C15 4437   1.888   4.331  11.409  0.8934 -0.0739  0.4993
   59SAPC  H15A 4438   1.917   4.407  11.479  0.1031 -0.2758  1.0607
   59SAPC  H15B 4439   1.832   4.380  11.331  2.6449  0.1947 -0.6597
   59SAPC  H15C 4440   1.822   4.270  11.469 -0.0770 -0.4689 -0.9159
   59SAPC   C11 4441   2.046   4.401  11.154  0.4796 -0.7124 -0.0353
   59SAPC  H11A 4442   2.016   4.316  11.089  0.0488 -2.4817  2.3564
   59SAPC  H11B 4443   2.122   4.462  11.100 -2.3529  0.9068 -2.5676
   59SAPC     P 4444   1.958   4.629  11.254 -0.0562  0.5612 -0.4444
   59SAPC   O13 4445   1.861   4.639  11.370 -0.0217  0.1362  0.0415
   59SAPC   O14 4446   2.101   4.647  11.284 -0.2637  0.2778  0.2637
   59SAPC   O12 4447   1.929   4.487  11.177 -0.2461  0.0844 -0.0697
   59SAPC   O11 4448   1.926   4.742  11.148  0.3617 -0.5415  0.2161
   59SAPC    C1 4449   1.835   4.740  11.036  1.3787 -0.1640 -0.3830
   59SAPC    HA 4450   1.736   4.707  11.076  2.1097 -0.6838  1.0629
   59SAPC    HB 4451   1.824   4.845  11.003 -1.4565  0.2010  1.3627
   59SAPC    C2 4452   1.881   4.654  10.911 -0.2091 -0.3300  0.1187
   59SAPC    HS 4453   1.868   4.547  10.937 -0.3225 -0.4509 -0.4293
   59SAPC   O21 4454   2.019   4.689  10.878  0.0722 -0.1570  0.4821
   59SAPC   C21 4455   2.075   4.594  10.803 -0.7342 -0.2373  0.6507
   59SAPC   O22 4456   2.039   4.480  10.785 -0.3903 -0.1996  0.1226
   59SAPC   C22 4457   2.183   4.649  10.711 -0.1918 -0.3886 -0.2017
   59SAPC   H2R 4458   2.140   4.683  10.614 -1.0404  1.1125  0.6460
   59SAPC   H2S 4459   2.222   4.746  10.749 -0.0607 -0.7439  0.5862
   59SAPC    C3 4460   1.788   4.683  10.793  0.3747 -1.0459 -0.1374
   59SAPC    HX 4461   1.833   4.632  10.705  1.6508 -0.5862  0.2258
   59SAPC    HY 4462   1.787   4.793  10.776 -1.6253 -0.9688  0.3240
   59SAPC   O31 4463   1.652   4.644  10.822  0.8324  0.1144 -0.3693
   59SAPC   C31 4464   1.569   4.656  10.719  0.7223  0.0634  0.6028
   59SAPC   O32 4465   1.600   4.692  10.609 -0.1659 -0.5012  0.3455
   59SAPC   C32 4466   1.446   4.594  10.764 -0.5204  0.7253  0.5260
   59SAPC   H2X 4467   1.374   4.676  10.743  0.2184  1.3121  0.2576
   59SAPC   H2Y 4468   1.443   4.567  10.871  1.7913  3.8343  1.5082
   59SAPC   C23 4469   2.308   4.558  10.684  0.0338 -0.0129  0.7675
   59SAPC   H3R 4470   2.284   4.461  10.732  0.1367 -0.3768  0.0981
   59SAPC   H3S 4471   2.406   4.598  10.716  0.6148  0.4570 -1.3953
   59SAPC   C24 4472   2.323   4.542  10.533  0.6446  0.6628 -0.1601
   59SAPC   H4R 4473   2.236   4.478  10.505  1.2462 -0.6246  0.7764
   59SAPC   H4S 4474   2.401   4.464  10.516  0.4684  1.0576 -3.4176
   59SAPC   C25 4475   2.352   4.663  10.443  0.1851 -0.0649  0.9875
   59SAPC   H5R 4476   2.435   4.719  10.489  1.5252 -1.0749 -0.1040
   59SAPC   C26 4477   2.316   4.691  10.314 -0.7932 -0.2942  0.5598
   59SAPC   H6R 4478   2.350   4.785  10.268 -1.8460  0.2302  0.8394
   59SAPC   C27 4479   2.234   4.612  10.221  0.5617  0.1742  0.3462
   59SAPC   H7R 4480   2.162   4.682  10.173 -2.0701 -1.0668  2.1856
   59SAPC   H7S 4481   2.167   4.545  10.280 -0.1914  0.8763  0.3190
   59SAPC   C28 4482   2.325   4.541  10.125 -0.0713 -1.0178 -0.8539
   59SAPC   H8R 4483   2.408   4.487  10.173 -1.2280 -2.5162 -0.4742
   59SAPC   C29 4484   2.319   4.539   9.989  0.3907 -0.4642  0.1602
   59SAPC   H9R 4485   2.391   4.477   9.933  0.1960  0.3447 -1.0399
   59SAPC  C210 4486   2.219   4.606   9.895  0.6365 -0.6809 -0.5804
   59SAPC  H10R 4487   2.278   4.664   9.821  0.6429 -0.7522 -0.6317
   59SAPC  H10S 4488   2.151   4.669   9.955 -0.7609 -1.3992 -1.3494
   59SAPC  C211 4489   2.147   4.498   9.817  0.2621  0.6173  0.1935
   59SAPC  H11R 4490   2.046   4.475   9.856  0.8830 -0.2661  1.3299
   59SAPC  C212 4491   2.192   4.442   9.701 -0.0532  0.4813 -0.1829
   59SAPC  H12R 4492   2.124   4.379   9.641 -1.6432  1.0867  0.9127
   59SAPC  C213 4493   2.322   4.475   9.636  0.1905 -0.0851  0.4353
   59SAPC  H13R 4494   2.356   4.380   9.589 -0.5327 -0.3045  0.3423
   59SAPC  H13S 4495   2.394   4.498   9.718 -0.5971 -2.7796  2.0310
   59SAPC  C214 4496   2.297   4.581   9.528 -0.0408 -0.0131 -0.0768
   59SAPC  H14R 4497   2.262   4.680   9.560 -0.5932 -0.3317  0.3177
   59SAPC  C215 4498   2.306   4.573   9.396 -0.3895 -0.8453  0.2349
   59SAPC  H15R 4499   2.271   4.658   9.336  2.1538  0.4673  0.4831
   59SAPC  C216 4500   2.345   4.448   9.323  0.5116  0.0455  0.0535
   59SAPC  H16R 4501   2.263   4.377   9.344  0.2012  0.3327 -0.1830
   59SAPC  H16S 4502   2.446   4.417   9.358  0.6914  0.2995 -0.2369
   59SAPC  C217 4503   2.360   4.462   9.169 -0.1717  0.6829 -0.0499
   59SAPC  H17R 4504   2.401   4.368   9.127 -0.1990  0.2675  0.8382
   59SAPC  H17S 4505   2.426   4.548   9.143 -1.2691  2.6879  3.1646
   59SAPC  C218 4506   2.223   4.485   9.100 -0.8594  0.1166  0.2068
   59SAPC  H18R 4507   2.177   4.579   9.137  1.9368  0.4538  3.4298
   59SAPC  H18S 4508   2.157   4.396   9.100 -0.3676 -0.2556  0.5680
   59SAPC  C219 4509   2.245   4.518   8.953  0.2441 -0.3723 -0.1278
   59SAPC  H19R 4510   2.331   4.587   8.939  0.3485 -0.1590  1.3409
   59SAPC  H19S 4511   2.158   4.582   8.928 -1.2684 -1.2649  2.4207
   59SAPC  C220 4512   2.257   4.385   8.867  0.2695  0.0419 -0.0653
   59SAPC  H20R 4513   2.165   4.322   8.864 -0.0529  0.2863  2.7100
   59SAPC  H20S 4514   2.337   4.330   8.922 -0.8563 -1.9561 -0.3085
   59SAPC  H20T 4515   2.275   4.410   8.760 -1.4593 -1.7185 -0.8374
   59SAPC   C33 4516   1.424   4.467  10.678 -0.5318 -0.4417  0.3721
   59SAPC   H3X 4517   1.427   4.493  10.570  0.0384 -0.3909  0.3991
   59SAPC   H3Y 4518   1.318   4.444  10.704  0.1061 -2.5145  1.2842
   59SAPC   C34 4519   1.521   4.358  10.710  0.0879  0.4547 -0.1091
   59SAPC   H4X 4520   1.514   4.323  10.815 -1.1256 -2.3825 -1.0341
   59SAPC   H4Y 4521   1.623   4.401  10.704  0.5686 -0.3460  1.6438
   59SAPC   C35 4522   1.491   4.240  10.611 -0.6925  0.0164 -0.0507
   59SAPC   H5X 4523   1.490   4.289  10.511  2.4449 -0.8726 -0.6408
   59SAPC   H5Y 4524   1.402   4.182  10.642 -0.6123 -0.7592 -1.2065
   59SAPC   C36 4525   1.610   4.138  10.612  0.5105 -0.2838 -0.2289
   59SAPC   H6X 4526   1.607   4.090  10.712  2.9325 -1.1467 -0.5075
   59SAPC   H6Y 4527   1.699   4.204  10.608  0.5191 -0.1819  1.0947
   59SAPC   C37 4528   1.590   4.028  10.499 -0.3793 -0.0846 -0.9590
   59SAPC   H7X 4529   1.502   3.967  10.529  0.0996 -0.6939 -0.7835
   59SAPC   H7Y 4530   1.676   3.959  10.511 -1.0993 -0.8952 -0.3206
   59SAPC   C38 4531   1.592   4.078  10.353 -0.1488 -0.2934 -0.0409
   59SAPC   H8X 4532   1.658   4.167  10.349  1.3853 -1.4374 -2.7366
   59SAPC   H8Y 4533   1.490   4.115  10.333 -0.4136 -0.6656  0.5606
   59SAPC   C39 4534   1.648   3.968  10.251  0.4885  0.0589 -0.3563
   59SAPC   H9X 4535   1.586   3.877  10.265 -0.8495  1.1488  1.1700
   59SAPC   H9Y 4536   1.751   3.942  10.283  0.0156 -1.2240  0.1780
   59SAPC  C310 4537   1.631   4.014  10.112  0.5497 -0.6296  0.4605
   59SAPC  H10X 4538   1.704   4.093  10.082 -1.8238  1.0198 -1.3797
   59SAPC  H10Y 4539   1.538   4.075  10.105  2.6110  2.8404  0.8125
   59SAPC  C311 4540   1.660   3.898  10.006 -0.6894  0.8637 -0.9281
   59SAPC  H11X 4541   1.589   3.815  10.026 -0.3214  0.6540 -0.4601
   59SAPC  H11Y 4542   1.766   3.874  10.031 -0.9424  0.9892  0.3425
   59SAPC  C312 4543   1.649   3.945   9.863  0.0378  1.4702 -0.2144
   59SAPC  H12X 4544   1.709   4.037   9.847  2.4366  0.1350  0.5177
   59SAPC  H12Y 4545   1.540   3.963   9.854 -0.7344 -2.5081 -0.4868
   59SAPC  C313 4546   1.677   3.834   9.763 -0.3336 -0.1051  0.7667
   59SAPC  H13X 4547   1.609   3.750   9.786 -2.1211  1.3959  1.2625
   59SAPC  H13Y 4548   1.778   3.791   9.783 -0.2393 -0.0966  0.3400
   59SAPC  C314 4549   1.675   3.881   9.616 -0.0459  0.0384  0.7308
   59SAPC  H14X 4550   1.592   3.954   9.600  1.0028  1.0383 -0.2939
   59SAPC  H14Y 4551   1.662   3.798   9.544 -0.9260 -1.0801  2.1312
   59SAPC  C315 4552   1.812   3.942   9.577  0.0238  0.5107 -0.2399
   59SAPC  H15X 4553   1.897   3.870   9.573 -0.0824  0.3953 -0.3858
   59SAPC  H15Y 4554   1.831   4.029   9.643 -0.7924  1.5992 -1.3946
   59SAPC  C316 4555   1.803   4.018   9.448  0.1220 -0.6796 -0.6124
   59SAPC  H16X 4556   1.893   4.082   9.438 -0.3141  0.0397 -0.0788
   59SAPC  H16Y 4557   1.719   4.091   9.448  0.9442  0.2955 -0.1245
   59SAPC  C317 4558   1.784   3.930   9.326 -0.6578 -0.4505  0.6208
   59SAPC  H17X 4559   1.737   3.834   9.353 -1.9516  0.0995  0.3692
   59SAPC  H17Y 4560   1.884   3.886   9.305 -0.5183  0.1803 -0.0725
   59SAPC  C318 4561   1.718   3.998   9.202 -0.3676 -0.0987 -0.4062
   59SAPC  H18X 4562   1.687   3.944   9.110 -1.0307 -2.3656  1.0800
   59SAPC  H18Y 4563   1.783   4.081   9.167 -0.3421 -0.0944 -0.3484
   59SAPC  H18Z 4564   1.629   4.052   9.240  0.8470  0.3177  2.0242
   60SAPC     N 4565   5.374   1.303  10.812  0.0014  0.4816 -0.5956
   60SAPC   C12 4566   5.289   1.192  10.747  0.0495 -0.1689 -0.1707
   60SAPC  H12A 4567   5.245   1.241  10.661 -0.7637 -1.7702 -0.7053
   60SAPC  H12B 4568   5.211   1.173  10.820 -0.9564 -0.8824 -1.3827
   60SAPC   C13 4569   5.378   1.292  10.967  0.2713 -0.2614  0.2444
   60SAPC  H13A 4570   5.301   1.344  11.021  0.1081  0.8861 -1.0528
   60SAPC  H13B 4571   5.385   1.188  10.996  0.0194 -0.4023 -0.1845
   60SAPC  H13C 4572   5.469   1.338  11.001 -0.3821  1.5629 -0.3811
   60SAPC   C14 4573   5.510   1.296  10.770 -0.3203  0.1610  0.3222
   60SAPC  H14A 4574   5.522   1.292  10.662 -0.6424  1.5331  0.2169
   60SAPC  H14B 4575   5.568   1.375  10.814  2.1807 -1.7420  0.6739
   60SAPC  H14C 4576   5.542   1.201  10.809  0.3405  0.3056  0.1502
   60SAPC   C15 4577   5.318   1.441  10.775  0.4859  0.0490 -0.2898
   60SAPC  H15A 4578   5.295   1.459  10.671 -1.6134 -0.6271  0.0159
   60SAPC  H15B 4579   5.220   1.466  10.811  1.0830  2.5501 -0.1757
   60SAPC  H15C 4580   5.386   1.518  10.809  2.3109 -2.0003  0.9807
   60SAPC   C11 4581   5.360   1.066  10.703 -0.6998 -0.2762  0.0635
   60SAPC  H11A 4582   5.443   1.088  10.633 -0.4630  1.2741  0.7894
   60SAPC  H11B 4583   5.292   1.012  10.634 -0.2020 -0.1973 -0.4921
   60SAPC     P 4584   5.384   0.835  10.816  0.2376  0.4396  0.0901
   60SAPC   O13 4585   5.487   0.766  10.899  0.3449  0.4031 -0.2432
   60SAPC   O14 4586   5.237   0.823  10.848 -0.7707  0.4681  0.2784
   60SAPC   O12 4587   5.406   0.993  10.818 -0.2003  0.5307  0.0522
   60SAPC   O11 4588   5.399   0.797  10.659 -0.1511 -0.2936  0.8145
   60SAPC    C1 4589   5.511   0.728  10.611 -0.0787  0.1803 -0.5243
   60SAPC    HA 4590   5.598   0.797  10.613 -0.3996  0.5897  1.8245
   60SAPC    HB 4591   5.543   0.644  10.676  0.0972 -1.1731 -2.2684
   60SAPC    C2 4592   5.476   0.676  10.468  0.1479  0.0819 -0.3938
   60SAPC    HS 4593   5.555   0.613  10.423  0.1527  0.3973 -0.8320
   60SAPC   O21 4594   5.441   0.789  10.383 -0.4474 -0.1252  0.4848
   60SAPC   C21 4595   5.546   0.856  10.333  0.0129  0.1931  1.2705
   60SAPC   O22 4596   5.663   0.826  10.343 -0.0418  0.4252  0.6301
   60SAPC   C22 4597   5.500   0.971  10.245 -0.0286  0.1861 -0.7360
   60SAPC   H2R 4598   5.391   0.975  10.269  0.5705  0.9022  2.3669
   60SAPC   H2S 4599   5.555   1.063  10.276  1.9416 -2.1553  3.6222
   60SAPC    C3 4600   5.358   0.576  10.475  0.4733  0.0526  0.2232
   60SAPC    HX 4601   5.271   0.640  10.501  0.5802 -0.0073  0.7466
   60SAPC    HY 4602   5.384   0.498  10.551  0.0634 -1.3232 -0.9961
   60SAPC   O31 4603   5.352   0.508  10.348 -0.0736 -0.5122 -0.7937
   60SAPC   C31 4604   5.276   0.554  10.260  0.7059  0.7147 -1.5435
   60SAPC   O32 4605   5.202   0.644  10.273  0.3315  0.0927 -0.1666
   60SAPC   C32 4606   5.283   0.470  10.132  0.3757 -0.4699 -0.1809
   60SAPC   H2X 4607   5.281   0.369  10.179  1.9815  0.0682  1.1086
   60SAPC   H2Y 4608   5.382   0.487  10.085  1.3940 -1.5402  1.4585
   60SAPC   C23 4609   5.528   0.961  10.094  0.0646  0.4475  0.1016
   60SAPC   H3R 4610   5.627   0.910  10.087 -1.6655 -3.1572 -0.9244
   60SAPC   H3S 4611   5.525   1.063  10.050  0.1414  0.5850  0.4132
   60SAPC   C24 4612   5.425   0.875  10.028  0.1068 -0.3064 -0.5377
   60SAPC   H4R 4613   5.325   0.896  10.071 -0.8423 -0.2706 -2.6309
   60SAPC   H4S 4614   5.443   0.768  10.052  0.9150  0.1356  0.9722
   60SAPC   C25 4615   5.425   0.892   9.881 -0.7236 -0.2377 -0.0453
   60SAPC   H5R 4616   5.530   0.878   9.850  0.1751  2.9830  1.1861
   60SAPC   C26 4617   5.332   0.914   9.791 -0.1273 -0.3128  0.8358
   60SAPC   H6R 4618   5.365   0.923   9.687 -1.4506 -0.6035  0.3719
   60SAPC   C27 4619   5.184   0.934   9.811  0.4396  0.2870 -0.0679
   60SAPC   H7R 4620   5.136   0.856   9.874 -1.6907 -0.1745 -2.0923
   60SAPC   H7S 4621   5.147   0.918   9.707  0.8902  0.4426 -0.2538
   60SAPC   C28 4622   5.139   1.060   9.874 -0.0843 -0.6627  0.0496
   60SAPC   H8R 4623   5.178   1.079   9.975  2.3930  1.5078 -1.2000
   60SAPC   C29 4624   5.048   1.148   9.816  0.4262  0.0749 -0.7708
   60SAPC   H9R 4625   5.022   1.238   9.873  2.2402  0.8974 -1.1551
   60SAPC  C210 4626   4.987   1.136   9.684  0.2038  0.8051 -0.6516
   60SAPC  H10R 4627   5.069   1.131   9.609 -0.8625  4.3028 -2.2737
   60SAPC  H10S 4628   4.932   1.227   9.650  1.1468  1.5715 -0.1985
   60SAPC  C211 4629   4.893   1.012   9.672  0.0089 -0.4585 -0.6459
   60SAPC  H11R 4630   4.849   0.977   9.766 -1.8087 -0.0905 -1.3184
   60SAPC  C212 4631   4.871   0.947   9.556 -0.0667 -0.9468  0.3069
   60SAPC  H12R 4632   4.817   0.854   9.577 -0.3291 -0.3584  2.4828
   60SAPC  C213 4633   4.922   0.982   9.420 -0.2701  0.5030 -0.9748
   60SAPC  H13R 4634   4.935   1.092   9.409  1.9883  0.3012 -0.7967
   60SAPC  H13S 4635   4.843   0.961   9.344  2.1081  1.7891 -4.0500
   60SAPC  C214 4636   5.044   0.909   9.373 -0.1423  0.2603 -0.0765
   60SAPC  H14R 4637   5.137   0.967   9.380 -0.5374  1.0719 -1.2848
   60SAPC  C215 4638   5.050   0.783   9.321 -0.2001 -0.2084 -0.0757
   60SAPC  H15R 4639   5.149   0.742   9.295 -0.8375 -1.0365 -1.2772
   60SAPC  C216 4640   4.936   0.683   9.312  0.0843  1.0864 -0.3127
   60SAPC  H16R 4641   4.852   0.720   9.375  1.1196  1.0117  1.1893
   60SAPC  H16S 4642   4.960   0.585   9.360 -1.6176  0.8511  0.1335
   60SAPC  C217 4643   4.869   0.668   9.171 -0.5070  0.2791  0.7207
   60SAPC  H17R 4644   4.948   0.640   9.099 -1.4090 -0.0861 -0.1460
   60SAPC  H17S 4645   4.825   0.767   9.147 -1.4850 -0.2991  0.0504
   60SAPC  C218 4646   4.770   0.558   9.172 -0.2419 -0.3882  0.0668
   60SAPC  H18R 4647   4.685   0.577   9.241  0.2218  0.1335  0.5135
   60SAPC  H18S 4648   4.816   0.465   9.213 -1.2734 -1.8258 -1.9056
   60SAPC  C219 4649   4.712   0.541   9.027  0.6106 -0.1924 -0.1707
   60SAPC  H19R 4650   4.792   0.506   8.958 -0.2643 -1.5630 -0.5290
   60SAPC  H19S 4651   4.670   0.636   8.989 -0.9095 -1.1627 -0.9719
   60SAPC  C220 4652   4.606   0.429   9.031 -0.8695 -0.0919 -0.3625
   60SAPC  H20R 4653   4.512   0.468   9.076 -0.1161  1.4022 -0.0042
   60SAPC  H20S 4654   4.641   0.336   9.080  0.1714  0.2892 -0.3493
   60SAPC  H20T 4655   4.595   0.398   8.925  2.3467 -0.5471 -0.6638
   60SAPC   C33 4656   5.163   0.487  10.031  0.0929 -0.3911 -0.2117
   60SAPC   H3X 4657   5.176   0.586   9.982 -1.0739  0.4706  1.1421
   60SAPC   H3Y 4658   5.068   0.472  10.085 -1.4048 -0.3180 -2.6713
   60SAPC   C34 4659   5.180   0.382   9.923  0.1162 -0.5405  0.6760
   60SAPC   H4X 4660   5.197   0.283   9.969 -1.5472 -1.8470 -1.3174
   60SAPC   H4Y 4661   5.264   0.415   9.858 -0.8386  1.2453  0.2653
   60SAPC   C35 4662   5.056   0.366   9.822  0.1081 -0.7447 -0.5173
   60SAPC   H5X 4663   4.982   0.300   9.873  0.5215 -1.9788 -1.4491
   60SAPC   H5Y 4664   5.075   0.299   9.735 -0.1898  0.0643 -1.2215
   60SAPC   C36 4665   4.988   0.500   9.782  0.5851  0.1601 -0.3154
   60SAPC   H6X 4666   5.069   0.557   9.731 -0.7432  0.6647 -1.9313
   60SAPC   H6Y 4667   4.935   0.546   9.869 -0.6920 -1.5904 -0.1248
   60SAPC   C37 4668   4.890   0.491   9.666 -0.4729  0.0621  0.5618
   60SAPC   H7X 4669   4.940   0.424   9.593 -0.5829  0.9406 -0.3498
   60SAPC   H7Y 4670   4.875   0.591   9.618 -0.7044 -0.7564 -1.1307
   60SAPC   C38 4671   4.750   0.447   9.704 -0.3099 -0.0990 -0.1638
   60SAPC   H8X 4672   4.701   0.522   9.769 -1.3865  0.8682 -2.0004
   60SAPC   H8Y 4673   4.748   0.352   9.762 -2.0198  0.2068  0.3433
   60SAPC   C39 4674   4.651   0.436   9.587 -0.1240  0.8350 -0.3939
   60SAPC   H9X 4675   4.639   0.534   9.536  1.6393  1.8798  1.0919
   60SAPC   H9Y 4676   4.553   0.410   9.632  0.0823  1.8299  0.6894
   60SAPC  C310 4677   4.686   0.324   9.484 -0.3616 -0.1687 -1.2871
   60SAPC  H10X 4678   4.707   0.235   9.547  2.3373  2.1473  1.3982
   60SAPC  H10Y 4679   4.789   0.337   9.446  0.8464 -1.4913  1.2624
   60SAPC  C311 4680   4.586   0.299   9.373  0.3190 -0.1946 -0.1731
   60SAPC  H11X 4681   4.586   0.390   9.310  0.8232  0.6482  1.0314
   60SAPC  H11Y 4682   4.482   0.311   9.411 -0.8764 -0.6668 -3.0115
   60SAPC  C312 4683   4.600   0.163   9.288 -0.0359 -0.2774 -0.6051
   60SAPC  H12X 4684   4.542   0.175   9.195  0.1599 -1.5854 -0.9190
   60SAPC  H12Y 4685   4.548   0.077   9.336  0.1857  0.9388  2.0115
   60SAPC  C313 4686   4.741   0.115   9.244  0.0043 -0.8218 -0.3749
   60SAPC  H13X 4687   4.810   0.103   9.330 -0.5781 -1.2711  0.0350
   60SAPC  H13Y 4688   4.791   0.194   9.185 -0.9098  0.9623  1.1407
   60SAPC  C314 4689   4.728  -0.002   9.159 -0.1125 -0.2838 -0.4666
   60SAPC  H14X 4690   4.657   0.017   9.076 -2.2297 -1.1348  1.0672
   60SAPC  H14Y 4691   4.687  -0.089   9.216 -0.9038  0.6254  0.3883
   60SAPC  C315 4692   4.862  -0.055   9.097  0.3128 -0.2417 -0.7124
   60SAPC  H15X 4693   4.835  -0.149   9.045  1.6995 -1.2969  0.4152
   60SAPC  H15Y 4694   4.935  -0.062   9.180  1.2877  2.5899 -1.2213
   60SAPC  C316 4695   4.923   0.040   8.990 -0.0388 -0.4457  0.4753
   60SAPC  H16X 4696   5.029   0.008   8.994 -0.3936 -1.6234  1.3048
   60SAPC  H16Y 4697   4.935   0.144   9.026  2.1485 -0.9125  1.2419
   60SAPC  C317 4698   4.859   0.041   8.849  0.6531  0.0790  0.1536
   60SAPC  H17X 4699   4.760   0.091   8.855  0.8564  0.3531  1.5762
   60SAPC  H17Y 4700   4.851  -0.060   8.804  1.3574  0.6446 -1.2928
   60SAPC  C318 4701   4.948   0.107   8.747  0.3396 -0.4993  1.2832
   60SAPC  H18X 4702   4.895   0.112   8.649  0.3625 -1.4975  1.2096
   60SAPC  H18Y 4703   5.042   0.054   8.723 -0.0347 -1.1555  1.2649
   60SAPC  H18Z 4704   4.963   0.212   8.783  1.6794 -0.2980  0.2190
   61SAPC     N 4705   4.383   6.574  11.262  0.1200  0.5352 -0.4613
   61SAPC   C12 4706   4.410   6.563  11.113  0.7217 -0.4304 -0.5223
   61SAPC  H12A 4707   4.364   6.650  11.068 -0.3527 -0.3228  0.7322
   61SAPC  H12B 4708   4.369   6.469  11.080  1.1932 -0.7788 -0.1312
   61SAPC   C13 4709   4.433   6.451  11.332 -0.6061  0.2930  0.0367
   61SAPC  H13A 4710   4.427   6.454  11.439  0.1308  2.4701  0.0553
   61SAPC  H13B 4711   4.367   6.371  11.302  0.4271 -0.3299 -0.6669
   61SAPC  H13C 4712   4.526   6.406  11.299 -1.2236  0.8536 -2.7031
   61SAPC   C14 4713   4.456   6.687  11.323 -0.1895 -0.3368  0.3799
   61SAPC  H14A 4714   4.448   6.695  11.430  0.4915 -1.9833  0.5807
   61SAPC  H14B 4715   4.560   6.659  11.316 -0.9302 -2.9806 -2.2276
   61SAPC  H14C 4716   4.445   6.780  11.267  3.1608 -0.2942 -0.4268
   61SAPC   C15 4717   4.240   6.580  11.298  0.0141 -0.3564 -0.3896
   61SAPC  H15A 4718   4.213   6.684  11.290  2.3248  0.4623  1.4594
   61SAPC  H15B 4719   4.181   6.513  11.237 -1.3433  0.3885  0.0686
   61SAPC  H15C 4720   4.236   6.553  11.402 -0.1644  1.0110 -0.0214
   61SAPC   C11 4721   4.559   6.559  11.072  0.0732 -0.0359 -0.8078
   61SAPC  H11A 4722   4.613   6.645  11.117  0.5467 -2.2297  3.2860
   61SAPC  H11B 4723   4.553   6.575  10.962 -1.7352  0.1193 -0.7312
   61SAPC     P 4724   4.629   6.312  11.024 -0.3712 -0.7182  0.0029
   61SAPC   O13 4725   4.748   6.240  11.070  0.6828 -0.5943 -0.4626
   61SAPC   O14 4726   4.499   6.252  11.034  0.2991 -0.1304 -0.2855
   61SAPC   O12 4727   4.622   6.439  11.115 -0.0474 -0.1107 -0.0124
   61SAPC   O11 4728   4.654   6.362  10.872 -0.2748  0.5301 -0.2282
   61SAPC    C1 4729   4.566   6.415  10.778 -0.4082  0.4420  0.1043
   61SAPC    HA 4730   4.464   6.424  10.820 -0.5364 -2.1217  0.4577
   61SAPC    HB 4731   4.601   6.519  10.758  2.1313 -0.2209  0.7347
   61SAPC    C2 4732   4.559   6.338  10.649 -0.2978 -0.7387  1.0305
   61SAPC    HS 4733   4.552   6.233  10.687  0.2661 -0.8989  0.7035
   61SAPC   O21 4734   4.681   6.356  10.573 -0.0220 -0.3224  0.1536
   61SAPC   C21 4735   4.706   6.259  10.485 -0.7630  0.0632 -0.4178
   61SAPC   O22 4736   4.634   6.173  10.449 -0.8298  0.7367  0.1471
   61SAPC   C22 4737   4.848   6.287  10.420  1.0755  0.0843 -0.3602
   61SAPC   H2R 4738   4.831   6.367  10.345  1.1730 -0.7004 -1.2464
   61SAPC   H2S 4739   4.911   6.327  10.502 -2.0836  1.8489  1.3846
   61SAPC    C3 4740   4.432   6.361  10.564  0.1890 -0.4344 -0.6189
   61SAPC    HX 4741   4.348   6.300  10.605  1.5161 -0.2939  2.6284
   61SAPC    HY 4742   4.437   6.311  10.465 -2.8328 -0.7350 -0.6985
   61SAPC   O31 4743   4.410   6.509  10.552 -0.5061 -0.1660 -0.4814
   61SAPC   C31 4744   4.301   6.551  10.600  0.2903  0.1061 -0.3543
   61SAPC   O32 4745   4.227   6.480  10.665  0.2034 -0.0998 -0.4264
   61SAPC   C32 4746   4.282   6.697  10.575  0.1480  0.1841 -0.6565
   61SAPC   H2X 4747   4.334   6.727  10.481 -0.9158  1.3062 -0.9128
   61SAPC   H2Y 4748   4.331   6.741  10.664 -1.1486  1.5266 -0.5700
   61SAPC   C23 4749   4.909   6.171  10.346 -0.2619  0.5769 -0.3805
   61SAPC   H3R 4750   4.836   6.126  10.274 -1.3495  0.5803  0.6832
   61SAPC   H3S 4751   4.921   6.095  10.426  1.3113  0.1266 -1.0013
   61SAPC   C24 4752   5.045   6.203  10.287  0.1784  0.0197  0.3055
   61SAPC   H4R 4753   5.086   6.111  10.242  1.7232  0.9210 -0.2317
   61SAPC   H4S 4754   5.100   6.237  10.378  1.6153  0.7870 -0.8096
   61SAPC   C25 4755   5.043   6.310  10.180 -1.1497  0.3172  0.0268
   61SAPC   H5R 4756   5.016   6.409  10.219  0.7156  0.4508  1.1421
   61SAPC   C26 4757   5.086   6.304  10.050 -0.3085  0.6254  0.4441
   61SAPC   H6R 4758   5.086   6.392   9.985  1.3649 -0.0926 -0.6113
   61SAPC   C27 4759   5.135   6.182   9.974 -0.6220 -0.5087  0.2059
   61SAPC   H7R 4760   5.220   6.138  10.031 -1.9045 -1.3321  1.5653
   61SAPC   H7S 4761   5.186   6.222   9.884  0.1837 -0.8277  0.5100
   61SAPC   C28 4762   5.049   6.060   9.947  0.8719 -1.3910 -0.6712
   61SAPC   H8R 4763   4.982   6.019  10.024  1.2075 -2.3478 -0.8783
   61SAPC   C29 4764   5.055   5.999   9.829  0.3781 -0.0281 -0.2808
   61SAPC   H9R 4765   5.006   5.900   9.822 -1.2733  0.7531 -0.1274
   61SAPC  C210 4766   5.158   6.032   9.729 -0.1730 -0.4864  0.5313
   61SAPC  H10R 4767   5.200   5.936   9.692  2.8938  0.4327  1.3897
   61SAPC  H10S 4768   5.249   6.075   9.774 -1.5010  1.7487  1.2355
   61SAPC  C211 4769   5.121   6.116   9.610  0.1795  0.0979 -0.6555
   61SAPC  H11R 4770   5.081   6.213   9.644  1.2887 -0.2883  1.9613
   61SAPC  C212 4771   5.154   6.086   9.481  0.4915  0.1973  0.6488
   61SAPC  H12R 4772   5.113   6.151   9.404 -1.6626  1.3922  2.6843
   61SAPC  C213 4773   5.227   5.967   9.434  0.5386 -0.8913 -0.3969
   61SAPC  H13R 4774   5.198   5.877   9.492  1.5043 -0.1433  1.3082
   61SAPC  H13S 4775   5.336   5.973   9.453  0.8266 -0.6125 -2.0133
   61SAPC  C214 4776   5.194   5.945   9.286  0.0882  0.2547 -0.5144
   61SAPC  H14R 4777   5.099   5.894   9.263  1.5445 -1.0184 -4.6705
   61SAPC  C215 4778   5.276   5.960   9.183  0.1845 -0.1889 -0.2822
   61SAPC  H15R 4779   5.226   5.944   9.086  0.0474 -1.1086 -0.0716
   61SAPC  C216 4780   5.417   5.999   9.183  0.1877  0.0268  0.6046
   61SAPC  H16R 4781   5.439   6.048   9.280  1.4919  0.6975 -0.0006
   61SAPC  H16S 4782   5.432   6.071   9.100 -1.7469  0.5267  0.6509
   61SAPC  C217 4783   5.528   5.892   9.153 -0.3528 -0.1645  1.0942
   61SAPC  H17R 4784   5.494   5.842   9.060  1.9579  0.6581 -0.2681
   61SAPC  H17S 4785   5.523   5.819   9.237  0.4013 -2.1037 -0.4670
   61SAPC  C218 4786   5.666   5.942   9.138  0.0443  0.2366 -0.0171
   61SAPC  H18R 4787   5.700   5.992   9.231  1.8327 -0.2907 -0.3502
   61SAPC  H18S 4788   5.667   6.023   9.062 -0.1942  0.7864  0.5562
   61SAPC  C219 4789   5.768   5.834   9.111 -0.6103 -0.4239  0.6105
   61SAPC  H19R 4790   5.751   5.762   9.193 -2.5701  0.9279  1.4795
   61SAPC  H19S 4791   5.870   5.876   9.121 -0.4705 -0.7448  0.5334
   61SAPC  C220 4792   5.752   5.767   8.973 -0.3135  0.1505 -0.9220
   61SAPC  H20R 4793   5.651   5.719   8.974 -1.1685  1.7338  2.4679
   61SAPC  H20S 4794   5.830   5.688   8.969 -1.0385 -0.6120 -0.6064
   61SAPC  H20T 4795   5.759   5.844   8.894  0.2408  1.1077  0.0396
   61SAPC   C33 4796   4.129   6.737  10.551  0.4315  0.1420  0.0328
   61SAPC   H3X 4797   4.102   6.844  10.554 -0.8114 -0.1687  0.4539
   61SAPC   H3Y 4798   4.069   6.687  10.630 -3.6444  3.4418 -0.6397
   61SAPC   C34 4799   4.075   6.692  10.411  0.5574 -0.0980 -0.1248
   61SAPC   H4X 4800   3.965   6.696  10.425  0.6385  0.2631  0.4226
   61SAPC   H4Y 4801   4.114   6.590  10.395  0.6501 -0.1267  0.2679
   61SAPC   C35 4802   4.114   6.780  10.290  0.1324  0.2501 -0.5327
   61SAPC   H5X 4803   4.223   6.778  10.266 -0.2092 -0.1595 -2.2333
   61SAPC   H5Y 4804   4.086   6.885  10.312  0.2677 -0.2118  2.2258
   61SAPC   C36 4805   4.043   6.739  10.156 -0.0441  0.6540 -0.3795
   61SAPC   H6X 4806   3.934   6.738  10.179  0.0725  1.2612  0.2104
   61SAPC   H6Y 4807   4.075   6.635  10.134  0.1625  0.4595  0.7623
   61SAPC   C37 4808   4.067   6.828  10.032  1.1149 -0.0668  0.2345
   61SAPC   H7X 4809   4.173   6.847  10.005  1.2295  2.2383  1.9871
   61SAPC   H7Y 4810   4.032   6.931  10.055  0.9313 -0.4684  1.8826
   61SAPC   C38 4811   3.994   6.775   9.910  0.2455 -0.3457 -0.0012
   61SAPC   H8X 4812   3.885   6.771   9.929 -0.3983 -1.3385 -3.1834
   61SAPC   H8Y 4813   4.030   6.672   9.887 -0.6998 -0.5070 -0.8812
   61SAPC   C39 4814   4.021   6.850   9.779 -0.8922 -0.3905 -0.2465
   61SAPC   H9X 4815   4.131   6.835   9.764  0.1225  4.1630  1.0518
   61SAPC   H9Y 4816   4.021   6.959   9.799 -2.9397 -0.4675  0.3260
   61SAPC  C310 4817   3.935   6.812   9.660  0.0571  0.3598  0.3654
   61SAPC  H10X 4818   3.837   6.837   9.706  1.1833  1.2326  2.4427
   61SAPC  H10Y 4819   3.918   6.703   9.645  0.8129 -0.7105  5.3945
   61SAPC  C311 4820   3.960   6.892   9.533  0.1827 -0.1139 -0.0813
   61SAPC  H11X 4821   3.991   6.992   9.571 -1.7531 -0.1428  1.7994
   61SAPC  H11Y 4822   3.867   6.898   9.472  1.8131  0.9119 -2.6391
   61SAPC  C312 4823   4.079   6.841   9.453 -0.9181 -0.0771  0.0510
   61SAPC  H12X 4824   4.035   6.757   9.395 -1.8968  2.4147 -3.1446
   61SAPC  H12Y 4825   4.153   6.784   9.513 -1.0250 -0.4627 -0.1804
   61SAPC  C313 4826   4.136   6.936   9.344 -0.0919 -0.1081  0.2644
   61SAPC  H13X 4827   4.223   6.984   9.394  1.1470 -1.9925  0.0067
   61SAPC  H13Y 4828   4.052   7.005   9.322 -0.1199  0.5454  2.2297
   61SAPC  C314 4829   4.174   6.849   9.227  0.2314  0.2465  0.2719
   61SAPC  H14X 4830   4.075   6.814   9.190  0.5153  0.8430 -1.1302
   61SAPC  H14Y 4831   4.231   6.758   9.255 -1.2157 -1.3400 -1.6317
   61SAPC  C315 4832   4.214   6.937   9.102  0.1529 -0.0020 -0.2473
   61SAPC  H15X 4833   4.323   6.960   9.105  0.4386 -1.3106  0.0689
   61SAPC  H15Y 4834   4.162   7.033   9.124  0.5689  0.2471 -0.3434
   61SAPC  C316 4835   4.172   6.880   8.965  0.7196  0.5397 -0.3031
   61SAPC  H16X 4836   4.193   6.950   8.880 -0.7495  0.8793 -0.4100
   61SAPC  H16Y 4837   4.061   6.883   8.965  0.5895 -1.6759  1.9717
   61SAPC  C317 4838   4.233   6.738   8.931  0.2678 -0.3443  0.0028
   61SAPC  H17X 4839   4.190   6.658   8.994  0.5998 -0.7850 -0.3305
   61SAPC  H17Y 4840   4.344   6.749   8.937  0.0635  1.7464  1.2279
   61SAPC  C318 4841   4.185   6.707   8.794 -0.0092  0.3735 -0.7198
   61SAPC  H18X 4842   4.075   6.722   8.795 -0.1800 -0.6234 -1.9149
   61SAPC  H18Y 4843   4.207   6.608   8.748 -2.4595 -0.0847 -1.0644
   61SAPC  H18Z 4844   4.225   6.780   8.721  0.1369  1.4299  0.3841
   62SAPC     N 4845   3.704   1.655  10.720  0.4474  0.0916  0.1823
   62SAPC   C12 4846   3.765   1.593  10.595  0.2513 -0.0029 -0.6281
   62SAPC  H12A 4847   3.869   1.622  10.598 -0.4122  2.8337 -1.7996
   62SAPC  H12B 4848   3.728   1.637  10.503  0.1887  1.3420  0.0102
   62SAPC   C13 4849   3.694   1.802  10.709  0.0540 -0.3067  0.1553
   62SAPC  H13A 4850   3.650   1.846  10.797 -0.7496  1.0665 -0.8895
   62SAPC  H13B 4851   3.788   1.851  10.689 -1.8175  2.5411 -2.5892
   62SAPC  H13C 4852   3.639   1.833  10.621 -0.3843  2.6246  1.3448
   62SAPC   C14 4853   3.557   1.618  10.721 -0.0245 -0.2561  0.4031
   62SAPC  H14A 4854   3.507   1.661  10.807  2.1581 -0.5944  1.9139
   62SAPC  H14B 4855   3.502   1.643  10.631 -2.1309 -2.1819  1.0546
   62SAPC  H14C 4856   3.542   1.511  10.722 -0.8362 -0.1693 -0.5366
   62SAPC   C15 4857   3.764   1.606  10.848  1.1970 -0.0397 -0.6564
   62SAPC  H15A 4858   3.861   1.655  10.857  1.1537 -0.2886  1.8134
   62SAPC  H15B 4859   3.704   1.617  10.937  0.2150 -0.8952 -1.2065
   62SAPC  H15C 4860   3.806   1.508  10.834  0.5319 -0.5015  0.4870
   62SAPC   C11 4861   3.748   1.445  10.576 -0.8217  0.1147 -0.1772
   62SAPC  H11A 4862   3.794   1.417  10.478  0.1524  0.0706  0.2828
   62SAPC  H11B 4863   3.642   1.414  10.559 -0.9919  1.9479 -3.2221
   62SAPC     P 4864   3.748   1.257  10.752  0.1119 -0.2360 -0.0214
   62SAPC   O13 4865   3.832   1.209  10.868 -0.1514 -0.8647  0.1786
   62SAPC   O14 4866   3.612   1.312  10.789 -0.0362 -0.3594 -0.3827
   62SAPC   O12 4867   3.825   1.378  10.677 -0.1982 -0.2864 -0.5451
   62SAPC   O11 4868   3.726   1.145  10.641  0.2117  0.8845  0.2046
   62SAPC    C1 4869   3.801   1.022  10.657 -0.4130 -0.2239 -0.2168
   62SAPC    HA 4870   3.831   0.987  10.757  0.7954 -1.0656 -0.8485
   62SAPC    HB 4871   3.736   0.942  10.615 -0.5488 -0.3463  0.2207
   62SAPC    C2 4872   3.927   1.030  10.560  0.2336 -0.4415 -0.1123
   62SAPC    HS 4873   3.996   1.103  10.607 -0.8909 -0.3318  1.4306
   62SAPC   O21 4874   3.876   1.091  10.442 -0.6179 -0.1122  0.3672
   62SAPC   C21 4875   3.960   1.119  10.346 -0.0935  0.6641  0.1133
   62SAPC   O22 4876   4.084   1.112  10.357 -0.0564  0.0674  0.4753
   62SAPC   C22 4877   3.886   1.169  10.228  0.0749 -0.5018  0.4726
   62SAPC   H2R 4878   3.799   1.102  10.210  1.6586 -2.3812 -0.4669
   62SAPC   H2S 4879   3.851   1.270  10.259  1.0125  0.7739 -2.2784
   62SAPC    C3 4880   3.992   0.892  10.533 -0.3167 -0.3044 -0.4567
   62SAPC    HX 4881   3.983   0.840  10.631 -2.8179  1.0519  0.0984
   62SAPC    HY 4882   4.097   0.915  10.503  0.5590  1.4701  3.3209
   62SAPC   O31 4883   3.916   0.817  10.442 -0.5967 -0.1223 -0.0710
   62SAPC   C31 4884   3.970   0.751  10.338  0.1761 -0.0855  0.0167
   62SAPC   O32 4885   4.081   0.764  10.295 -0.5945 -0.2905  0.0216
   62SAPC   C32 4886   3.851   0.685  10.276  0.2438  0.5238  0.9238
   62SAPC   H2X 4887   3.753   0.736  10.280 -1.9372 -3.3370  1.2964
   62SAPC   H2Y 4888   3.842   0.588  10.330 -1.6323  0.5916  0.7836
   62SAPC   C23 4889   3.976   1.149  10.096  0.8117  0.6449 -0.0845
   62SAPC   H3R 4890   4.041   1.059  10.108  1.5580  0.8867 -1.9486
   62SAPC   H3S 4891   4.049   1.233  10.087 -0.4247  1.7604  0.0379
   62SAPC   C24 4892   3.893   1.154   9.969  0.4535 -0.1407 -0.2049
   62SAPC   H4R 4893   3.826   1.065   9.964 -2.1926  1.7381 -0.5390
   62SAPC   H4S 4894   3.969   1.134   9.891  0.0164  0.5760 -0.8232
   62SAPC   C25 4895   3.808   1.273   9.947 -0.0848  0.1018  0.8310
   62SAPC   H5R 4896   3.728   1.282  10.022  0.2227 -0.4259  1.2311
   62SAPC   C26 4897   3.800   1.352   9.840 -0.1790 -0.6162  0.6151
   62SAPC   H6R 4898   3.719   1.426   9.839  0.0176 -0.4039  0.5036
   62SAPC   C27 4899   3.889   1.335   9.714  1.2528 -0.1757 -0.1258
   62SAPC   H7R 4900   3.851   1.412   9.644  0.1122 -0.4107  0.2055
   62SAPC   H7S 4901   3.857   1.244   9.658  1.6507  1.1522 -2.6105
   62SAPC   C28 4902   4.040   1.340   9.725 -0.4075  0.3017  0.4524
   62SAPC   H8R 4903   4.080   1.321   9.826  0.3899  0.8449  0.2563
   62SAPC   C29 4904   4.120   1.382   9.628  0.2685  0.6698  0.2096
   62SAPC   H9R 4905   4.230   1.377   9.639  0.4889  1.2138 -1.5015
   62SAPC  C210 4906   4.077   1.430   9.489  0.3032 -0.1524 -0.6379
   62SAPC  H10R 4907   4.163   1.468   9.430  0.3756  1.0969  0.2177
   62SAPC  H10S 4908   4.000   1.508   9.505  1.4392  0.8519  0.0781
   62SAPC  C211 4909   4.014   1.316   9.410 -0.4159 -0.7829 -0.2041
   62SAPC  H11R 4910   3.972   1.233   9.469 -1.5706 -0.4861 -0.5889
   62SAPC  C212 4911   4.016   1.305   9.278 -0.7095  0.9435 -0.4644
   62SAPC  H12R 4912   3.957   1.227   9.229 -0.2121 -0.9101  1.6917
   62SAPC  C213 4913   4.081   1.398   9.177 -0.0095 -0.7520 -0.1824
   62SAPC  H13R 4914   4.133   1.483   9.226 -1.3224  0.7956 -1.3715
   62SAPC  H13S 4915   3.997   1.440   9.118 -0.1682 -2.0179 -0.8876
   62SAPC  C214 4916   4.179   1.327   9.089 -0.0282  0.2689  1.1217
   62SAPC  H14R 4917   4.197   1.219   9.100  3.1331  0.4223 -1.1662
   62SAPC  C215 4918   4.268   1.395   9.003 -0.0063  0.0647 -0.6297
   62SAPC  H15R 4919   4.338   1.333   8.946  1.1398  0.4763  0.3003
   62SAPC  C216 4920   4.287   1.540   8.976 -0.2519 -0.3243  0.0855
   62SAPC  H16R 4921   4.393   1.566   8.960 -0.1308 -1.8081 -1.8606
   62SAPC  H16S 4922   4.245   1.599   9.061 -0.3644 -2.6585  1.7658
   62SAPC  C217 4923   4.222   1.578   8.846 -0.2543  0.0341 -0.1793
   62SAPC  H17R 4924   4.122   1.529   8.839 -0.4636  0.4599 -0.2041
   62SAPC  H17S 4925   4.273   1.558   8.750  1.2636  1.4675  0.2921
   62SAPC  C218 4926   4.182   1.733   8.860  0.7066  0.9423 -0.0542
   62SAPC  H18R 4927   4.274   1.791   8.883  1.0559  0.1773  0.5231
   62SAPC  H18S 4928   4.105   1.734   8.941  0.2275  3.0135 -0.4802
   62SAPC  C219 4929   4.129   1.796   8.729  0.2777 -0.4516  0.0727
   62SAPC  H19R 4930   4.184   1.750   8.644 -0.8063  0.8530 -1.3991
   62SAPC  H19S 4931   4.138   1.907   8.730 -0.7385 -0.3565 -0.1842
   62SAPC  C220 4932   3.980   1.780   8.700  0.1309  1.1035  0.8340
   62SAPC  H20R 4933   3.919   1.819   8.784 -0.0246 -1.8559  2.2517
   62SAPC  H20S 4934   3.955   1.672   8.687 -0.9564  1.7351 -4.4968
   62SAPC  H20T 4935   3.952   1.819   8.600  0.4876  0.1954  0.3632
   62SAPC   C33 4936   3.869   0.657  10.118 -0.1379  0.1491 -0.1455
   62SAPC   H3X 4937   3.780   0.599  10.084  1.1610 -0.7373 -2.2365
   62SAPC   H3Y 4938   3.956   0.594  10.089 -1.1430 -0.5595 -1.7877
   62SAPC   C34 4939   3.862   0.785  10.036 -0.7204  0.0951 -0.5487
   62SAPC   H4X 4940   3.946   0.854  10.061 -0.4542  0.2063 -1.6981
   62SAPC   H4Y 4941   3.769   0.844  10.046 -1.0577 -0.3232 -1.2112
   62SAPC   C35 4942   3.869   0.742   9.888  0.2077 -0.0094  0.2702
   62SAPC   H5X 4943   3.817   0.648   9.860 -0.9887 -0.1163  2.5825
   62SAPC   H5Y 4944   3.977   0.722   9.869  1.1271  4.0888  0.3185
   62SAPC   C36 4945   3.843   0.854   9.788  0.6805 -0.3077 -0.0928
   62SAPC   H6X 4946   3.905   0.943   9.814 -0.0515 -0.6003  2.9887
   62SAPC   H6Y 4947   3.737   0.885   9.798  1.1952  1.2057  1.2098
   62SAPC   C37 4948   3.889   0.808   9.642 -0.4275 -0.2185 -1.0556
   62SAPC   H7X 4949   3.821   0.725   9.611 -1.3550 -0.1665  0.6737
   62SAPC   H7Y 4950   3.992   0.765   9.642 -0.7382 -0.9881 -1.1100
   62SAPC   C38 4951   3.872   0.914   9.533  0.1682  0.4835  0.4524
   62SAPC   H8X 4952   3.903   1.010   9.578  1.9288  0.0403  0.2375
   62SAPC   H8Y 4953   3.765   0.929   9.505 -0.2635 -0.7176  1.3627
   62SAPC   C39 4954   3.954   0.904   9.408  0.4917 -0.2884 -0.0978
   62SAPC   H9X 4955   4.048   0.854   9.439  1.1001  0.1511 -1.1698
   62SAPC   H9Y 4956   3.980   1.007   9.377  0.5906  0.2541  1.6895
   62SAPC  C310 4957   3.893   0.821   9.295  0.7885 -0.1869 -0.2325
   62SAPC  H10X 4958   3.784   0.807   9.307  1.1331 -1.9024  1.4255
   62SAPC  H10Y 4959   3.938   0.723   9.320  3.1324  0.3786 -1.9103
   62SAPC  C311 4960   3.939   0.864   9.155  0.1617  0.3183 -0.5667
   62SAPC  H11X 4961   3.922   0.973   9.140  0.5826  0.3722 -0.6664
   62SAPC  H11Y 4962   3.892   0.801   9.077 -0.7138 -0.7222  0.7441
   62SAPC  C312 4963   4.090   0.846   9.128  0.1464 -0.0145  0.0664
   62SAPC  H12X 4964   4.112   0.746   9.170  1.9464 -0.0625 -0.8757
   62SAPC  H12Y 4965   4.150   0.923   9.181 -0.5382  0.5044  0.0928
   62SAPC  C313 4966   4.123   0.843   8.978  0.0487  0.4361  0.2021
   62SAPC  H13X 4967   4.094   0.938   8.926  0.2441  0.2723 -0.2119
   62SAPC  H13Y 4968   4.070   0.755   8.937  1.2408 -1.0297  1.7113
   62SAPC  C314 4969   4.273   0.832   8.954  0.3210  0.5451  0.3493
   62SAPC  H14X 4970   4.322   0.737   8.985  1.7341  1.5244  1.1813
   62SAPC  H14Y 4971   4.329   0.906   9.014  1.8412 -0.6278  0.4382
   62SAPC  C315 4972   4.310   0.836   8.800 -0.2150 -0.7027 -0.0981
   62SAPC  H15X 4973   4.293   0.944   8.781 -1.1595 -0.6068  1.1846
   62SAPC  H15Y 4974   4.236   0.787   8.734 -1.1151  0.6576 -0.1378
   62SAPC  C316 4975   4.446   0.778   8.769 -0.2984  0.0590 -0.6695
   62SAPC  H16X 4976   4.446   0.670   8.794  0.4051  0.1785 -0.1291
   62SAPC  H16Y 4977   4.516   0.836   8.833  0.2857 -0.3342 -0.9439
   62SAPC  C317 4978   4.496   0.797   8.622  0.2454 -0.6914  0.5661
   62SAPC  H17X 4979   4.497   0.907   8.608 -1.5301 -0.7485 -0.3008
   62SAPC  H17Y 4980   4.420   0.752   8.555 -0.6774  1.3624  0.1743
   62SAPC  C318 4981   4.638   0.741   8.604  0.2309  0.1227 -0.9318
   62SAPC  H18X 4982   4.715   0.816   8.633  1.4695 -1.6782  0.7917
   62SAPC  H18Y 4983   4.665   0.707   8.502 -1.7135 -0.8245 -1.1718
   62SAPC  H18Z 4984   4.649   0.650   8.668  2.9400  1.5632  0.8461
   63SAPC     N 4985   1.742   5.889   6.284  0.4406  0.0417 -0.4403
   63SAPC   C12 4986   1.735   5.860   6.438  0.0842  0.6534 -0.0769
   63SAPC  H12A 4987   1.645   5.802   6.452 -1.2276  2.5960 -0.1126
   63SAPC  H12B 4988   1.718   5.954   6.489  0.2247  0.5512  0.1596
   63SAPC   C13 4989   1.607   5.922   6.241  0.4453  0.5436  0.5537
   63SAPC  H13A 4990   1.595   5.946   6.137 -0.4497  0.6499  0.6783
   63SAPC  H13B 4991   1.531   5.848   6.263  0.7615  0.8961  3.2069
   63SAPC  H13C 4992   1.573   6.009   6.295  0.1922  0.7656  0.0451
   63SAPC   C14 4993   1.835   6.001   6.258  0.0013  1.0490  0.6147
   63SAPC  H14A 4994   1.801   6.093   6.301 -0.3239  0.3889  1.8123
   63SAPC  H14B 4995   1.933   5.978   6.297  0.8644  1.1566 -1.3491
   63SAPC  H14C 4996   1.851   6.017   6.152  0.7520 -1.0061  0.3675
   63SAPC   C15 4997   1.791   5.759   6.213  0.1989 -0.7280 -0.1967
   63SAPC  H15A 4998   1.831   5.774   6.113  1.0153  0.4819  0.2894
   63SAPC  H15B 4999   1.872   5.712   6.265  0.0033 -0.4674  0.3463
   63SAPC  H15C 5000   1.705   5.694   6.207 -1.0784  0.9814 -2.8504
   63SAPC   C11 5001   1.863   5.788   6.496  0.1981  0.5137  0.4971
   63SAPC  H11A 5002   1.866   5.795   6.606 -2.1927  0.7980  0.6082
   63SAPC  H11B 5003   1.958   5.827   6.453 -0.2185  0.3623 -0.5885
   63SAPC     P 5004   1.762   5.552   6.525  0.3228  0.0143  0.0990
   63SAPC   O13 5005   1.624   5.597   6.491 -0.0609 -0.9172 -0.5619
   63SAPC   O14 5006   1.789   5.412   6.480  0.2261 -1.0137  0.5693
   63SAPC   O12 5007   1.868   5.649   6.469 -0.1561 -0.0892 -0.7177
   63SAPC   O11 5008   1.776   5.561   6.684 -0.2042  0.2830  0.9242
   63SAPC    C1 5009   1.885   5.492   6.734 -0.1978  0.1819 -0.7746
   63SAPC    HA 5010   1.875   5.382   6.720  0.0403  0.3947 -2.9403
   63SAPC    HB 5011   1.980   5.527   6.688  0.5005  0.7535  1.0011
   63SAPC    C2 5012   1.914   5.532   6.880  0.1159 -0.1562  0.5904
   63SAPC    HS 5013   1.820   5.497   6.929 -2.3834  0.6076 -3.1612
   63SAPC   O21 5014   1.928   5.675   6.885  0.0884 -0.5262  0.0113
   63SAPC   C21 5015   1.893   5.735   6.999 -0.2488  0.0181  0.1937
   63SAPC   O22 5016   1.837   5.686   7.093  0.3178 -0.6704  0.0325
   63SAPC   C22 5017   1.919   5.882   6.971  0.1265  0.3243 -0.0307
   63SAPC   H2R 5018   2.024   5.900   6.938  0.1748  2.5554  1.1776
   63SAPC   H2S 5019   1.836   5.900   6.899 -0.1270 -1.0858 -0.1118
   63SAPC    C3 5020   2.033   5.459   6.944  0.5030  0.0381  0.1889
   63SAPC    HX 5021   2.122   5.499   6.892  0.0711  1.0330  0.2054
   63SAPC    HY 5022   2.022   5.354   6.909  1.1825 -1.0549  2.9886
   63SAPC   O31 5023   2.039   5.478   7.090 -0.9354  0.3408  0.3319
   63SAPC   C31 5024   1.956   5.401   7.160  0.1597  1.0041 -0.2937
   63SAPC   O32 5025   1.890   5.310   7.107  0.1052 -1.0117  0.3522
   63SAPC   C32 5026   1.936   5.452   7.299  0.3839 -0.5278 -0.2291
   63SAPC   H2X 5027   1.896   5.555   7.290  3.7265  0.9895  0.6820
   63SAPC   H2Y 5028   2.035   5.475   7.343 -0.1113 -0.2901  0.7847
   63SAPC   C23 5029   1.921   5.968   7.095  0.2433 -0.0055 -0.6667
   63SAPC   H3R 5030   1.824   5.961   7.148 -0.0853  0.8669 -1.1475
   63SAPC   H3S 5031   1.940   6.073   7.063 -2.7499  0.7690 -0.1635
   63SAPC   C24 5032   2.027   5.939   7.205 -0.7242  0.0918  0.0111
   63SAPC   H4R 5033   2.117   5.925   7.142  0.4233  3.0587  0.8045
   63SAPC   H4S 5034   1.997   5.841   7.247 -0.1883  0.4026  1.1664
   63SAPC   C25 5035   2.057   6.038   7.313  0.7172  0.4761  0.0726
   63SAPC   H5R 5036   2.134   6.113   7.290  2.1720 -1.1677 -0.6550
   63SAPC   C26 5037   2.002   6.034   7.440  0.8663  0.5289  0.2066
   63SAPC   H6R 5038   2.042   6.105   7.513  2.8029 -0.1514 -0.1353
   63SAPC   C27 5039   1.905   5.933   7.499  0.1145 -0.3736  0.2230
   63SAPC   H7R 5040   1.840   5.880   7.427 -1.0061 -0.6566  1.4221
   63SAPC   H7S 5041   1.840   5.976   7.577 -0.0104 -0.5393  0.2105
   63SAPC   C28 5042   1.998   5.834   7.559  0.0084  0.7191  0.2835
   63SAPC   H8R 5043   2.087   5.799   7.505 -0.1485 -0.1901  0.5935
   63SAPC   C29 5044   1.966   5.773   7.678  0.0505 -0.5557  0.4073
   63SAPC   H9R 5045   2.032   5.700   7.725 -0.8926  0.2317  3.1232
   63SAPC  C210 5046   1.843   5.807   7.756 -0.2290 -0.1456 -0.4826
   63SAPC  H10R 5047   1.750   5.806   7.696 -1.0845 -0.0260  0.8011
   63SAPC  H10S 5048   1.845   5.913   7.788 -1.5608  0.2273 -1.5692
   63SAPC  C211 5049   1.827   5.718   7.884  0.0994  0.3796  0.3614
   63SAPC  H11R 5050   1.849   5.611   7.867 -2.5389  0.0604 -1.7711
   63SAPC  C212 5051   1.796   5.748   8.008 -0.2335 -0.0043  0.8891
   63SAPC  H12R 5052   1.796   5.675   8.090  1.3094  1.5697  2.3915
   63SAPC  C213 5053   1.764   5.889   8.047  1.5183  0.0398  0.4087
   63SAPC  H13R 5054   1.654   5.886   8.065  1.4891 -2.4964  0.0808
   63SAPC  H13S 5055   1.774   5.969   7.970 -0.8501  0.8957  0.8946
   63SAPC  C214 5056   1.849   5.932   8.154  0.0027 -0.6622  0.0321
   63SAPC  H14R 5057   1.956   5.909   8.141  0.7826  0.5379  3.2530
   63SAPC  C215 5058   1.803   5.990   8.266  0.3590  0.5777  0.4804
   63SAPC  H15R 5059   1.863   6.032   8.349 -0.1051 -0.1119  1.1837
   63SAPC  C216 5060   1.655   6.017   8.291 -0.1456  0.4260  0.6675
   63SAPC  H16R 5061   1.625   6.018   8.398 -6.0633  0.6061 -0.6600
   63SAPC  H16S 5062   1.590   5.931   8.265  0.2655 -0.4492  2.4317
   63SAPC  C217 5063   1.607   6.139   8.211  0.1736 -0.0354 -0.2461
   63SAPC  H17R 5064   1.624   6.114   8.105 -0.8945 -1.9357 -0.0170
   63SAPC  H17S 5065   1.678   6.219   8.242  0.8245 -0.9560  0.6985
   63SAPC  C218 5066   1.465   6.186   8.240 -0.1608  0.0890 -0.4931
   63SAPC  H18R 5067   1.440   6.276   8.180 -1.3638 -1.1278 -1.9025
   63SAPC  H18S 5068   1.449   6.205   8.348  1.0346 -2.7810  0.2732
   63SAPC  C219 5069   1.351   6.084   8.205  0.3082  0.3021  0.1867
   63SAPC  H19R 5070   1.250   6.128   8.216 -0.6057 -1.4958 -0.6101
   63SAPC  H19S 5071   1.367   5.986   8.255  1.2027 -0.4303 -1.4431
   63SAPC  C220 5072   1.353   6.040   8.050  0.1467  0.2985  0.4513
   63SAPC  H20R 5073   1.265   5.978   8.022  2.9238 -2.8378 -2.3826
   63SAPC  H20S 5074   1.440   5.971   8.040 -1.0562 -1.0716 -0.9351
   63SAPC  H20T 5075   1.363   6.131   7.989  0.1413  0.5036  0.7535
   63SAPC   C33 5076   1.848   5.356   7.383  0.0266  0.4122 -0.7362
   63SAPC   H3X 5077   1.890   5.253   7.379  1.7173  1.0802 -0.9387
   63SAPC   H3Y 5078   1.742   5.346   7.353  0.2516  1.2857 -1.8725
   63SAPC   C34 5079   1.851   5.402   7.526  0.4870 -0.5973 -0.2168
   63SAPC   H4X 5080   1.807   5.503   7.540  1.2792  0.3222 -3.5188
   63SAPC   H4Y 5081   1.957   5.405   7.560 -0.6735  0.4079  3.8559
   63SAPC   C35 5082   1.781   5.305   7.621 -0.5428 -0.7771  0.9254
   63SAPC   H5X 5083   1.826   5.205   7.604  1.8813  0.5815 -1.5055
   63SAPC   H5Y 5084   1.675   5.308   7.586 -0.6663 -0.0684  1.3388
   63SAPC   C36 5085   1.782   5.357   7.767 -0.4339 -0.7422 -0.0068
   63SAPC   H6X 5086   1.716   5.446   7.758  0.1103 -0.1712  1.3248
   63SAPC   H6Y 5087   1.888   5.390   7.781 -0.9181  1.0406 -0.2920
   63SAPC   C37 5088   1.757   5.251   7.875  0.1794 -0.9055 -0.3380
   63SAPC   H7X 5089   1.827   5.166   7.866  0.3436 -0.7527 -0.5145
   63SAPC   H7Y 5090   1.656   5.205   7.869  0.5590 -1.5603 -3.5450
   63SAPC   C38 5091   1.757   5.329   8.014  0.3737 -0.1182  0.0924
   63SAPC   H8X 5092   1.730   5.436   8.005  1.5239  0.3244  1.6353
   63SAPC   H8Y 5093   1.862   5.337   8.049  0.1557 -1.4275  1.0984
   63SAPC   C39 5094   1.688   5.255   8.129  0.3776 -0.1292  0.3362
   63SAPC   H9X 5095   1.746   5.161   8.141  1.0785 -0.2898 -3.3108
   63SAPC   H9Y 5096   1.587   5.227   8.092  0.0661 -0.5050  1.4274
   63SAPC  C310 5097   1.683   5.336   8.252  0.2337  0.0860 -0.3407
   63SAPC  H10X 5098   1.618   5.423   8.228 -0.6239  0.4695  2.8933
   63SAPC  H10Y 5099   1.784   5.377   8.270  0.1961  1.3891 -2.6485
   63SAPC  C311 5100   1.637   5.262   8.373 -0.4378  0.2505  0.3631
   63SAPC  H11X 5101   1.704   5.176   8.394 -2.1109 -0.3714  4.0137
   63SAPC  H11Y 5102   1.541   5.210   8.359  1.0185 -2.2145 -1.1453
   63SAPC  C312 5103   1.635   5.346   8.508 -0.7930 -0.3895  0.3554
   63SAPC  H12X 5104   1.566   5.431   8.494 -1.3344 -0.9957 -0.7715
   63SAPC  H12Y 5105   1.737   5.382   8.535 -0.4857 -1.1653  0.2828
   63SAPC  C313 5106   1.593   5.255   8.617 -0.2250 -0.0078  0.1836
   63SAPC  H13X 5107   1.536   5.167   8.582  0.6242 -1.2279  1.7351
   63SAPC  H13Y 5108   1.526   5.312   8.685  1.1638  0.2461  1.3951
   63SAPC  C314 5109   1.716   5.215   8.696 -0.6199  0.2320 -0.3057
   63SAPC  H14X 5110   1.761   5.309   8.735  0.8841 -0.3059 -0.6652
   63SAPC  H14Y 5111   1.782   5.169   8.618  0.9683 -0.5801  1.4500
   63SAPC  C315 5112   1.707   5.109   8.811 -0.3275  0.3898  0.0985
   63SAPC  H15X 5113   1.638   5.026   8.786 -0.9472  0.7176  0.6822
   63SAPC  H15Y 5114   1.666   5.170   8.895  0.1541 -1.3380  1.6466
   63SAPC  C316 5115   1.847   5.060   8.852  0.0800 -0.1331  0.3509
   63SAPC  H16X 5116   1.896   5.152   8.890 -1.1351  0.4208  0.6008
   63SAPC  H16Y 5117   1.901   5.004   8.773 -1.7578  0.5074 -1.4331
   63SAPC  C317 5118   1.835   4.962   8.974 -0.0558  0.5123 -0.2348
   63SAPC  H17X 5119   1.767   5.005   9.050 -0.6669 -1.2342  0.2591
   63SAPC  H17Y 5120   1.941   4.950   9.003  0.0616  3.6225  0.9908
   63SAPC  C318 5121   1.768   4.826   8.944 -0.3457 -0.4384  0.0048
   63SAPC  H18X 5122   1.786   4.753   9.026  1.5253 -2.7539 -2.2914
   63SAPC  H18Y 5123   1.825   4.781   8.860  1.2694  1.5229 -0.0539
   63SAPC  H18Z 5124   1.663   4.834   8.911 -0.7661 -2.1903  0.8121
   64SAPC     N 5125   4.020   0.091   6.179 -0.0165  0.4974  0.4400
   64SAPC   C12 5126   4.156   0.091   6.226  0.4616  0.0943 -0.2875
   64SAPC  H12A 5127   4.153   0.046   6.324 -1.3038  0.7367 -0.0010
   64SAPC  H12B 5128   4.182   0.195   6.240 -1.0913  0.6123 -1.0230
   64SAPC   C13 5129   4.011   0.117   6.030 -0.2878 -0.2026  0.2304
   64SAPC  H13A 5130   4.059   0.212   6.012 -0.0088 -0.5551 -1.0286
   64SAPC  H13B 5131   4.060   0.042   5.969 -1.1957 -0.6726  0.0682
   64SAPC  H13C 5132   3.908   0.119   5.999 -0.8022  0.1783  1.8591
   64SAPC   C14 5133   3.963  -0.046   6.201  0.4615 -0.2660  0.5375
   64SAPC  H14A 5134   4.025  -0.121   6.155 -0.2945  0.1477 -1.2448
   64SAPC  H14B 5135   3.942  -0.078   6.302  0.4915 -3.0235 -0.2289
   64SAPC  H14C 5136   3.870  -0.061   6.148  1.1854  0.2506 -0.9414
   64SAPC   C15 5137   3.936   0.194   6.247  0.4460  0.8683 -0.9555
   64SAPC  H15A 5138   3.964   0.191   6.351  0.4425 -2.5806 -0.9394
   64SAPC  H15B 5139   3.952   0.290   6.198 -4.1709  1.2130 -2.2631
   64SAPC  H15C 5140   3.831   0.172   6.244  0.9509 -2.1744  0.3638
   64SAPC   C11 5141   4.265   0.015   6.147 -0.0729  0.5803  0.2514
   64SAPC  H11A 5142   4.359   0.051   6.195 -0.4033  2.3642 -0.3775
   64SAPC  H11B 5143   4.261   0.045   6.040  0.2488 -1.2129 -0.2953
   64SAPC     P 5144   4.353  -0.235   6.197  0.4191  0.1529 -0.2680
   64SAPC   O13 5145   4.270  -0.363   6.200  0.3336  0.4724 -0.0041
   64SAPC   O14 5146   4.471  -0.214   6.108  0.1058 -0.7483 -0.0635
   64SAPC   O12 5147   4.248  -0.128   6.156 -0.0489 -0.9333  0.2152
   64SAPC   O11 5148   4.393  -0.195   6.342  0.1708 -0.4272  0.0353
   64SAPC    C1 5149   4.299  -0.130   6.427 -0.4273  0.2412 -0.1269
   64SAPC    HA 5150   4.309  -0.021   6.410 -0.4380 -0.1806 -3.5645
   64SAPC    HB 5151   4.196  -0.169   6.411 -0.2687 -2.3515  3.8105
   64SAPC    C2 5152   4.320  -0.163   6.578 -0.3100 -0.3858  0.1310
   64SAPC    HS 5153   4.415  -0.112   6.606  0.8181 -2.0633 -0.5028
   64SAPC   O21 5154   4.332  -0.307   6.593 -0.1104 -0.2250  0.0387
   64SAPC   C21 5155   4.380  -0.354   6.708  0.2328  0.0025  0.1434
   64SAPC   O22 5156   4.442  -0.289   6.791 -0.3752 -0.1383  0.2986
   64SAPC   C22 5157   4.351  -0.503   6.713 -0.8266 -1.2571  0.5884
   64SAPC   H2R 5158   4.401  -0.537   6.621  1.2947  0.6614  0.9567
   64SAPC   H2S 5159   4.407  -0.537   6.803 -0.6428  0.1930  1.0468
   64SAPC    C3 5160   4.201  -0.108   6.655 -0.4957  1.1417 -0.2113
   64SAPC    HX 5161   4.108  -0.157   6.620  1.2760 -1.9337 -0.9449
   64SAPC    HY 5162   4.181   0.001   6.644 -0.5224  1.3854  1.8556
   64SAPC   O31 5163   4.206  -0.140   6.797 -0.1662 -0.1965  0.5651
   64SAPC   C31 5164   4.271  -0.054   6.878  0.0585  0.1568 -0.3340
   64SAPC   O32 5165   4.340   0.039   6.844 -0.5666  0.1525  0.0077
   64SAPC   C32 5166   4.242  -0.083   7.025  0.1393 -0.2284  0.2711
   64SAPC   H2X 5167   4.199  -0.183   7.045 -1.5098  0.8201  2.3386
   64SAPC   H2Y 5168   4.158  -0.013   7.044 -0.9222 -0.1506 -3.7005
   64SAPC   C23 5169   4.204  -0.535   6.690 -0.7177  0.8771 -0.3433
   64SAPC   H3R 5170   4.199  -0.645   6.677 -3.1450  1.1888 -2.7650
   64SAPC   H3S 5171   4.168  -0.499   6.592  0.0638 -0.3369 -1.1019
   64SAPC   C24 5172   4.102  -0.514   6.811 -0.5620  0.0040  0.7099
   64SAPC   H4R 5173   4.020  -0.581   6.775  0.6289 -2.4344  2.2568
   64SAPC   H4S 5174   4.076  -0.407   6.827  1.1328  0.1857  2.6543
   64SAPC   C25 5175   4.154  -0.572   6.938 -0.4111 -0.3917  0.6449
   64SAPC   H5R 5176   4.241  -0.639   6.926  2.7912  2.8697  3.3661
   64SAPC   C26 5177   4.115  -0.531   7.061  0.0673  0.1062 -1.0102
   64SAPC   H6R 5178   4.152  -0.576   7.154 -0.7337  1.7218  0.1328
   64SAPC   C27 5179   4.002  -0.428   7.084 -0.4519 -0.1747  0.6243
   64SAPC   H7R 5180   3.961  -0.384   6.990 -2.0802  4.0072  3.0219
   64SAPC   H7S 5181   4.045  -0.346   7.144 -1.9797  1.7857 -0.8229
   64SAPC   C28 5182   3.888  -0.498   7.154  0.1997 -0.0414  0.1779
   64SAPC   H8R 5183   3.801  -0.532   7.095 -0.6289 -1.1191  1.9349
   64SAPC   C29 5184   3.875  -0.530   7.283  0.5514  0.0354  0.8082
   64SAPC   H9R 5185   3.779  -0.577   7.310  0.5849  1.1501  3.1609
   64SAPC  C210 5186   3.969  -0.493   7.391 -0.2874 -0.3412 -0.1546
   64SAPC  H10R 5187   3.916  -0.423   7.459 -2.3662 -1.4032 -0.5989
   64SAPC  H10S 5188   4.063  -0.442   7.360 -0.1684  0.4394  1.3938
   64SAPC  C211 5189   4.006  -0.622   7.467 -0.2913 -0.3367  0.7229
   64SAPC  H11R 5190   4.018  -0.706   7.397 -2.2798 -0.0828  0.0127
   64SAPC  C212 5191   4.013  -0.635   7.596 -0.0522 -0.0222 -0.4995
   64SAPC  H12R 5192   4.048  -0.731   7.638 -2.4742 -1.0272 -0.6309
   64SAPC  C213 5193   3.979  -0.526   7.697  0.1428 -0.3631 -0.1214
   64SAPC  H13R 5194   3.936  -0.576   7.786  1.0723  0.7606  1.0035
   64SAPC  H13S 5195   3.894  -0.470   7.653 -1.4716 -1.7033  1.1404
   64SAPC  C214 5196   4.103  -0.445   7.741 -0.0673 -0.0376 -0.9386
   64SAPC  H14R 5197   4.179  -0.435   7.663 -0.2182 -0.9886 -1.2121
   64SAPC  C215 5198   4.119  -0.364   7.846  0.6156 -0.2023  0.1422
   64SAPC  H15R 5199   4.213  -0.308   7.852  0.7521 -0.0811 -2.0917
   64SAPC  C216 5200   4.012  -0.334   7.947  0.3360  0.3513 -0.6158
   64SAPC  H16R 5201   3.916  -0.367   7.902 -0.8120  1.3041  1.0192
   64SAPC  H16S 5202   4.003  -0.223   7.948  0.2216  0.3425 -0.1879
   64SAPC  C217 5203   4.032  -0.407   8.085 -0.2708 -0.0711 -0.0372
   64SAPC  H17R 5204   4.069  -0.511   8.071  2.0440  0.4762  1.4448
   64SAPC  H17S 5205   3.932  -0.420   8.132 -0.5860  1.0494 -0.3753
   64SAPC  C218 5206   4.128  -0.333   8.184 -0.4195 -0.8188 -0.8549
   64SAPC  H18R 5207   4.086  -0.232   8.201  0.0681 -0.9289  1.3450
   64SAPC  H18S 5208   4.227  -0.328   8.134  0.9279 -4.0323  1.1815
   64SAPC  C219 5209   4.144  -0.402   8.323 -0.0691 -0.3077 -0.3922
   64SAPC  H19R 5210   4.162  -0.511   8.313 -0.8293 -0.3918 -0.9689
   64SAPC  H19S 5211   4.043  -0.401   8.368  0.3515 -0.4825  0.5718
   64SAPC  C220 5212   4.252  -0.342   8.403  0.1183 -0.2848  0.3826
   64SAPC  H20R 5213   4.351  -0.380   8.369 -0.2529 -0.5039 -0.4806
   64SAPC  H20S 5214   4.243  -0.373   8.509  1.0578  1.7655  1.1200
   64SAPC  H20T 5215   4.243  -0.231   8.394  0.4254  0.0503  3.1874
   64SAPC   C33 5216   4.357  -0.043   7.124  0.3964 -0.3218  0.5088
   64SAPC   H3X 5217   4.359   0.067   7.109  2.5653 -0.5429 -1.3075
   64SAPC   H3Y 5218   4.452  -0.094   7.097  0.9317  0.2990  1.1775
   64SAPC   C34 5219   4.328  -0.075   7.275 -0.2758 -0.0721 -0.2402
   64SAPC   H4X 5220   4.308  -0.183   7.293 -0.8663  0.6086  4.5726
   64SAPC   H4Y 5221   4.238  -0.014   7.296  1.8692  3.7688 -1.2256
   64SAPC   C35 5222   4.451  -0.018   7.361  0.1310  0.1711  0.2931
   64SAPC   H5X 5223   4.516   0.035   7.288 -0.3050  0.0450 -0.1944
   64SAPC   H5Y 5224   4.516  -0.101   7.397 -1.1512 -0.9689  0.0710
   64SAPC   C36 5225   4.410   0.065   7.486 -0.0010  0.0340  0.1624
   64SAPC   H6X 5226   4.372   0.166   7.456 -0.6125 -0.3607 -0.4250
   64SAPC   H6Y 5227   4.495   0.091   7.552 -0.4370  1.2413  0.2785
   64SAPC   C37 5228   4.295   0.015   7.578 -0.6430 -0.5236 -0.2673
   64SAPC   H7X 5229   4.196   0.030   7.531 -0.1950  2.2117 -0.5136
   64SAPC   H7Y 5230   4.297   0.082   7.667 -0.4371  0.0276 -0.6809
   64SAPC   C38 5231   4.320  -0.126   7.630  0.4913  0.0883 -0.5438
   64SAPC   H8X 5232   4.305  -0.206   7.555 -0.8435 -0.2239  0.0151
   64SAPC   H8Y 5233   4.254  -0.149   7.716  0.2305  0.1263 -0.7321
   64SAPC   C39 5234   4.459  -0.138   7.690 -0.0790 -0.3929  0.2965
   64SAPC   H9X 5235   4.538  -0.127   7.612 -1.9998  0.1366 -1.6823
   64SAPC   H9Y 5236   4.468  -0.243   7.727  0.6988 -0.2982  0.3879
   64SAPC  C310 5237   4.496  -0.048   7.806  0.0389 -0.3381  0.0127
   64SAPC  H10X 5238   4.487   0.058   7.773 -1.0803  0.5406  2.9123
   64SAPC  H10Y 5239   4.607  -0.056   7.818 -0.0006  1.4174  1.9431
   64SAPC  C311 5240   4.425  -0.083   7.937 -0.3218  0.2722 -0.2430
   64SAPC  H11X 5241   4.441  -0.193   7.944 -1.4357  0.0034 -1.5134
   64SAPC  H11Y 5242   4.316  -0.063   7.946 -0.3955 -0.4558  0.6010
   64SAPC  C312 5243   4.487  -0.020   8.063  0.4072 -0.1167  0.6076
   64SAPC  H12X 5244   4.467   0.089   8.060 -0.0558 -0.2115  0.1481
   64SAPC  H12Y 5245   4.596  -0.043   8.071  0.5177 -0.3906 -1.2525
   64SAPC  C313 5246   4.416  -0.067   8.189  0.3491  0.2401  0.7866
   64SAPC  H13X 5247   4.437  -0.171   8.221  0.0311 -0.0634  0.0288
   64SAPC  H13Y 5248   4.308  -0.066   8.163  0.4837 -0.6433  0.1573
   64SAPC  C314 5249   4.450   0.026   8.306  0.0485  0.2176  0.3208
   64SAPC  H14X 5250   4.407   0.128   8.298  0.6143  0.3031 -2.5473
   64SAPC  H14Y 5251   4.560   0.033   8.289  0.3734 -1.2050  1.5700
   64SAPC  C315 5252   4.434  -0.038   8.450  0.8587 -0.0565  0.3573
   64SAPC  H15X 5253   4.477  -0.141   8.450  0.6928 -0.1268  0.5255
   64SAPC  H15Y 5254   4.328  -0.049   8.482  0.5083  1.2404 -0.3170
   64SAPC  C316 5255   4.520   0.036   8.560  0.0285 -0.1860 -0.8534
   64SAPC  H16X 5256   4.628   0.013   8.551  0.7869  2.1410  0.9522
   64SAPC  H16Y 5257   4.485   0.009   8.662 -1.4203  1.5804 -0.8224
   64SAPC  C317 5258   4.503   0.187   8.564 -0.3288  0.3013 -0.2181
   64SAPC  H17X 5259   4.396   0.193   8.592 -0.8800 -0.2536 -2.0522
   64SAPC  H17Y 5260   4.505   0.236   8.464  1.4642 -0.1192 -0.4262
   64SAPC  C318 5261   4.580   0.257   8.669  0.2954  0.3626 -0.8958
   64SAPC  H18X 5262   4.686   0.224   8.662  0.0026 -0.3205 -2.9762
   64SAPC  H18Y 5263   4.546   0.225   8.770  2.3304 -0.4833 -0.4370
   64SAPC  H18Z 5264   4.570   0.368   8.667 -2.1327  0.2581  1.2836
   65SAPC     N 5265   5.924   6.582   6.097 -0.6462 -0.2407 -0.2298
   65SAPC   C12 5266   5.905   6.701   6.187 -0.4753  0.6860 -0.9274
   65SAPC  H12A 5267   5.914   6.792   6.129  2.1208  1.2721  0.2419
   65SAPC  H12B 5268   5.984   6.701   6.261 -1.0092 -2.4097 -0.2057
   65SAPC   C13 5269   6.066   6.541   6.068 -1.1580 -0.1339 -0.4430
   65SAPC  H13A 5270   6.124   6.512   6.154 -0.1101  1.7454 -0.4668
   65SAPC  H13B 5271   6.065   6.469   5.987 -1.3026 -0.9514  0.2710
   65SAPC  H13C 5272   6.113   6.626   6.020  2.4085 -1.6507  0.0400
   65SAPC   C14 5273   5.871   6.450   6.155  0.3617 -0.8320  0.2151
   65SAPC  H14A 5274   5.919   6.437   6.251 -1.7924 -1.6684  1.2409
   65SAPC  H14B 5275   5.765   6.446   6.174  0.3525 -0.7937  0.1709
   65SAPC  H14C 5276   5.895   6.369   6.087  0.1161 -1.4203  0.8155
   65SAPC   C15 5277   5.858   6.611   5.958  0.0318  0.1077 -0.2467
   65SAPC  H15A 5278   5.754   6.639   5.968 -0.5359 -0.8799 -2.6947
   65SAPC  H15B 5279   5.903   6.696   5.909 -0.2591 -0.3225 -1.2753
   65SAPC  H15C 5280   5.863   6.526   5.891 -0.3756  0.2126 -0.4159
   65SAPC   C11 5281   5.781   6.720   6.279  0.3422  0.3670  0.5353
   65SAPC  H11A 5282   5.804   6.807   6.346 -2.5980 -0.4743  2.8442
   65SAPC  H11B 5283   5.767   6.634   6.348  2.3223 -0.3438  0.1331
   65SAPC     P 5284   5.642   6.875   6.129  0.2207  0.5312  0.1166
   65SAPC   O13 5285   5.728   6.875   6.012  0.3404 -0.4007  0.8823
   65SAPC   O14 5286   5.499   6.899   6.114 -0.2439  0.2863  0.4592
   65SAPC   O12 5287   5.658   6.732   6.199  0.0524 -0.6614 -0.1964
   65SAPC   O11 5288   5.693   6.977   6.243  0.3601  0.0745  0.2019
   65SAPC    C1 5289   5.591   7.008   6.339  0.0082  0.4321 -0.5279
   65SAPC    HA 5290   5.498   7.049   6.293 -1.4024 -1.7962  0.1533
   65SAPC    HB 5291   5.559   6.918   6.395 -1.6233  1.8203  0.9075
   65SAPC    C2 5292   5.646   7.110   6.442 -0.2803  1.1570 -0.2039
   65SAPC    HS 5293   5.705   7.185   6.385  1.4500 -0.3414 -0.4858
   65SAPC   O21 5294   5.732   7.037   6.540 -0.6600 -0.3487  0.0265
   65SAPC   C21 5295   5.861   7.023   6.510 -1.0448  0.1393  0.3328
   65SAPC   O22 5296   5.919   7.085   6.425  0.1783 -0.0615 -0.8074
   65SAPC   C22 5297   5.916   6.919   6.605  0.6291 -0.3439 -0.0424
   65SAPC   H2R 5298   5.851   6.918   6.695 -0.0417 -0.3008 -0.5268
   65SAPC   H2S 5299   5.900   6.821   6.556 -1.0449 -0.1743  0.1017
   65SAPC    C3 5300   5.527   7.175   6.518  0.2375  0.0955  0.3332
   65SAPC    HX 5301   5.461   7.090   6.544  0.9775 -0.6951 -0.3444
   65SAPC    HY 5302   5.471   7.244   6.450  0.2272  1.1814  1.4086
   65SAPC   O31 5303   5.564   7.232   6.640  0.2983 -0.1489  0.2521
   65SAPC   C31 5304   5.622   7.348   6.624  0.8963 -0.1016 -0.6840
   65SAPC   O32 5305   5.660   7.398   6.516 -0.1419  0.2176 -0.8653
   65SAPC   C32 5306   5.636   7.407   6.768  0.8548  0.4338  0.2404
   65SAPC   H2X 5307   5.728   7.360   6.809 -0.1335 -0.9192  1.0096
   65SAPC   H2Y 5308   5.543   7.377   6.821  0.3877 -0.8088 -1.2159
   65SAPC   C23 5309   6.061   6.941   6.656 -0.2919  0.6696  0.7850
   65SAPC   H3R 5310   6.076   7.044   6.696 -0.6494  1.2553 -0.5290
   65SAPC   H3S 5311   6.137   6.934   6.575 -1.5837 -1.2070 -0.3410
   65SAPC   C24 5312   6.109   6.826   6.751  0.1542  0.1692 -0.4375
   65SAPC   H4R 5313   6.216   6.836   6.780  0.4842 -3.2951 -0.0962
   65SAPC   H4S 5314   6.101   6.729   6.698 -0.6999 -1.2684  2.1748
   65SAPC   C25 5315   6.034   6.845   6.880 -0.4712 -0.9077  0.7805
   65SAPC   H5R 5316   6.003   6.945   6.912 -0.9694 -1.4096  1.9137
   65SAPC   C26 5317   6.004   6.746   6.961  0.2650  0.5081 -0.0443
   65SAPC   H6R 5318   5.951   6.763   7.056 -1.7794  0.1998 -1.0701
   65SAPC   C27 5319   6.036   6.603   6.920  0.1180 -0.6260  0.1977
   65SAPC   H7R 5320   6.141   6.576   6.941 -0.1346 -1.5826  0.3043
   65SAPC   H7S 5321   6.008   6.596   6.813 -0.7628 -1.9388  0.4822
   65SAPC   C28 5322   5.953   6.514   7.006  0.4626 -0.2299 -0.5989
   65SAPC   H8R 5323   5.855   6.488   6.964  0.5683  0.8297 -1.5292
   65SAPC   C29 5324   5.990   6.467   7.127 -0.0922 -0.0169 -0.3407
   65SAPC   H9R 5325   5.916   6.398   7.171 -0.7105 -0.3372 -1.8438
   65SAPC  C210 5326   6.112   6.512   7.192  0.4844  1.1558  0.3936
   65SAPC  H10R 5327   6.102   6.622   7.199 -0.7000  1.2603 -2.0231
   65SAPC  H10S 5328   6.210   6.497   7.141  0.6772  2.0225  0.4901
   65SAPC  C211 5329   6.117   6.449   7.327 -0.0786 -0.0206 -0.3715
   65SAPC  H11R 5330   6.167   6.351   7.321 -3.6038 -2.0109  0.2022
   65SAPC  C212 5331   6.064   6.492   7.442  0.4278  0.0329 -0.2878
   65SAPC  H12R 5332   6.079   6.425   7.528  0.7463 -1.0799 -1.1902
   65SAPC  C213 5333   5.995   6.631   7.463  0.3834 -0.0727  0.1237
   65SAPC  H13R 5334   5.886   6.623   7.481  0.5379  2.4588  2.7746
   65SAPC  H13S 5335   6.008   6.695   7.373 -1.8248  1.4051  0.7738
   65SAPC  C214 5336   6.053   6.685   7.584 -0.5310 -0.2406  0.2723
   65SAPC  H14R 5337   6.162   6.677   7.593 -0.3190  0.3414 -1.4411
   65SAPC  C215 5338   5.986   6.754   7.676  0.1399  0.0633 -0.4132
   65SAPC  H15R 5339   6.049   6.801   7.753  0.0024 -0.9616  0.3476
   65SAPC  C216 5340   5.836   6.784   7.661  0.2561  0.5942 -0.3963
   65SAPC  H16R 5341   5.774   6.692   7.648  0.9689 -0.4010  2.5586
   65SAPC  H16S 5342   5.828   6.864   7.584  2.7152  1.2330 -0.0639
   65SAPC  C217 5343   5.772   6.849   7.790  0.5797 -0.6410 -0.3213
   65SAPC  H17R 5344   5.781   6.769   7.867  2.7636  0.5379  0.7472
   65SAPC  H17S 5345   5.664   6.863   7.768  0.9133  1.1727 -0.9416
   65SAPC  C218 5346   5.847   6.966   7.855 -0.3625  0.3338 -0.0059
   65SAPC  H18R 5347   5.910   7.028   7.788  2.3551 -2.9987 -0.8220
   65SAPC  H18S 5348   5.915   6.923   7.932  1.3412 -0.1225 -1.6675
   65SAPC  C219 5349   5.759   7.045   7.955  0.2796 -0.0995 -0.6072
   65SAPC  H19R 5350   5.704   6.968   8.014 -0.2227  0.0814 -0.8330
   65SAPC  H19S 5351   5.677   7.088   7.894 -0.4110  0.5142  0.7155
   65SAPC  C220 5352   5.844   7.142   8.039 -0.7890  0.5288  0.0073
   65SAPC  H20R 5353   5.912   7.194   7.967 -0.2094  1.3382  1.1010
   65SAPC  H20S 5354   5.901   7.088   8.117 -0.6476  0.6590 -0.0038
   65SAPC  H20T 5355   5.790   7.219   8.098  1.3466  0.9618  1.5400
   65SAPC   C33 5356   5.657   7.560   6.771  0.6100  0.2066  0.4005
   65SAPC   H3X 5357   5.573   7.613   6.722 -0.0409  1.7358  2.9898
   65SAPC   H3Y 5358   5.748   7.586   6.713 -1.3659  0.6445 -2.7230
   65SAPC   C34 5359   5.684   7.603   6.913 -0.6448 -0.1761  0.0802
   65SAPC   H4X 5360   5.760   7.531   6.948 -0.1222 -0.0450 -0.7606
   65SAPC   H4Y 5361   5.591   7.592   6.973 -0.9293 -0.3438 -0.3882
   65SAPC   C35 5362   5.736   7.747   6.921  0.3053 -0.1481  0.6333
   65SAPC   H5X 5363   5.645   7.809   6.906 -0.2332 -0.7753  1.2575
   65SAPC   H5Y 5364   5.806   7.776   6.839 -0.3273  0.6338  0.3556
   65SAPC   C36 5365   5.795   7.809   7.047  0.9283 -0.2101 -0.1229
   65SAPC   H6X 5366   5.774   7.918   7.042 -1.4408 -0.6515 -1.0998
   65SAPC   H6Y 5367   5.903   7.785   7.048  0.5021 -2.2526 -0.0791
   65SAPC   C37 5368   5.732   7.740   7.171 -0.0736  0.2536  0.1127
   65SAPC   H7X 5369   5.756   7.633   7.186  1.0488  0.4224 -0.4041
   65SAPC   H7Y 5370   5.621   7.747   7.177 -0.2948 -1.5300 -1.2953
   65SAPC   C38 5371   5.775   7.813   7.294 -0.7988 -0.3915  0.1754
   65SAPC   H8X 5372   5.783   7.921   7.270 -0.0385 -0.9470 -2.3612
   65SAPC   H8Y 5373   5.880   7.777   7.305 -1.1489 -1.6304 -0.3826
   65SAPC   C39 5374   5.700   7.779   7.423 -0.2992 -0.3990 -0.5764
   65SAPC   H9X 5375   5.706   7.668   7.426  1.7248 -0.3323 -0.7620
   65SAPC   H9Y 5376   5.594   7.813   7.417  0.5403  2.2892 -1.7105
   65SAPC  C310 5377   5.781   7.835   7.537 -0.4367 -0.7305  0.1163
   65SAPC  H10X 5378   5.777   7.945   7.525 -0.5333 -0.8320 -0.8567
   65SAPC  H10Y 5379   5.890   7.815   7.532  0.4722  3.4034  0.4841
   65SAPC  C311 5380   5.735   7.798   7.675 -0.2300  0.0710 -1.0921
   65SAPC  H11X 5381   5.785   7.707   7.716  0.5194  1.1539  0.5202
   65SAPC  H11Y 5382   5.632   7.759   7.665 -0.4419  0.0699  0.8279
   65SAPC  C312 5383   5.749   7.908   7.772 -0.3050  0.4060 -0.0454
   65SAPC  H12X 5384   5.701   7.997   7.727 -0.2783  0.8183  0.7122
   65SAPC  H12Y 5385   5.859   7.925   7.778 -0.5831  2.3580  0.1689
   65SAPC  C313 5386   5.708   7.891   7.918 -0.5406  0.2252  0.1949
   65SAPC  H13X 5387   5.738   7.794   7.965  1.6174  1.2570  1.1024
   65SAPC  H13Y 5388   5.597   7.891   7.924 -0.5966 -0.3130 -0.6308
   65SAPC  C314 5389   5.771   8.001   8.002 -0.3324 -0.3094 -0.4664
   65SAPC  H14X 5390   5.696   8.082   8.018 -1.1594 -1.2225  0.4731
   65SAPC  H14Y 5391   5.854   8.051   7.948 -0.8842 -0.0274 -1.0633
   65SAPC  C315 5392   5.811   7.954   8.141  0.0783 -0.0167  0.8009
   65SAPC  H15X 5393   5.896   8.016   8.178  1.5614 -0.6860 -1.3125
   65SAPC  H15Y 5394   5.846   7.849   8.146 -2.2676 -0.8818  0.4760
   65SAPC  C316 5395   5.689   7.963   8.245  0.1454 -0.0519  0.1828
   65SAPC  H16X 5396   5.601   7.933   8.183  0.7264  0.4720 -0.9221
   65SAPC  H16Y 5397   5.669   8.070   8.267 -0.6227 -0.0421 -0.4911
   65SAPC  C317 5398   5.704   7.901   8.386  0.3493 -0.0474  0.1870
   65SAPC  H17X 5399   5.712   7.792   8.368  1.9108  0.0729  0.0198
   65SAPC  H17Y 5400   5.620   7.937   8.449 -1.3848  0.3791 -2.2437
   65SAPC  C318 5401   5.828   7.944   8.465  0.2874  0.7123 -0.5474
   65SAPC  H18X 5402   5.928   7.906   8.434  0.6945 -0.1071  1.5951
   65SAPC  H18Y 5403   5.818   7.907   8.569 -1.5886 -0.5323 -1.1073
   65SAPC  H18Z 5404   5.829   8.055   8.473  0.1079  0.6332  0.7464
   66SAPC     N 5405   1.760   1.403   6.184 -0.0248  0.0610 -0.0784
   66SAPC   C12 5406   1.789   1.411   6.335  0.5299  0.1915 -0.3689
   66SAPC  H12A 5407   1.804   1.311   6.373 -0.3808 -0.4267 -1.5637
   66SAPC  H12B 5408   1.698   1.437   6.387 -0.5196 -0.2743 -1.9332
   66SAPC   C13 5409   1.708   1.537   6.144  0.3543 -0.0867 -0.1491
   66SAPC  H13A 5410   1.784   1.613   6.144 -0.9295  1.2592 -0.9166
   66SAPC  H13B 5411   1.663   1.530   6.046 -0.6633  0.3802  0.2599
   66SAPC  H13C 5412   1.623   1.566   6.204  0.3066 -2.1107  0.8607
   66SAPC   C14 5413   1.868   1.347   6.102 -0.6644 -0.0710 -0.0652
   66SAPC  H14A 5414   1.882   1.243   6.127  2.0976  0.0783 -0.7471
   66SAPC  H14B 5415   1.843   1.351   5.997  2.3309 -1.9062 -0.9413
   66SAPC  H14C 5416   1.958   1.399   6.130 -1.6178 -0.1737  3.6839
   66SAPC   C15 5417   1.642   1.318   6.157  0.5914 -0.2070 -0.7692
   66SAPC  H15A 5418   1.622   1.321   6.051  0.0938  0.1698 -0.6633
   66SAPC  H15B 5419   1.667   1.214   6.175 -0.3695 -0.7063 -2.1204
   66SAPC  H15C 5420   1.561   1.347   6.222  1.6551  1.0432  0.0343
   66SAPC   C11 5421   1.901   1.507   6.373  0.2384 -0.5459  0.8297
   66SAPC  H11A 5422   1.901   1.494   6.484 -0.0544 -3.2790  0.5797
   66SAPC  H11B 5423   1.880   1.612   6.342  2.6049 -0.5058 -0.8554
   66SAPC     P 5424   2.162   1.458   6.380  0.0226  0.2499  0.0384
   66SAPC   O13 5425   2.257   1.398   6.285 -0.2677 -0.1650  0.4377
   66SAPC   O14 5426   2.206   1.574   6.459 -0.0977 -0.6587 -0.0944
   66SAPC   O12 5427   2.025   1.484   6.300  0.1111 -0.4312  0.7280
   66SAPC   O11 5428   2.113   1.342   6.474 -0.1659 -0.5677 -0.2623
   66SAPC    C1 5429   2.202   1.246   6.537  0.6326 -0.5292 -0.4543
   66SAPC    HA 5430   2.145   1.152   6.547 -3.4712  1.8528  1.5186
   66SAPC    HB 5431   2.297   1.233   6.481  0.2249  0.2714 -1.3696
   66SAPC    C2 5432   2.233   1.300   6.681 -0.7323 -0.9508 -0.7601
   66SAPC    HS 5433   2.242   1.410   6.671  1.9451 -1.0968 -0.6044
   66SAPC   O21 5434   2.353   1.229   6.729 -0.3035 -0.6163  0.1108
   66SAPC   C21 5435   2.424   1.304   6.820  0.8634  0.4592  0.2669
   66SAPC   O22 5436   2.404   1.418   6.852 -0.4880 -0.3071  0.2844
   66SAPC   C22 5437   2.530   1.212   6.877 -0.1018  0.8303  0.1654
   66SAPC   H2R 5438   2.477   1.145   6.948  0.8251  0.5333  0.5881
   66SAPC   H2S 5439   2.572   1.151   6.795 -2.4491 -0.7630  0.0446
   66SAPC    C3 5440   2.110   1.269   6.778  0.6602 -0.3226  0.1887
   66SAPC    HX 5441   2.101   1.160   6.792  0.8593 -0.2072  1.2704
   66SAPC    HY 5442   2.017   1.311   6.734  0.0163  1.1449  2.7383
   66SAPC   O31 5443   2.123   1.320   6.908 -0.2036  0.0120 -0.1675
   66SAPC   C31 5444   2.137   1.451   6.921  0.7998 -0.2136 -0.2543
   66SAPC   O32 5445   2.123   1.531   6.829 -0.6225  0.3513  0.8664
   66SAPC   C32 5446   2.172   1.486   7.063  0.4131 -0.7709 -0.3922
   66SAPC   H2X 5447   2.169   1.596   7.077  2.7625 -0.7352  0.2620
   66SAPC   H2Y 5448   2.283   1.482   7.075  0.2287 -1.9572  1.1588
   66SAPC   C23 5449   2.634   1.303   6.942  0.1367 -0.3172  0.5143
   66SAPC   H3R 5450   2.630   1.409   6.908  2.1325 -1.3767 -3.5941
   66SAPC   H3S 5451   2.732   1.265   6.906  0.0174  2.2744 -3.0256
   66SAPC   C24 5452   2.612   1.315   7.093 -0.2482 -0.0382 -0.3574
   66SAPC   H4R 5453   2.503   1.335   7.106 -0.1831 -0.7811  1.7314
   66SAPC   H4S 5454   2.663   1.403   7.139 -0.3826 -0.5862  0.8802
   66SAPC   C25 5455   2.641   1.179   7.160 -0.4006 -0.5246  0.9280
   66SAPC   H5R 5456   2.644   1.084   7.106  1.5053 -0.4507  0.8228
   66SAPC   C26 5457   2.682   1.172   7.289  0.8739  0.0436  0.0140
   66SAPC   H6R 5458   2.712   1.074   7.330  1.1014  0.0493 -0.1391
   66SAPC   C27 5459   2.693   1.282   7.392 -0.2849  0.1925 -0.0622
   66SAPC   H7R 5460   2.608   1.273   7.463  1.2007 -1.9777  1.5879
   66SAPC   H7S 5461   2.676   1.382   7.347 -0.6454  0.3421  0.3927
   66SAPC   C28 5462   2.815   1.280   7.484 -0.3561  0.0963 -0.3689
   66SAPC   H8R 5463   2.889   1.359   7.464  1.1411 -0.7640  1.5042
   66SAPC   C29 5464   2.835   1.212   7.600  1.0032  0.1899 -0.7921
   66SAPC   H9R 5465   2.930   1.223   7.655  0.0997 -0.3721  0.9597
   66SAPC  C210 5466   2.733   1.118   7.660  0.5390  1.3754  0.0292
   66SAPC  H10R 5467   2.715   1.032   7.593  0.4606 -0.0220  1.7989
   66SAPC  H10S 5468   2.628   1.149   7.678  0.3910  1.5136 -0.9647
   66SAPC  C211 5469   2.792   1.057   7.786  0.0873 -0.8336  0.0159
   66SAPC  H11R 5470   2.898   1.026   7.780  0.6254  0.6430  1.2469
   66SAPC  C212 5471   2.726   1.031   7.903 -0.0906 -0.0727 -0.4788
   66SAPC  H12R 5472   2.785   1.002   7.992  0.7726 -0.0979 -1.0488
   66SAPC  C213 5473   2.579   1.042   7.930 -0.0994  0.1506  0.4922
   66SAPC  H13R 5474   2.538   0.945   7.966  0.0359  0.2266  0.8582
   66SAPC  H13S 5475   2.530   1.066   7.834  2.7439  0.5428 -0.9715
   66SAPC  C214 5476   2.547   1.165   8.017  0.0557  0.3607 -0.2972
   66SAPC  H14R 5477   2.604   1.253   7.984 -0.9048  0.7263 -1.0210
   66SAPC  C215 5478   2.477   1.161   8.130  0.1564 -0.2026 -0.1607
   66SAPC  H15R 5479   2.476   1.247   8.198  1.3590 -0.4217  0.1560
   66SAPC  C216 5480   2.403   1.046   8.188  0.0214 -0.0395 -0.1595
   66SAPC  H16R 5481   2.470   0.963   8.218 -1.0762 -0.5329  0.9836
   66SAPC  H16S 5482   2.331   0.999   8.117  3.1739 -3.5295 -1.3481
   66SAPC  C217 5483   2.319   1.087   8.310  0.4156 -0.1676  0.2001
   66SAPC  H17R 5484   2.264   1.183   8.299  1.3621  0.3776  0.2103
   66SAPC  H17S 5485   2.394   1.110   8.388  0.4235  2.5520 -0.5002
   66SAPC  C218 5486   2.225   0.986   8.357  0.4687 -0.3128  0.3614
   66SAPC  H18R 5487   2.282   0.901   8.401 -0.1276 -1.4673 -1.0331
   66SAPC  H18S 5488   2.165   0.935   8.278  0.3219  1.1331 -0.4996
   66SAPC  C219 5489   2.137   1.040   8.471 -1.8971 -0.1735 -0.6462
   66SAPC  H19R 5490   2.058   1.105   8.427 -0.7617  0.4526 -1.8234
   66SAPC  H19S 5491   2.211   1.092   8.537 -2.1982  0.8771 -1.1122
   66SAPC  C220 5492   2.057   0.932   8.542 -0.4019  0.0879 -0.1466
   66SAPC  H20R 5493   1.983   0.962   8.620  1.1142 -0.6380  1.6454
   66SAPC  H20S 5494   2.122   0.857   8.592  1.9902  2.5768  0.7046
   66SAPC  H20T 5495   2.009   0.867   8.466  2.3526 -0.3682 -1.6109
   66SAPC   C33 5496   2.122   1.394   7.180 -0.6269  0.1781  0.4153
   66SAPC   H3X 5497   2.122   1.287   7.149  0.4264  0.5659 -1.0793
   66SAPC   H3Y 5498   2.017   1.416   7.208 -1.2721 -2.5430  0.3952
   66SAPC   C34 5499   2.185   1.420   7.309  0.1243  0.0489 -0.6165
   66SAPC   H4X 5500   2.185   1.527   7.339 -0.2291 -0.2960  0.6642
   66SAPC   H4Y 5501   2.292   1.392   7.306  0.3870  0.4253  2.3130
   66SAPC   C35 5502   2.113   1.337   7.427 -1.0863 -0.2545  0.4213
   66SAPC   H5X 5503   2.102   1.232   7.393  2.2549 -0.9455  1.0533
   66SAPC   H5Y 5504   2.013   1.383   7.434 -0.6540  0.6085  1.0780
   66SAPC   C36 5505   2.176   1.360   7.565 -0.3676  0.4007  0.2426
   66SAPC   H6X 5506   2.171   1.465   7.601  0.9872 -0.0800  1.9694
   66SAPC   H6Y 5507   2.286   1.343   7.563 -0.4541 -0.1454 -1.0388
   66SAPC   C37 5508   2.105   1.266   7.667 -0.5435  0.4530  1.1527
   66SAPC   H7X 5509   2.091   1.164   7.624 -1.0594  1.6522 -1.7770
   66SAPC   H7Y 5510   2.004   1.310   7.681 -0.3001  1.5147 -0.1995
   66SAPC   C38 5511   2.174   1.260   7.801  0.0415  0.5824  0.0111
   66SAPC   H8X 5512   2.198   1.363   7.835  0.0453  1.5875 -2.8021
   66SAPC   H8Y 5513   2.271   1.215   7.769 -0.1542  0.0266  0.1833
   66SAPC   C39 5514   2.107   1.175   7.908  0.0550 -0.0529  0.3896
   66SAPC   H9X 5515   2.158   1.200   8.004 -0.7167  1.9851  0.3141
   66SAPC   H9Y 5516   2.105   1.065   7.890  1.5545  0.0750 -0.7004
   66SAPC  C310 5517   1.952   1.211   7.927 -0.0604  0.1451  0.4420
   66SAPC  H10X 5518   1.905   1.192   7.828 -0.1072  0.9828  0.2957
   66SAPC  H10Y 5519   1.949   1.321   7.941  1.4648  0.1233  1.1376
   66SAPC  C311 5520   1.890   1.136   8.050 -0.2653  0.3326  0.5840
   66SAPC  H11X 5521   1.953   1.153   8.140  0.1720  0.5435  0.2376
   66SAPC  H11Y 5522   1.891   1.027   8.030  2.6066  0.1090  1.5824
   66SAPC  C312 5523   1.750   1.187   8.088  0.0426  0.3077 -0.4700
   66SAPC  H12X 5524   1.701   1.184   7.988 -2.3449  0.5969  0.6100
   66SAPC  H12Y 5525   1.745   1.294   8.118 -2.0428  0.9849 -2.8916
   66SAPC  C313 5526   1.682   1.099   8.196 -0.7060  0.4777  0.2596
   66SAPC  H13X 5527   1.697   0.989   8.189  2.0949  0.6721  1.7285
   66SAPC  H13Y 5528   1.574   1.127   8.197 -1.5795 -1.8657 -4.1045
   66SAPC  C314 5529   1.749   1.133   8.337 -0.1770  0.2161  0.0634
   66SAPC  H14X 5530   1.730   1.242   8.352 -1.5352  0.3632 -2.3048
   66SAPC  H14Y 5531   1.858   1.117   8.324 -0.5241 -2.9938  0.4630
   66SAPC  C315 5532   1.696   1.033   8.444 -0.4507 -0.0072 -0.3817
   66SAPC  H15X 5533   1.748   0.938   8.420  0.0333  0.2822 -0.4988
   66SAPC  H15Y 5534   1.585   1.027   8.434 -0.2711 -2.5847 -1.6574
   66SAPC  C316 5535   1.723   1.061   8.586  0.0444  0.6308  0.2703
   66SAPC  H16X 5536   1.664   1.153   8.609  0.5373  1.7180 -2.4439
   66SAPC  H16Y 5537   1.829   1.092   8.595 -0.0402  1.7721 -2.0163
   66SAPC  C317 5538   1.689   0.934   8.664 -0.2448  0.6549  0.0542
   66SAPC  H17X 5539   1.763   0.860   8.626  1.2778  2.7128 -1.1937
   66SAPC  H17Y 5540   1.589   0.895   8.635 -0.0652  0.5323 -0.3967
   66SAPC  C318 5541   1.706   0.954   8.813  0.3755 -0.9748  0.4275
   66SAPC  H18X 5542   1.634   1.033   8.842 -1.8244 -2.6839 -0.1564
   66SAPC  H18Y 5543   1.811   0.982   8.838 -0.7177  1.0565  3.3055
   66SAPC  H18Z 5544   1.676   0.863   8.870 -3.9718 -0.7752 -1.1923
   67SAPC     N 5545   5.687   2.422   6.390 -0.0547  0.3403 -0.9004
   67SAPC   C12 5546   5.778   2.326   6.468 -0.0594  0.6155 -0.1774
   67SAPC  H12A 5547   5.878   2.366   6.464  0.0911  0.1816 -0.8651
   67SAPC  H12B 5548   5.783   2.229   6.421 -0.8415 -0.7500  2.3626
   67SAPC   C13 5549   5.545   2.388   6.399 -0.3994 -0.2017 -0.9137
   67SAPC  H13A 5550   5.481   2.471   6.372  0.9825  0.2871 -2.9364
   67SAPC  H13B 5551   5.523   2.307   6.330  1.7351 -1.4578 -0.2150
   67SAPC  H13C 5552   5.520   2.372   6.503 -2.4479  2.0787 -0.9488
   67SAPC   C14 5553   5.701   2.554   6.461  0.8912  0.0676  0.0722
   67SAPC  H14A 5554   5.649   2.637   6.415  1.2620  0.4470  0.3368
   67SAPC  H14B 5555   5.653   2.554   6.558 -0.4881  0.9595 -0.5714
   67SAPC  H14C 5556   5.802   2.589   6.475  0.3667  2.1345 -0.9510
   67SAPC   C15 5557   5.731   2.432   6.244  0.1047  0.2590  0.4320
   67SAPC  H15A 5558   5.675   2.501   6.183  2.6721  1.0981 -1.1526
   67SAPC  H15B 5559   5.833   2.468   6.234 -0.1820  1.1626  0.6636
   67SAPC  H15C 5560   5.718   2.338   6.192 -1.7040  1.4433 -1.4431
   67SAPC   C11 5561   5.754   2.312   6.618  0.8167  0.3580 -0.6939
   67SAPC  H11A 5562   5.767   2.412   6.665 -1.2041  0.3694 -0.0752
   67SAPC  H11B 5563   5.838   2.266   6.674 -1.2748 -0.2502  2.1265
   67SAPC     P 5564   5.602   2.103   6.625 -0.2684 -0.2891  0.4231
   67SAPC   O13 5565   5.459   2.075   6.645  0.1974  0.3089  0.3401
   67SAPC   O14 5566   5.661   2.065   6.492  0.1790  0.1825 -0.0544
   67SAPC   O12 5567   5.620   2.262   6.649  0.1095  0.0685 -0.2249
   67SAPC   O11 5568   5.691   2.034   6.735 -0.7661  0.4221 -0.0549
   67SAPC    C1 5569   5.679   2.042   6.871  0.3832  0.6901 -0.2232
   67SAPC    HA 5570   5.578   2.080   6.898  0.1511 -0.5285  0.7130
   67SAPC    HB 5571   5.673   1.942   6.921 -0.6207  0.9909  0.2852
   67SAPC    C2 5572   5.783   2.124   6.949 -0.0872  0.5796  0.1890
   67SAPC    HS 5573   5.871   2.133   6.882 -0.9710 -1.8214 -1.4241
   67SAPC   O21 5574   5.819   2.053   7.069  0.2376  0.1039 -0.5380
   67SAPC   C21 5575   5.947   2.026   7.099  0.6281 -0.2325  0.8775
   67SAPC   O22 5576   6.039   2.050   7.033 -0.6151  0.4208 -0.0502
   67SAPC   C22 5577   5.968   1.989   7.245  0.2936  0.5047  0.3541
   67SAPC   H2R 5578   5.898   1.913   7.287 -2.6449  2.9028  0.2001
   67SAPC   H2S 5579   6.073   1.953   7.244 -0.0811 -0.7036 -1.5987
   67SAPC    C3 5580   5.726   2.267   6.982 -0.1692 -0.1168 -0.3154
   67SAPC    HX 5581   5.725   2.321   6.885  0.0016 -1.8444 -1.3204
   67SAPC    HY 5582   5.796   2.323   7.047  0.6292 -0.8488 -0.5284
   67SAPC   O31 5583   5.601   2.258   7.058  0.1525  0.1185  0.4461
   67SAPC   C31 5584   5.522   2.366   7.052 -0.0894 -0.4604 -0.1576
   67SAPC   O32 5585   5.547   2.469   6.994  0.4005 -0.4583  0.1607
   67SAPC   C32 5586   5.413   2.348   7.163  0.7603 -0.0053 -0.5046
   67SAPC   H2X 5587   5.385   2.242   7.181  0.3423  0.2436  0.3245
   67SAPC   H2Y 5588   5.329   2.406   7.121  0.9721  1.3972  0.9079
   67SAPC   C23 5589   5.958   2.112   7.339 -0.6171 -0.3345 -0.8870
   67SAPC   H3R 5590   5.854   2.145   7.360 -0.7431 -1.9306  1.2821
   67SAPC   H3S 5591   6.020   2.197   7.302  1.5981 -0.2680  2.5545
   67SAPC   C24 5592   6.017   2.073   7.473  0.4320 -0.0841 -0.2604
   67SAPC   H4R 5593   6.123   2.045   7.457  0.0576 -1.4838 -0.4369
   67SAPC   H4S 5594   5.956   1.987   7.509  0.2001 -0.0452 -0.5466
   67SAPC   C25 5595   6.018   2.185   7.571  0.1910  0.3127 -0.4637
   67SAPC   H5R 5596   6.072   2.270   7.529  0.4070  0.7770  0.7320
   67SAPC   C26 5597   5.973   2.194   7.696  0.9085 -0.2498 -0.2799
   67SAPC   H6R 5598   5.989   2.289   7.749  0.1163  0.7314 -1.7135
   67SAPC   C27 5599   5.909   2.087   7.774 -0.4156 -0.0946 -0.7924
   67SAPC   H7R 5600   5.846   2.018   7.715 -1.2260  1.0391 -1.2686
   67SAPC   H7S 5601   5.837   2.139   7.841 -2.5415  1.9524 -4.3755
   67SAPC   C28 5602   6.013   2.008   7.847 -0.3958  0.6673  0.0682
   67SAPC   H8R 5603   6.094   1.972   7.782  1.4579  1.3982  1.8338
   67SAPC   C29 5604   6.031   1.997   7.980  0.0758  0.7501  0.1425
   67SAPC   H9R 5605   6.085   1.914   8.027 -1.8621  0.2697  1.6670
   67SAPC  C210 5606   5.923   2.057   8.072  0.2454  0.1897  0.2923
   67SAPC  H10R 5607   5.830   2.005   8.043  1.3504 -2.1568  0.6905
   67SAPC  H10S 5608   5.921   2.164   8.044  0.9434  0.6631  1.8977
   67SAPC  C211 5609   5.947   2.044   8.219 -0.1213 -0.4467  0.0043
   67SAPC  H11R 5610   5.900   1.956   8.263  1.4197 -0.5807  1.4756
   67SAPC  C212 5611   6.026   2.128   8.294  0.0731 -0.1028  0.0785
   67SAPC  H12R 5612   6.039   2.112   8.402 -0.6423 -1.2419  0.0186
   67SAPC  C213 5613   6.101   2.245   8.240  0.1194  0.0781  0.9584
   67SAPC  H13R 5614   6.045   2.340   8.243  1.1429  0.7197  0.2439
   67SAPC  H13S 5615   6.129   2.239   8.132 -1.9110  0.1365  0.3892
   67SAPC  C214 5616   6.231   2.257   8.302  0.3054  1.1547 -0.0942
   67SAPC  H14R 5617   6.316   2.227   8.239  0.7766  3.4064 -0.6288
   67SAPC  C215 5618   6.251   2.300   8.430  0.4169  0.1953 -0.4648
   67SAPC  H15R 5619   6.353   2.327   8.462  0.0059  0.0018  1.1208
   67SAPC  C216 5620   6.143   2.356   8.524 -0.1912 -0.2680 -0.2568
   67SAPC  H16R 5621   6.048   2.370   8.468  0.0742 -0.1945 -0.6961
   67SAPC  H16S 5622   6.182   2.447   8.574  0.4308 -1.0382  0.7005
   67SAPC  C217 5623   6.113   2.271   8.647  0.3983  0.2619 -0.3679
   67SAPC  H17R 5624   6.196   2.260   8.719  0.3434  2.3415  0.0807
   67SAPC  H17S 5625   6.091   2.165   8.622 -1.6498 -0.1770  2.7931
   67SAPC  C218 5626   5.989   2.336   8.720 -0.2045 -0.0914  0.0991
   67SAPC  H18R 5627   5.918   2.374   8.644 -0.7905  6.2690  3.1274
   67SAPC  H18S 5628   6.018   2.434   8.764  1.3348 -1.0029  1.2088
   67SAPC  C219 5629   5.919   2.248   8.826 -1.0365 -0.1652  0.0228
   67SAPC  H19R 5630   5.849   2.306   8.889  0.8215  0.2838  1.7790
   67SAPC  H19S 5631   5.990   2.226   8.908  0.5921  2.6900 -0.4965
   67SAPC  C220 5632   5.854   2.121   8.767 -0.7769 -0.5670  0.1182
   67SAPC  H20R 5633   5.929   2.042   8.747  1.4146  1.8216 -1.8270
   67SAPC  H20S 5634   5.802   2.148   8.672 -0.4200 -1.4105 -0.3251
   67SAPC  H20T 5635   5.777   2.095   8.844  1.9262 -1.2874  2.7510
   67SAPC   C33 5636   5.454   2.417   7.296 -0.3098 -0.4018 -0.2181
   67SAPC   H3X 5637   5.481   2.523   7.277 -0.6509 -0.5631 -1.7052
   67SAPC   H3Y 5638   5.540   2.355   7.328  0.2277 -0.2178 -1.2775
   67SAPC   C34 5639   5.333   2.411   7.403  0.2989 -0.2442  0.2898
   67SAPC   H4X 5640   5.302   2.305   7.410  0.3429 -0.1849  1.4508
   67SAPC   H4Y 5641   5.250   2.469   7.357  0.9137  3.6689  3.5122
   67SAPC   C35 5642   5.365   2.478   7.534 -0.3595  0.5409 -0.4116
   67SAPC   H5X 5643   5.266   2.488   7.582 -0.3041 -0.5643 -0.0347
   67SAPC   H5Y 5644   5.393   2.579   7.496 -1.4381  0.4737 -1.4221
   67SAPC   C36 5645   5.471   2.398   7.617 -0.4917 -0.7587  0.3971
   67SAPC   H6X 5646   5.506   2.469   7.695  0.1259 -1.0356  0.3709
   67SAPC   H6Y 5647   5.550   2.372   7.544 -1.8073  2.9512 -2.7320
   67SAPC   C37 5648   5.408   2.268   7.682 -0.8480 -0.8701 -1.2475
   67SAPC   H7X 5649   5.394   2.193   7.601  1.7299 -0.4121 -2.2024
   67SAPC   H7Y 5650   5.312   2.305   7.722 -0.1517 -1.3922  1.0226
   67SAPC   C38 5651   5.493   2.199   7.786 -0.3202  0.4969 -0.8151
   67SAPC   H8X 5652   5.519   2.254   7.880  0.7939  0.3995 -1.0451
   67SAPC   H8Y 5653   5.591   2.179   7.737 -0.1110 -1.8301  0.3866
   67SAPC   C39 5654   5.423   2.073   7.838  0.0522 -0.5342  0.1863
   67SAPC   H9X 5655   5.438   1.992   7.763  0.6750  0.5458 -0.8719
   67SAPC   H9Y 5656   5.318   2.111   7.838  0.2176 -0.0714  0.5170
   67SAPC  C310 5657   5.452   2.017   7.983  0.4418 -0.5669 -0.6718
   67SAPC  H10X 5658   5.441   2.104   8.051  1.6856 -0.4596 -0.5804
   67SAPC  H10Y 5659   5.560   1.990   7.980  0.6559  0.3831 -2.8067
   67SAPC  C311 5660   5.348   1.921   8.034  0.0259 -0.3950  0.0290
   67SAPC  H11X 5661   5.376   1.888   8.136 -0.8561  0.1950  0.4754
   67SAPC  H11Y 5662   5.331   1.831   7.970 -0.6735 -0.0863 -0.2385
   67SAPC  C312 5663   5.203   1.976   8.054  0.4600  0.3090 -0.5959
   67SAPC  H12X 5664   5.152   2.014   7.963  1.7164 -0.5298 -1.6859
   67SAPC  H12Y 5665   5.212   2.052   8.135 -0.1074 -0.1323 -0.1105
   67SAPC  C313 5666   5.110   1.867   8.120 -0.2447 -0.4452  0.2745
   67SAPC  H13X 5667   5.177   1.827   8.199  0.7186  1.4091  0.4710
   67SAPC  H13Y 5668   5.096   1.790   8.041  2.3501 -1.3544  0.6006
   67SAPC  C314 5669   4.980   1.930   8.168  0.4445  0.6319  0.2654
   67SAPC  H14X 5670   4.924   1.973   8.081 -1.3688  1.8618  1.9492
   67SAPC  H14Y 5671   5.001   2.013   8.238  1.0954  0.6778  0.0129
   67SAPC  C315 5672   4.888   1.822   8.234 -0.1008  0.3668  0.2404
   67SAPC  H15X 5673   4.938   1.789   8.327 -0.4845 -1.7084 -0.2461
   67SAPC  H15Y 5674   4.888   1.742   8.157  2.4856  0.4456  0.0837
   67SAPC  C316 5675   4.746   1.868   8.269 -0.2854 -0.0017 -0.4859
   67SAPC  H16X 5676   4.698   1.905   8.176 -0.8680  0.6849  0.0772
   67SAPC  H16Y 5677   4.744   1.960   8.332 -1.9929 -0.5477  0.3114
   67SAPC  C317 5678   4.658   1.762   8.333  0.0139  0.1306  0.1295
   67SAPC  H17X 5679   4.709   1.734   8.427 -0.1056 -2.3243 -0.4707
   67SAPC  H17Y 5680   4.662   1.665   8.279  1.5552 -0.1167  0.6502
   67SAPC  C318 5681   4.513   1.803   8.385 -0.2750  0.3637  0.5734
   67SAPC  H18X 5682   4.466   1.714   8.432 -1.4981 -0.7674 -2.5390
   67SAPC  H18Y 5683   4.450   1.845   8.304  0.1195  2.0808  1.1269
   67SAPC  H18Z 5684   4.543   1.879   8.460  0.5497 -0.1917  0.8291
   68SAPC     N 5685   3.100   1.268   6.175 -0.0117  0.0547  0.8423
   68SAPC   C12 5686   3.107   1.420   6.212  0.6965  0.1771  0.0219
   68SAPC  H12A 5687   3.087   1.472   6.120  0.6257 -0.5236 -0.3671
   68SAPC  H12B 5688   3.207   1.450   6.238  0.6146 -0.6239  1.3485
   68SAPC   C13 5689   2.967   1.237   6.109  0.5680  0.1637  0.0296
   68SAPC  H13A 5690   2.962   1.133   6.079  1.9982  0.2455 -0.5505
   68SAPC  H13B 5691   2.888   1.280   6.170  0.2829  0.6261 -0.6597
   68SAPC  H13C 5692   2.959   1.291   6.016  1.7787 -0.6497 -0.5695
   68SAPC   C14 5693   3.195   1.247   6.075 -0.8497  0.7268 -0.0068
   68SAPC  H14A 5694   3.174   1.314   5.994 -2.9904  0.0198 -0.1013
   68SAPC  H14B 5695   3.296   1.258   6.114 -0.4575 -2.5622  0.2608
   68SAPC  H14C 5696   3.196   1.146   6.037  2.8249  0.9684 -0.9139
   68SAPC   C15 5697   3.127   1.177   6.292 -0.0296 -0.2940 -0.0923
   68SAPC  H15A 5698   3.137   1.075   6.258  2.0637  0.1742 -1.0438
   68SAPC  H15B 5699   3.224   1.204   6.332  0.4728  0.3071 -1.6418
   68SAPC  H15C 5700   3.051   1.177   6.369  0.5172  0.4716  0.4701
   68SAPC   C11 5701   3.014   1.460   6.324  0.6819  0.1685  0.6341
   68SAPC  H11A 5702   3.044   1.564   6.348  0.7036  0.7411 -1.7050
   68SAPC  H11B 5703   3.035   1.393   6.411 -0.3995  0.3699  1.0565
   68SAPC     P 5704   2.807   1.550   6.195  0.0906 -0.0718 -0.0799
   68SAPC   O13 5705   2.875   1.550   6.068 -0.0313 -0.1183 -0.4815
   68SAPC   O14 5706   2.661   1.529   6.197  0.2302 -0.2402  0.0661
   68SAPC   O12 5707   2.873   1.440   6.291  0.8051 -0.3708  0.3184
   68SAPC   O11 5708   2.839   1.692   6.251 -0.1572  0.1537 -0.5613
   68SAPC    C1 5709   2.740   1.761   6.329 -0.1067 -0.3423 -0.0570
   68SAPC    HA 5710   2.732   1.858   6.276 -1.4548 -2.0608 -3.2949
   68SAPC    HB 5711   2.639   1.717   6.319  1.0713 -2.9340 -2.0686
   68SAPC    C2 5712   2.803   1.776   6.476 -0.4240 -0.4613 -0.0419
   68SAPC    HS 5713   2.909   1.808   6.462  0.8226 -2.9868  2.5680
   68SAPC   O21 5714   2.797   1.647   6.544 -0.1458  0.0957  0.0168
   68SAPC   C21 5715   2.894   1.633   6.635 -0.4086  0.0412 -0.5736
   68SAPC   O22 5716   2.994   1.700   6.644  0.2759  0.4918  0.1631
   68SAPC   C22 5717   2.867   1.511   6.719  0.6759 -0.1408  0.0318
   68SAPC   H2R 5718   2.776   1.533   6.780  0.6178  0.2333 -0.1868
   68SAPC   H2S 5719   2.837   1.436   6.643 -1.8529 -0.1696  0.9558
   68SAPC    C3 5720   2.721   1.882   6.549  0.3715  0.2133 -0.2727
   68SAPC    HX 5721   2.612   1.858   6.555  0.8131 -1.9051  0.1355
   68SAPC    HY 5722   2.709   1.968   6.480 -1.3599 -1.9293 -2.8884
   68SAPC   O31 5723   2.776   1.904   6.680  0.5266  0.0507  1.0863
   68SAPC   C31 5724   2.842   2.019   6.691  0.4552 -0.2950  0.0424
   68SAPC   O32 5725   2.886   2.086   6.600 -0.2850 -0.3352 -0.4125
   68SAPC   C32 5726   2.865   2.047   6.843 -1.0199  0.3609 -0.2389
   68SAPC   H2X 5727   2.771   2.029   6.899 -0.0088  0.5198  1.5859
   68SAPC   H2Y 5728   2.893   2.155   6.844 -0.5016  0.2461 -1.2048
   68SAPC   C23 5729   2.988   1.459   6.808  0.6621 -0.0397  0.2581
   68SAPC   H3R 5730   3.073   1.471   6.739  0.6842  0.8740  0.4331
   68SAPC   H3S 5731   2.960   1.359   6.847 -0.1012  0.6375  1.5259
   68SAPC   C24 5732   3.016   1.550   6.924 -0.1374 -0.4355  0.2222
   68SAPC   H4R 5733   3.009   1.656   6.891 -1.4471 -0.6095 -0.1186
   68SAPC   H4S 5734   3.120   1.534   6.960 -0.2702  2.1987  2.0473
   68SAPC   C25 5735   2.917   1.524   7.033  0.4491  0.0908 -0.5105
   68SAPC   H5R 5736   2.826   1.584   7.021 -0.2921 -0.8221  0.3775
   68SAPC   C26 5737   2.943   1.465   7.154 -0.0369 -0.0088  0.2691
   68SAPC   H6R 5738   2.858   1.449   7.223 -0.5216  1.3886  0.0259
   68SAPC   C27 5739   3.079   1.410   7.193  0.6308  0.1841  0.2342
   68SAPC   H7R 5740   3.134   1.381   7.102 -1.4381  0.7510 -1.2770
   68SAPC   H7S 5741   3.059   1.313   7.242  0.5755  0.9208  1.7445
   68SAPC   C28 5742   3.151   1.501   7.282  0.1298  0.1351 -0.3624
   68SAPC   H8R 5743   3.138   1.610   7.274 -0.3871  0.2279  1.2628
   68SAPC   C29 5744   3.233   1.459   7.376 -0.3697  0.1406 -1.7432
   68SAPC   H9R 5745   3.281   1.529   7.447 -1.6415 -0.9123  0.2608
   68SAPC  C210 5746   3.263   1.315   7.407 -0.3398  0.4944  0.2852
   68SAPC  H10R 5747   3.304   1.268   7.315 -0.0688  1.1706  0.0595
   68SAPC  H10S 5748   3.169   1.265   7.440 -0.0482  0.2385  0.7451
   68SAPC  C211 5749   3.371   1.288   7.513  0.5249 -0.8041 -0.0649
   68SAPC  H11R 5750   3.473   1.281   7.472 -0.0065 -0.0129 -1.6419
   68SAPC  C212 5751   3.352   1.301   7.646  0.3081 -0.3230 -0.7538
   68SAPC  H12R 5752   3.439   1.278   7.708  0.6271 -1.7169 -1.6739
   68SAPC  C213 5753   3.217   1.333   7.713  0.5409 -0.2328  0.0376
   68SAPC  H13R 5754   3.136   1.312   7.640  0.5665 -2.0372  0.4713
   68SAPC  H13S 5755   3.199   1.431   7.762 -2.6929 -0.8334  0.2625
   68SAPC  C214 5756   3.197   1.229   7.814  0.4687 -0.1824  0.3235
   68SAPC  H14R 5757   3.204   1.125   7.777 -0.9612  0.4508 -1.9169
   68SAPC  C215 5758   3.170   1.250   7.940  0.5361  0.1781 -0.1159
   68SAPC  H15R 5759   3.178   1.158   8.001  4.7854  0.5973  0.2526
   68SAPC  C216 5760   3.141   1.380   8.010 -0.2254  0.1183  0.1433
   68SAPC  H16R 5761   3.034   1.398   7.988 -0.8552 -1.5444  1.5519
   68SAPC  H16S 5762   3.206   1.455   7.961 -0.2218 -1.1644 -1.9575
   68SAPC  C217 5763   3.157   1.386   8.166 -0.4350 -0.2521  0.0389
   68SAPC  H17R 5764   3.066   1.337   8.210 -1.0120  1.3804  0.7357
   68SAPC  H17S 5765   3.142   1.491   8.200 -1.4526 -0.2380 -0.4007
   68SAPC  C218 5766   3.281   1.318   8.215  0.3992  0.0245 -0.8015
   68SAPC  H18R 5767   3.366   1.322   8.144 -0.6703  0.7626 -2.0964
   68SAPC  H18S 5768   3.264   1.208   8.213  0.6970 -0.0926  1.3672
   68SAPC  C219 5769   3.332   1.369   8.348  0.2777  0.0519 -0.6253
   68SAPC  H19R 5770   3.245   1.377   8.417 -0.9066  1.7003 -2.1975
   68SAPC  H19S 5771   3.365   1.475   8.344 -0.0199  0.2129  0.5832
   68SAPC  C220 5772   3.455   1.296   8.396 -0.8435 -0.1890  0.4042
   68SAPC  H20R 5773   3.535   1.342   8.334 -0.9200  1.1918  1.2856
   68SAPC  H20S 5774   3.455   1.190   8.362  1.3333  0.0442 -0.5302
   68SAPC  H20T 5775   3.476   1.313   8.504 -0.8332 -1.1220  0.5528
   68SAPC   C33 5776   2.979   1.967   6.901 -0.6658  0.2531  0.2829
   68SAPC   H3X 5777   3.067   1.963   6.834  0.2100 -0.6108  1.4360
   68SAPC   H3Y 5778   2.951   1.859   6.907  2.1194 -0.5728 -0.3245
   68SAPC   C34 5779   3.024   2.025   7.042  0.1877  0.4275  0.4366
   68SAPC   H4X 5780   2.942   2.014   7.116  1.1184  0.2364  1.4657
   68SAPC   H4Y 5781   3.037   2.135   7.030  1.0582  0.2921  0.0429
   68SAPC   C35 5782   3.153   1.962   7.096 -0.1156  0.0638  0.3730
   68SAPC   H5X 5783   3.241   2.001   7.039  0.8383 -2.3251  0.0749
   68SAPC   H5Y 5784   3.159   1.853   7.074  1.1765  0.2060 -0.1139
   68SAPC   C36 5785   3.172   1.990   7.244  0.1867 -0.4557  0.2672
   68SAPC   H6X 5786   3.087   1.941   7.298 -0.6513  1.2873  0.5991
   68SAPC   H6Y 5787   3.158   2.100   7.249  1.2165 -0.3584  1.4432
   68SAPC   C37 5788   3.303   1.935   7.306  0.3706 -0.2870 -0.1058
   68SAPC   H7X 5789   3.387   1.969   7.241 -0.4035 -0.2795 -1.1329
   68SAPC   H7Y 5790   3.288   1.825   7.301  1.4943 -0.4284 -0.9108
   68SAPC   C38 5791   3.332   1.975   7.450 -0.9893  0.4517  0.1169
   68SAPC   H8X 5792   3.326   2.086   7.452 -0.1385  0.6848 -3.6016
   68SAPC   H8Y 5793   3.438   1.947   7.470 -1.0149  1.2564  1.5561
   68SAPC   C39 5794   3.240   1.911   7.550 -0.2696  0.2799  0.6306
   68SAPC   H9X 5795   3.229   1.804   7.523  0.9739  0.5706 -1.1910
   68SAPC   H9Y 5796   3.139   1.955   7.534  0.6981  2.3584 -0.2167
   68SAPC  C310 5797   3.281   1.925   7.695 -0.2897  0.5511  0.4097
   68SAPC  H10X 5798   3.271   2.029   7.733  2.8440  0.3021  2.2713
   68SAPC  H10Y 5799   3.391   1.917   7.701 -0.0997  2.8545  0.8188
   68SAPC  C311 5800   3.225   1.815   7.784  0.4961 -0.7117 -0.0680
   68SAPC  H11X 5801   3.222   1.715   7.736 -3.6803 -1.8378  2.0679
   68SAPC  H11Y 5802   3.117   1.840   7.783 -0.1619 -3.0769  1.7914
   68SAPC  C312 5803   3.269   1.811   7.933 -0.9012  0.5236  0.0581
   68SAPC  H12X 5804   3.328   1.903   7.952  0.6244 -0.6087  1.0499
   68SAPC  H12Y 5805   3.335   1.723   7.947 -0.2321  0.6517 -2.0108
   68SAPC  C313 5806   3.154   1.790   8.032  0.4052 -0.4880 -0.6412
   68SAPC  H13X 5807   3.110   1.690   8.009 -1.4252  0.5896 -2.0892
   68SAPC  H13Y 5808   3.082   1.868   8.000  1.2206  0.5222 -0.0507
   68SAPC  C314 5809   3.191   1.799   8.183 -0.1547  0.2223  0.3494
   68SAPC  H14X 5810   3.235   1.897   8.209  0.9499 -0.4026  0.9150
   68SAPC  H14Y 5811   3.271   1.726   8.210  1.3948  2.6950  2.9932
   68SAPC  C315 5812   3.074   1.781   8.283  0.4864  0.3318  0.4975
   68SAPC  H15X 5813   3.113   1.741   8.379 -2.3642 -1.9846  0.8347
   68SAPC  H15Y 5814   3.003   1.702   8.250  1.4843 -0.9673  1.3725
   68SAPC  C316 5815   2.990   1.915   8.301  0.0196  0.0958  0.5708
   68SAPC  H16X 5816   2.946   1.940   8.202 -0.6355  2.6009  1.4346
   68SAPC  H16Y 5817   3.068   1.988   8.329  0.7653 -1.0783  1.6797
   68SAPC  C317 5818   2.884   1.920   8.411 -0.5846 -0.0396  0.2998
   68SAPC  H17X 5819   2.794   1.864   8.380 -0.9164  0.8821 -0.4462
   68SAPC  H17Y 5820   2.864   2.025   8.439 -2.9057 -0.0459 -1.0671
   68SAPC  C318 5821   2.916   1.860   8.549 -0.5887 -0.2254  0.1162
   68SAPC  H18X 5822   2.921   1.750   8.539 -2.7611 -0.2410 -1.5459
   68SAPC  H18Y 5823   2.848   1.883   8.634  1.2591  0.7559  1.4105
   68SAPC  H18Z 5824   3.017   1.897   8.579 -0.5816 -0.1744  0.0292
   69SLPC     N 5825   0.368   0.387  11.291  0.0603 -0.4584  0.5637
   69SLPC   C13 5826   0.347   0.344  11.143  0.4244 -0.1680 -0.6141
   69SLPC  H13A 5827   0.350   0.435  11.085  4.6862 -0.4326 -1.1327
   69SLPC  H13B 5828   0.435   0.293  11.106  0.9830  0.4226 -0.1201
   69SLPC  H13C 5829   0.264   0.277  11.129  0.4137  0.0059 -1.4644
   69SLPC   C14 5830   0.392   0.277  11.387 -0.1406  0.2714 -0.3681
   69SLPC  H14A 5831   0.306   0.212  11.398 -1.0072  1.2645 -1.0063
   69SLPC  H14B 5832   0.454   0.204  11.339 -2.8047 -1.9161 -0.7743
   69SLPC  H14C 5833   0.422   0.309  11.486  0.3184 -1.1138 -0.0305
   69SLPC   C15 5834   0.244   0.455  11.317 -0.0679 -0.1296  0.1000
   69SLPC  H15A 5835   0.232   0.501  11.414 -1.5696 -1.4021  0.5577
   69SLPC  H15B 5836   0.225   0.540  11.253 -2.4734  0.7879  1.8716
   69SLPC  H15C 5837   0.152   0.399  11.305 -1.8496  2.3820  1.2870
   69SLPC   C12 5838   0.483   0.485  11.297  0.4581  0.6318  0.1676
   69SLPC  H12A 5839   0.578   0.433  11.293  0.7828  1.2478 -0.3059
   69SLPC  H12B 5840   0.491   0.537  11.391  3.5626  0.8314 -0.0750
   69SLPC   C11 5841   0.489   0.592  11.176 -1.2105  0.1115 -0.2478
   69SLPC  H11A 5842   0.527   0.526  11.095 -0.8890  1.3149 -1.1195
   69SLPC  H11B 5843   0.572   0.666  11.185 -0.3658 -0.7522 -0.7682
   69SLPC     P 5844   0.317   0.699  11.002  0.1686  0.1914  0.3704
   69SLPC   O13 5845   0.295   0.565  10.947  0.3145 -0.0656  0.0979
   69SLPC   O14 5846   0.203   0.782  11.016  0.0594 -0.2886 -0.0558
   69SLPC   O12 5847   0.377   0.673  11.148 -0.1230  0.3198  0.2569
   69SLPC   O11 5848   0.433   0.767  10.925 -0.3005 -0.4357  0.6585
   69SLPC    C1 5849   0.402   0.847  10.810 -0.6809 -0.2832  0.1006
   69SLPC    HA 5850   0.327   0.927  10.831 -0.9922 -0.2704 -1.0106
   69SLPC    HB 5851   0.484   0.920  10.794 -0.4193 -0.5336  0.2940
   69SLPC    C2 5852   0.375   0.771  10.686  0.1325  0.2075  0.3032
   69SLPC    HS 5853   0.292   0.700  10.703  0.1831  0.1160  0.1708
   69SLPC   O21 5854   0.486   0.693  10.656 -0.1263 -0.2164  0.4683
   69SLPC   C21 5855   0.603   0.755  10.614 -0.3682 -0.0727  0.0114
   69SLPC   O22 5856   0.620   0.877  10.614  0.7044  0.3691 -0.2495
   69SLPC   C22 5857   0.703   0.646  10.562 -0.1528 -0.3200  0.0606
   69SLPC   H2R 5858   0.797   0.699  10.534  1.1051 -0.6358  3.2707
   69SLPC   H2S 5859   0.733   0.589  10.652 -2.9171 -0.6999  0.8323
   69SLPC    C3 5860   0.324   0.856  10.568 -0.6236  0.4792 -0.2808
   69SLPC    HX 5861   0.401   0.932  10.541  1.0395 -1.2982 -0.6881
   69SLPC    HY 5862   0.226   0.898  10.602 -0.4117  0.8664 -0.1394
   69SLPC   O31 5863   0.314   0.773  10.451 -0.0599  0.5339  0.3503
   69SLPC   C31 5864   0.228   0.814  10.358 -0.0279 -0.0259 -0.3554
   69SLPC   O32 5865   0.153   0.910  10.362 -0.2629 -0.2754 -0.3499
   69SLPC   C32 5866   0.250   0.720  10.235 -0.3559  0.0360 -0.4942
   69SLPC   H2X 5867   0.280   0.624  10.282  1.2621  0.8107  0.1365
   69SLPC   H2Y 5868   0.323   0.763  10.164  0.9975  0.6828  1.2194
   69SLPC   C23 5869   0.651   0.549  10.452 -0.0162 -0.8720 -0.1995
   69SLPC   H3R 5870   0.553   0.503  10.480 -0.2767 -0.2640 -0.1018
   69SLPC   H3S 5871   0.721   0.463  10.450 -0.3690 -1.1758  0.4127
   69SLPC   C24 5872   0.652   0.621  10.311  0.1121  0.5399  0.4678
   69SLPC   H4R 5873   0.751   0.667  10.291  0.5126 -0.0178  1.1605
   69SLPC   H4S 5874   0.581   0.704  10.333  1.5912  1.3267  2.5310
   69SLPC   C25 5875   0.598   0.532  10.198 -0.6153  0.2861  0.3814
   69SLPC   H5R 5876   0.494   0.495  10.209 -0.6394 -0.9525 -2.8969
   69SLPC   H5S 5877   0.660   0.440  10.202  0.4380  0.8966 -0.9351
   69SLPC   C26 5878   0.612   0.595  10.063 -0.6464  0.2167 -0.4027
   69SLPC   H6R 5879   0.712   0.644  10.057 -1.2617  1.3905 -1.7364
   69SLPC   H6S 5880   0.535   0.675  10.057  0.7420  1.5371 -1.4133
   69SLPC   C27 5881   0.592   0.503   9.947 -0.0338 -0.5302  0.5335
   69SLPC   H7R 5882   0.510   0.438   9.986 -0.8036  1.1799  1.8746
   69SLPC   H7S 5883   0.684   0.440   9.953 -0.3160 -1.1172 -0.7493
   69SLPC   C28 5884   0.562   0.575   9.809 -0.1046  0.2558  0.7100
   69SLPC   H8R 5885   0.465   0.627   9.821 -0.0581  0.4532  0.2467
   69SLPC   H8S 5886   0.549   0.495   9.732 -0.9910 -1.1449  2.2501
   69SLPC   C29 5887   0.672   0.662   9.748 -0.2391  0.1743  0.6646
   69SLPC   H9R 5888   0.761   0.611   9.709 -0.9457  0.4522 -1.3926
   69SLPC  C210 5889   0.672   0.795   9.761  1.6395 -0.0327  0.6530
   69SLPC  H10R 5890   0.750   0.853   9.710  1.2127  1.2513  1.3978
   69SLPC  C211 5891   0.565   0.890   9.826 -0.1514  0.7839 -0.3684
   69SLPC  H11R 5892   0.578   0.882   9.936  0.1482  3.5168 -0.1236
   69SLPC  H11S 5893   0.462   0.859   9.796  0.1385 -1.0340  0.4142
   69SLPC  C212 5894   0.582   1.034   9.785  0.4042 -0.1016  0.2773
   69SLPC  H12R 5895   0.584   1.104   9.870  0.9010  1.4390 -0.9676
   69SLPC  C213 5896   0.602   1.074   9.658  0.7612  0.0889 -0.6993
   69SLPC  H13R 5897   0.617   1.182   9.643 -0.6279 -0.0423 -3.6545
   69SLPC  C214 5898   0.592   0.993   9.536  0.4517 -0.1285 -0.4749
   69SLPC  H14R 5899   0.510   0.919   9.547  1.5502 -1.0971  2.2668
   69SLPC  H14S 5900   0.679   0.927   9.515 -0.7644 -2.1331  0.5248
   69SLPC  C215 5901   0.550   1.079   9.414 -0.2155 -0.1352  0.4141
   69SLPC  H15R 5902   0.633   1.146   9.383 -1.1033  1.4274  1.2984
   69SLPC  H15S 5903   0.478   1.162   9.432  0.1465  0.4733 -0.8281
   69SLPC  C216 5904   0.498   0.995   9.301 -0.0292 -0.1852 -0.5323
   69SLPC  H16R 5905   0.413   0.927   9.321  0.2048 -0.9326 -1.9322
   69SLPC  H16S 5906   0.585   0.926   9.292 -1.6761 -2.8814  2.3509
   69SLPC  C217 5907   0.464   1.063   9.171  0.0812 -0.0933  0.2500
   69SLPC  H17R 5908   0.550   1.128   9.144  0.3457 -0.9564 -1.0774
   69SLPC  H17S 5909   0.377   1.131   9.186  1.1477  1.6189 -0.9658
   69SLPC  C218 5910   0.435   0.970   9.050 -0.6074  0.5071  0.2280
   69SLPC  H18R 5911   0.408   1.025   8.957 -1.5167 -1.4414 -0.7190
   69SLPC  H18S 5912   0.360   0.889   9.062  2.0775 -2.6622 -2.3574
   69SLPC  H18T 5913   0.532   0.921   9.030 -0.6089  0.4935  0.2558
   69SLPC   C33 5914   0.121   0.696  10.145 -0.1378  0.0692 -0.5350
   69SLPC   H3X 5915   0.042   0.770  10.174 -0.5438 -0.9255  1.0282
   69SLPC   H3Y 5916   0.085   0.596  10.176 -0.4309  0.2953 -0.1289
   69SLPC   C34 5917   0.168   0.692  10.004 -0.3975 -0.2219  0.6949
   69SLPC   H4X 5918   0.263   0.634   9.999  0.0742  0.5000  1.0438
   69SLPC   H4Y 5919   0.202   0.794   9.976 -2.3548  1.3397  3.4939
   69SLPC   C35 5920   0.046   0.650   9.915  0.1963  0.3169 -0.6619
   69SLPC   H5X 5921  -0.042   0.715   9.936  0.6859  0.6110  0.5536
   69SLPC   H5Y 5922   0.016   0.551   9.957 -1.3206  0.3316 -1.6396
   69SLPC   C36 5923   0.089   0.657   9.768 -0.0820  0.3254 -0.2704
   69SLPC   H6X 5924   0.181   0.603   9.737 -1.0820  0.1108 -3.2768
   69SLPC   H6Y 5925   0.121   0.763   9.753  1.0931  0.2829  1.6413
   69SLPC   C37 5926  -0.021   0.631   9.668  0.2108  0.2186 -0.2821
   69SLPC   H7X 5927   0.029   0.642   9.569  3.9707 -0.7738  1.3419
   69SLPC   H7Y 5928  -0.114   0.690   9.685  2.1746  3.1052  1.4411
   69SLPC   C38 5929  -0.068   0.484   9.674 -0.1703  0.0167 -0.2431
   69SLPC   H8X 5930  -0.108   0.465   9.776 -1.2021  0.8240 -0.4835
   69SLPC   H8Y 5931   0.031   0.435   9.660  0.4830  0.8635  1.2150
   69SLPC   C39 5932  -0.173   0.441   9.575  0.2021 -0.7740  0.1766
   69SLPC   H9X 5933  -0.138   0.476   9.476  1.4007  0.8226  1.1186
   69SLPC   H9Y 5934  -0.272   0.490   9.590 -0.1926 -1.1010 -1.1733
   69SLPC  C310 5935  -0.179   0.289   9.567  0.0995  0.3035  0.0368
   69SLPC  H10X 5936  -0.184   0.238   9.666 -0.3445  1.2635  0.5172
   69SLPC  H10Y 5937  -0.076   0.271   9.528  1.2793  2.5269  1.8765
   69SLPC  C311 5938  -0.283   0.237   9.469  0.4325 -0.9484  0.4167
   69SLPC  H11X 5939  -0.281   0.312   9.388 -1.3445  2.2150  3.0393
   69SLPC  H11Y 5940  -0.385   0.257   9.509  1.3033 -0.0158  2.3134
   69SLPC  C312 5941  -0.282   0.092   9.430 -0.1880 -0.3791  0.5668
   69SLPC  H12X 5942  -0.376   0.076   9.374 -0.0005  1.6107 -0.4352
   69SLPC  H12Y 5943  -0.285   0.031   9.522  2.3514 -2.2170 -0.4425
   69SLPC  C313 5944  -0.168   0.049   9.334  0.0329 -0.3006 -0.5867
   69SLPC  H13X 5945  -0.167  -0.062   9.334  0.5664 -0.3051  0.5150
   69SLPC  H13Y 5946  -0.069   0.084   9.371  1.0912 -2.4498 -1.2176
   69SLPC  C314 5947  -0.180   0.093   9.184 -0.4711 -0.2630  0.1099
   69SLPC  H14X 5948  -0.161   0.203   9.185 -2.7959  0.2126  2.2403
   69SLPC  H14Y 5949  -0.284   0.072   9.152 -1.0938  0.1996  1.7265
   69SLPC  C315 5950  -0.080   0.022   9.094 -0.0963  0.6870  0.0269
   69SLPC  H15X 5951  -0.098  -0.086   9.115  2.3438  0.0777 -0.5971
   69SLPC  H15Y 5952   0.026   0.039   9.123  0.1614 -1.0875  0.2471
   69SLPC  C316 5953  -0.096   0.045   8.938 -0.2937  0.2713  0.1519
   69SLPC  H16X 5954  -0.087   0.151   8.905  0.8720 -0.3125 -1.5682
   69SLPC  H16Y 5955  -0.201   0.028   8.907 -1.2310  2.6843  1.6719
   69SLPC  C317 5956  -0.008  -0.056   8.858  0.2927 -0.0429 -1.0406
   69SLPC  H17X 5957   0.025  -0.149   8.908  0.7583 -0.0472 -1.3552
   69SLPC  H17Y 5958   0.088  -0.002   8.841  1.7024 -1.3833  1.9927
   69SLPC  C318 5959  -0.076  -0.088   8.723 -0.8769 -0.2245  0.2088
   69SLPC  H18X 5960  -0.176  -0.135   8.728 -0.9368 -0.1793 -0.4157
   69SLPC  H18Y 5961  -0.009  -0.159   8.670  1.3776  0.6799  1.7014
   69SLPC  H18Z 5962  -0.077  -0.002   8.653 -0.8562  0.8360  1.4823
   70SLPC     N 5963   5.504   3.967  11.417  0.0178 -0.2794 -1.1134
   70SLPC   C13 5964   5.423   3.920  11.529  0.4141  0.4949 -0.4581
   70SLPC  H13A 5965   5.406   3.813  11.528 -0.3039  0.5841 -2.2678
   70SLPC  H13B 5966   5.449   3.957  11.627 -1.5635  2.1629 -0.5025
   70SLPC  H13C 5967   5.324   3.961  11.523  0.5636  0.9169 -0.0530
   70SLPC   C14 5968   5.638   3.900  11.414 -0.2329  0.3001 -0.3124
   70SLPC  H14A 5969   5.704   3.925  11.332 -0.2366  0.8479 -0.1554
   70SLPC  H14B 5970   5.698   3.926  11.500 -0.2839 -0.2490 -0.1096
   70SLPC  H14C 5971   5.630   3.793  11.424 -0.6035  0.4398  0.9463
   70SLPC   C15 5972   5.520   4.116  11.417 -0.7100 -0.1747  0.5034
   70SLPC  H15A 5973   5.561   4.154  11.324 -0.0913 -2.7186 -0.3460
   70SLPC  H15B 5974   5.425   4.167  11.426 -1.2085 -1.1233  0.7152
   70SLPC  H15C 5975   5.585   4.143  11.498 -0.8657  2.1990 -0.1009
   70SLPC   C12 5976   5.446   3.932  11.279 -0.1214 -0.4307  0.3310
   70SLPC  H12A 5977   5.345   3.970  11.270  0.6252  1.3611 -1.2682
   70SLPC  H12B 5978   5.432   3.825  11.280  3.4797 -1.0173  1.0689
   70SLPC   C11 5979   5.508   3.990  11.155 -0.6244  0.2131 -0.3541
   70SLPC  H11A 5980   5.517   3.916  11.072 -0.1186  0.0349 -0.1435
   70SLPC  H11B 5981   5.617   4.009  11.167 -0.8949  1.7006  0.0002
   70SLPC     P 5982   5.331   4.117  11.016  0.2011  0.1664  0.0974
   70SLPC   O13 5983   5.232   4.038  11.083 -0.0095  0.0605 -0.1516
   70SLPC   O14 5984   5.297   4.253  10.972 -0.5562 -0.5383 -0.2658
   70SLPC   O12 5985   5.451   4.115  11.116 -0.3098  0.3681  1.1283
   70SLPC   O11 5986   5.368   4.038  10.886  0.7434  0.0859 -0.4561
   70SLPC    C1 5987   5.499   4.055  10.835  0.3778 -0.0670  0.2709
   70SLPC    HA 5988   5.581   4.098  10.895  1.1757 -0.4933 -0.4811
   70SLPC    HB 5989   5.530   3.962  10.782 -2.5624 -1.1904  0.3199
   70SLPC    C2 5990   5.488   4.159  10.713  0.2951 -0.4141 -1.0487
   70SLPC    HS 5991   5.441   4.252  10.750 -1.1501  0.0286 -3.7196
   70SLPC   O21 5992   5.415   4.108  10.604  0.2471 -0.1697  0.1074
   70SLPC   C21 5993   5.318   4.185  10.558  0.5201 -0.3041 -0.4667
   70SLPC   O22 5994   5.282   4.294  10.604  0.2248  0.3730  0.3570
   70SLPC   C22 5995   5.259   4.112  10.433  0.2342 -0.1430 -0.0481
   70SLPC   H2R 5996   5.335   4.039  10.396  2.0937 -0.4605  3.8706
   70SLPC   H2S 5997   5.173   4.056  10.475  0.2572  0.0728  0.2881
   70SLPC    C3 5998   5.630   4.196  10.665  0.7745  0.6031 -0.0258
   70SLPC    HX 5999   5.697   4.108  10.661 -0.7641 -0.5760 -2.7702
   70SLPC    HY 6000   5.685   4.256  10.741  0.3812 -0.1591  0.8762
   70SLPC   O31 6001   5.631   4.265  10.543 -0.4320  0.9115 -0.1828
   70SLPC   C31 6002   5.593   4.389  10.541 -0.2055 -0.2106  0.3104
   70SLPC   O32 6003   5.568   4.457  10.642  0.1693  1.0010  0.3574
   70SLPC   C32 6004   5.612   4.437  10.398  0.4393 -0.5245 -0.1964
   70SLPC   H2X 6005   5.615   4.350  10.330 -0.4495 -0.2724 -0.5879
   70SLPC   H2Y 6006   5.707   4.494  10.394  0.1308 -0.0668 -1.6920
   70SLPC   C23 6007   5.217   4.210  10.321  0.1251  0.3359  0.3176
   70SLPC   H3R 6008   5.298   4.274  10.279 -0.9753  0.3872 -1.8894
   70SLPC   H3S 6009   5.142   4.280  10.364 -1.2446 -0.7835 -0.1768
   70SLPC   C24 6010   5.157   4.143  10.196 -0.1986  0.5972  0.2330
   70SLPC   H4R 6011   5.076   4.081  10.240  1.2045 -2.5477 -1.2716
   70SLPC   H4S 6012   5.238   4.076  10.160 -0.5047 -0.0930  0.7950
   70SLPC   C25 6013   5.117   4.241  10.087  0.1601 -0.1049 -0.5439
   70SLPC   H5R 6014   5.184   4.327  10.065  0.3782 -0.7304 -2.5168
   70SLPC   H5S 6015   5.018   4.285  10.112 -0.2197 -0.3507 -1.5601
   70SLPC   C26 6016   5.091   4.173   9.952  0.7638 -0.9702  0.1991
   70SLPC   H6R 6017   5.179   4.134   9.897  1.6868  0.1286  0.8446
   70SLPC   H6S 6018   5.049   4.258   9.894 -1.1811 -1.6950  0.4674
   70SLPC   C27 6019   4.994   4.054   9.978 -0.6303  0.7809  0.0510
   70SLPC   H7R 6020   4.910   4.084  10.043  0.3892 -2.8863  3.4135
   70SLPC   H7S 6021   5.054   3.974  10.026  1.6519  1.6403 -1.1470
   70SLPC   C28 6022   4.923   4.005   9.849  0.7007  0.2355 -0.1975
   70SLPC   H8R 6023   4.878   4.095   9.801 -1.0019 -1.0891 -1.1985
   70SLPC   H8S 6024   4.840   3.935   9.870  2.2133 -1.8967 -1.0571
   70SLPC   C29 6025   5.031   3.935   9.773  0.1910 -0.1069  0.3430
   70SLPC   H9R 6026   5.096   3.867   9.829  1.1747 -1.6364 -2.4422
   70SLPC  C210 6027   5.044   3.944   9.643 -0.5252 -0.2898 -0.0933
   70SLPC  H10R 6028   5.127   3.897   9.588  2.3275  0.1093  3.4539
   70SLPC  C211 6029   4.952   4.033   9.563 -0.3949  0.6376 -0.0057
   70SLPC  H11R 6030   4.957   4.137   9.602 -1.3728  0.7760 -0.2106
   70SLPC  H11S 6031   4.848   4.001   9.585  0.7402 -1.9941  2.0615
   70SLPC  C212 6032   4.982   4.028   9.423 -0.0673  0.1144  0.0547
   70SLPC  H12R 6033   5.077   4.072   9.389  0.2081  1.3561  2.2151
   70SLPC  C213 6034   4.906   3.986   9.323 -0.4619 -0.6516  0.1334
   70SLPC  H13R 6035   4.947   3.982   9.221  0.6679 -1.0882  0.5877
   70SLPC  C214 6036   4.764   3.940   9.345 -0.1059  0.9432  0.0735
   70SLPC  H14R 6037   4.712   3.944   9.247  0.2512  1.9124 -0.0889
   70SLPC  H14S 6038   4.707   4.017   9.400 -1.3024 -0.2977  0.6382
   70SLPC  C215 6039   4.727   3.806   9.403 -0.4440  0.4397  0.8186
   70SLPC  H15R 6040   4.618   3.787   9.414 -0.4181 -0.4847 -0.3369
   70SLPC  H15S 6041   4.776   3.793   9.503  0.9405 -0.8976  0.0203
   70SLPC  C216 6042   4.778   3.696   9.311 -0.4898 -0.6865  0.3472
   70SLPC  H16R 6043   4.745   3.602   9.359 -3.9514  0.4644  0.4780
   70SLPC  H16S 6044   4.889   3.704   9.310 -0.5031 -0.2763  1.1999
   70SLPC  C217 6045   4.725   3.687   9.168  0.4361  0.4470 -0.8982
   70SLPC  H17R 6046   4.775   3.758   9.098 -0.5699  1.5312 -0.5593
   70SLPC  H17S 6047   4.616   3.705   9.156  0.1702  0.4245  1.0728
   70SLPC  C218 6048   4.739   3.545   9.117  0.3854  0.1001  0.1102
   70SLPC  H18R 6049   4.758   3.550   9.008  0.9014 -1.5978  0.0986
   70SLPC  H18S 6050   4.649   3.486   9.143 -0.4352  1.5715  0.7234
   70SLPC  H18T 6051   4.828   3.496   9.162  0.8263 -0.9717 -1.8438
   70SLPC   C33 6052   5.491   4.528  10.349 -0.4117  1.0292 -0.4024
   70SLPC   H3X 6053   5.500   4.619  10.413 -0.2390  0.3871  0.5036
   70SLPC   H3Y 6054   5.393   4.479  10.367 -0.2850  1.4251  1.5999
   70SLPC   C34 6055   5.492   4.562  10.205 -0.3157 -0.7618  0.1276
   70SLPC   H4X 6056   5.519   4.474  10.142  0.7526 -1.2791  1.2708
   70SLPC   H4Y 6057   5.567   4.640  10.183 -0.2373 -0.8260  0.1645
   70SLPC   C35 6058   5.360   4.616  10.160  0.0392 -0.1719  0.9726
   70SLPC   H5X 6059   5.316   4.689  10.231 -1.0741 -1.0447  1.2056
   70SLPC   H5Y 6060   5.282   4.537  10.158 -0.1857  0.0591 -0.8024
   70SLPC   C36 6061   5.348   4.662  10.018  0.3613 -0.0394  0.8224
   70SLPC   H6X 6062   5.430   4.732   9.991 -0.1032  0.2186  0.0509
   70SLPC   H6Y 6063   5.253   4.714   9.994  1.0368  0.5983 -0.6487
   70SLPC   C37 6064   5.369   4.532   9.924  0.8061  0.8193  0.1377
   70SLPC   H7X 6065   5.304   4.449   9.960  2.0083 -1.4833 -2.5827
   70SLPC   H7Y 6066   5.474   4.498   9.940  1.2688  2.0646 -0.1657
   70SLPC   C38 6067   5.351   4.548   9.776 -0.5534  0.1274  0.0966
   70SLPC   H8X 6068   5.268   4.615   9.744  0.4876  1.5319  0.2054
   70SLPC   H8Y 6069   5.334   4.452   9.723 -1.3830  0.6767 -0.6765
   70SLPC   C39 6070   5.469   4.630   9.730  1.1904  0.6001  0.2626
   70SLPC   H9X 6071   5.561   4.570   9.752  1.0927  0.3296 -0.0473
   70SLPC   H9Y 6072   5.456   4.729   9.778 -3.3354  0.1504  0.3881
   70SLPC  C310 6073   5.477   4.663   9.578  0.3644  0.1026  0.3102
   70SLPC  H10X 6074   5.537   4.756   9.573  0.7695 -0.1560  0.3784
   70SLPC  H10Y 6075   5.382   4.693   9.529  0.8274 -0.4552 -0.9677
   70SLPC  C311 6076   5.537   4.560   9.490 -0.0469 -0.0687  0.0546
   70SLPC  H11X 6077   5.491   4.459   9.500 -2.3503  0.9032 -0.0687
   70SLPC  H11Y 6078   5.645   4.559   9.512  0.0327  0.9552 -0.2330
   70SLPC  C312 6079   5.521   4.580   9.341  0.3863 -0.5694  1.2604
   70SLPC  H12X 6080   5.549   4.686   9.319 -0.4496 -0.0730  2.4887
   70SLPC  H12Y 6081   5.412   4.565   9.329  0.6110 -1.8434  0.7271
   70SLPC  C313 6082   5.595   4.474   9.256  0.7043 -0.3677 -0.3563
   70SLPC  H13X 6083   5.570   4.374   9.299  1.0319  0.0035  0.7137
   70SLPC  H13Y 6084   5.704   4.489   9.265  0.8022 -1.6414  1.0514
   70SLPC  C314 6085   5.547   4.462   9.109  0.6857 -0.1610 -0.3144
   70SLPC  H14X 6086   5.437   4.446   9.114  0.6764  0.0769  0.2970
   70SLPC  H14Y 6087   5.583   4.374   9.053 -3.8094 -1.0845 -2.1683
   70SLPC  C315 6088   5.583   4.587   9.027 -0.4280  0.1167 -0.0079
   70SLPC  H15X 6089   5.693   4.599   9.042 -0.0592 -2.5397  0.0645
   70SLPC  H15Y 6090   5.525   4.675   9.058 -2.4643 -1.2437  0.2325
   70SLPC  C316 6091   5.557   4.582   8.875 -0.1148 -0.5361 -0.6739
   70SLPC  H16X 6092   5.461   4.622   8.836 -0.0906 -0.6686 -0.8748
   70SLPC  H16Y 6093   5.572   4.477   8.840  0.1044 -0.6302 -0.2980
   70SLPC  C317 6094   5.648   4.682   8.798  0.3241  0.8117  0.4163
   70SLPC  H17X 6095   5.753   4.664   8.830  0.3239  1.4024  0.7828
   70SLPC  H17Y 6096   5.617   4.777   8.848 -0.4443 -0.2224  1.9885
   70SLPC  C318 6097   5.642   4.681   8.648  0.3043  0.8043 -0.0659
   70SLPC  H18X 6098   5.670   4.579   8.616 -0.0980  0.3021  1.1321
   70SLPC  H18Y 6099   5.708   4.759   8.604  1.9658  0.4087  1.5885
   70SLPC  H18Z 6100   5.539   4.698   8.609  0.3646 -2.6869 -2.1445
   71SLPC     N 6101   0.088   3.571  10.918 -0.2363 -0.3516 -0.3847
   71SLPC   C13 6102   0.019   3.683  10.986  0.4664 -0.0825  0.0353
   71SLPC  H13A 6103  -0.081   3.699  10.950 -0.3113 -0.8559  1.7077
   71SLPC  H13B 6104   0.010   3.654  11.090 -0.3149  2.4795  0.7725
   71SLPC  H13C 6105   0.079   3.773  10.983  0.0406  0.1969 -2.9916
   71SLPC   C14 6106   0.021   3.451  10.984  0.0122  0.8087 -0.4867
   71SLPC  H14A 6107  -0.086   3.461  10.971  0.0226  1.5877 -0.0076
   71SLPC  H14B 6108   0.045   3.355  10.942  0.0956  0.9175 -0.6883
   71SLPC  H14C 6109   0.040   3.452  11.090 -1.3905  0.1723 -0.2007
   71SLPC   C15 6110   0.231   3.561  10.961 -0.0667 -0.1215 -0.0815
   71SLPC  H15A 6111   0.290   3.644  10.927  2.2494 -2.9997 -3.9060
   71SLPC  H15B 6112   0.235   3.560  11.069  1.8193  0.0986 -0.1157
   71SLPC  H15C 6113   0.282   3.470  10.932  2.6179  0.5608  2.0436
   71SLPC   C12 6114   0.068   3.563  10.767 -0.0002 -0.0341 -0.2453
   71SLPC  H12A 6115   0.119   3.478  10.724  1.4596  0.8354 -0.3105
   71SLPC  H12B 6116   0.111   3.650  10.719  0.4323  0.2748  0.6614
   71SLPC   C11 6117  -0.081   3.564  10.722 -0.2556 -1.1419  0.5795
   71SLPC  H11A 6118  -0.134   3.489  10.784 -1.4319 -0.5764  0.2682
   71SLPC  H11B 6119  -0.072   3.543  10.613  1.9620  0.8795  0.2830
   71SLPC     P 6120  -0.305   3.686  10.746 -0.1817 -0.1567  0.4652
   71SLPC   O13 6121  -0.351   3.624  10.873  0.3219 -0.1911  0.2927
   71SLPC   O14 6122  -0.355   3.826  10.717  0.2379 -0.3155  0.0825
   71SLPC   O12 6123  -0.148   3.692  10.744 -0.0797 -0.0819  0.5737
   71SLPC   O11 6124  -0.343   3.598  10.626  0.0593  0.0709 -0.7435
   71SLPC    C1 6125  -0.307   3.634  10.491 -0.2960 -0.4831 -0.4129
   71SLPC    HA 6126  -0.249   3.729  10.484  0.5106 -0.8032  1.2297
   71SLPC    HB 6127  -0.247   3.550  10.451  1.4531  0.3762  0.2988
   71SLPC    C2 6128  -0.435   3.635  10.408 -0.9274 -0.1287 -0.0735
   71SLPC    HS 6129  -0.492   3.544  10.435  0.6835 -0.8377  1.1103
   71SLPC   O21 6130  -0.394   3.636  10.263  0.5974  0.0172 -0.4688
   71SLPC   C21 6131  -0.437   3.537  10.188  0.2757 -0.0394 -0.7012
   71SLPC   O22 6132  -0.486   3.434  10.229  0.0294 -0.2646  0.4722
   71SLPC   C22 6133  -0.428   3.583  10.039  0.1256  0.0829 -0.1469
   71SLPC   H2R 6134  -0.533   3.615  10.021 -0.3725 -1.2614  0.2060
   71SLPC   H2S 6135  -0.357   3.667  10.028  0.3532  0.0402  0.9125
   71SLPC    C3 6136  -0.520   3.755  10.445  0.3677 -0.9891 -0.5001
   71SLPC    HX 6137  -0.468   3.848  10.477  0.1058 -0.8064 -0.6044
   71SLPC    HY 6138  -0.584   3.723  10.530 -1.7245  0.3547 -1.5039
   71SLPC   O31 6139  -0.609   3.793  10.338  0.4863  0.3995 -0.3097
   71SLPC   C31 6140  -0.664   3.910  10.347 -0.0965 -0.1980  0.4881
   71SLPC   O32 6141  -0.645   3.997  10.428 -0.4134 -1.0241 -1.2863
   71SLPC   C32 6142  -0.757   3.932  10.228 -0.0790  0.3560 -0.1194
   71SLPC   H2X 6143  -0.826   4.017  10.249  1.1678  0.6318  3.3812
   71SLPC   H2Y 6144  -0.825   3.844  10.224  0.9653 -0.4407 -1.4093
   71SLPC   C23 6145  -0.401   3.462   9.945 -0.3129 -0.0746 -0.0183
   71SLPC   H3R 6146  -0.355   3.373   9.993  1.7066  0.3756 -1.0128
   71SLPC   H3S 6147  -0.330   3.499   9.868  2.9922  0.2197  2.9150
   71SLPC   C24 6148  -0.525   3.415   9.865  0.8073  0.0389 -0.5029
   71SLPC   H4R 6149  -0.617   3.407   9.926  1.2219  0.1253  0.1426
   71SLPC   H4S 6150  -0.504   3.311   9.833 -0.8325 -0.4512 -0.0370
   71SLPC   C25 6151  -0.567   3.516   9.758  0.6317  0.5290  0.3832
   71SLPC   H5R 6152  -0.596   3.612   9.806  0.6171 -0.0836  1.6292
   71SLPC   H5S 6153  -0.656   3.483   9.700  1.1237 -0.1909  0.0251
   71SLPC   C26 6154  -0.458   3.547   9.655  0.7962 -0.2007 -0.1617
   71SLPC   H6R 6155  -0.411   3.449   9.631 -0.2541 -1.1239  1.3977
   71SLPC   H6S 6156  -0.381   3.607   9.709 -1.1721  0.9797  1.4518
   71SLPC   C27 6157  -0.492   3.620   9.523 -0.2022  0.5116 -0.2639
   71SLPC   H7R 6158  -0.540   3.713   9.561 -0.8306  0.0360  0.1394
   71SLPC   H7S 6159  -0.574   3.568   9.468  0.9472 -0.1629 -1.3944
   71SLPC   C28 6160  -0.379   3.642   9.430 -0.2842  0.4162 -1.0964
   71SLPC   H8R 6161  -0.315   3.551   9.431 -0.3640  0.3497 -1.9118
   71SLPC   H8S 6162  -0.310   3.719   9.469  1.3414 -1.9173  0.9442
   71SLPC   C29 6163  -0.425   3.682   9.291 -0.3063 -0.0172 -0.0704
   71SLPC   H9R 6164  -0.450   3.789   9.287  0.0214  0.1188  1.0833
   71SLPC  C210 6165  -0.429   3.603   9.180  0.6135 -0.0481 -0.2433
   71SLPC  H10R 6166  -0.447   3.668   9.094 -0.8488 -0.1110 -0.0059
   71SLPC  C211 6167  -0.389   3.456   9.175  0.7037 -0.1257 -0.4999
   71SLPC  H11R 6168  -0.481   3.397   9.200  1.4762 -1.0718  0.2098
   71SLPC  H11S 6169  -0.316   3.441   9.257  0.2254 -0.1861 -0.0786
   71SLPC  C212 6170  -0.342   3.412   9.044  0.3513 -0.1144 -0.1789
   71SLPC  H12R 6171  -0.233   3.401   9.047  0.4154  0.3462 -0.7396
   71SLPC  C213 6172  -0.409   3.364   8.936  0.2565 -0.2533 -0.2599
   71SLPC  H13R 6173  -0.347   3.345   8.847 -0.5615 -2.1556 -0.4744
   71SLPC  C214 6174  -0.560   3.355   8.922  0.1533  0.4886 -0.4075
   71SLPC  H14R 6175  -0.617   3.405   9.003 -0.7094  0.2315 -0.8440
   71SLPC  H14S 6176  -0.586   3.247   8.912 -1.1402  0.6187  1.1783
   71SLPC  C215 6177  -0.612   3.416   8.787  0.1594 -0.1622 -0.2268
   71SLPC  H15R 6178  -0.576   3.521   8.780  0.5558 -0.3385 -0.9292
   71SLPC  H15S 6179  -0.722   3.429   8.778  0.1661  0.1964  0.1462
   71SLPC  C216 6180  -0.566   3.338   8.667  0.1537  0.0755 -0.3178
   71SLPC  H16R 6181  -0.585   3.231   8.689  0.5954  0.3625  1.7228
   71SLPC  H16S 6182  -0.457   3.351   8.651  0.7508 -2.7245  0.8969
   71SLPC  C217 6183  -0.652   3.376   8.537  0.1743 -0.2230 -0.1867
   71SLPC  H17R 6184  -0.610   3.474   8.504 -1.7299  1.1930  1.3321
   71SLPC  H17S 6185  -0.757   3.395   8.568  0.3347  0.7024 -0.1689
   71SLPC  C218 6186  -0.629   3.277   8.423 -0.8068 -0.1866  0.0427
   71SLPC  H18R 6187  -0.620   3.168   8.443  3.4917 -0.4140 -2.0142
   71SLPC  H18S 6188  -0.529   3.300   8.381 -0.9794  3.7550  1.3768
   71SLPC  H18T 6189  -0.700   3.293   8.339  0.1722 -0.6350 -0.8879
   71SLPC   C33 6190  -0.682   3.937  10.092 -0.6930 -0.0509  0.7064
   71SLPC   H3X 6191  -0.630   3.839  10.079  0.0622  0.4600 -0.2744
   71SLPC   H3Y 6192  -0.613   4.023  10.096 -2.3189  1.5027 -1.8025
   71SLPC   C34 6193  -0.777   3.951   9.974 -0.1686  0.7633 -0.4024
   71SLPC   H4X 6194  -0.712   3.971   9.886  1.7072  1.9322  1.1597
   71SLPC   H4Y 6195  -0.847   4.038   9.971 -0.1203  0.8443  0.6135
   71SLPC   C35 6196  -0.867   3.828   9.947 -0.1322  0.4142 -0.7906
   71SLPC   H5X 6197  -0.950   3.834  10.020  0.5229  1.1459 -0.0911
   71SLPC   H5Y 6198  -0.809   3.734   9.963 -0.9544 -0.5541 -3.0469
   71SLPC   C36 6199  -0.922   3.825   9.800  0.1319  0.3963 -0.1237
   71SLPC   H6X 6200  -0.936   3.928   9.762 -0.2805  0.4808  0.2445
   71SLPC   H6Y 6201  -1.023   3.778   9.805  0.3325  0.0791  2.1674
   71SLPC   C37 6202  -0.844   3.756   9.690  0.3425 -1.3375 -0.1455
   71SLPC   H7X 6203  -0.841   3.647   9.712 -2.1788 -1.4435  0.0316
   71SLPC   H7Y 6204  -0.751   3.814   9.676 -0.2393 -0.8567 -2.5842
   71SLPC   C38 6205  -0.916   3.793   9.565  0.5332  0.3254  0.3107
   71SLPC   H8X 6206  -0.875   3.882   9.513 -1.0873  0.8887 -0.0510
   71SLPC   H8Y 6207  -1.023   3.818   9.579  0.3931  0.6018 -1.0960
   71SLPC   C39 6208  -0.903   3.673   9.457 -0.4764 -0.5557  0.1861
   71SLPC   H9X 6209  -0.960   3.586   9.497 -0.4447 -0.7247 -0.1333
   71SLPC   H9Y 6210  -0.796   3.647   9.442 -0.4034  0.9004 -2.5661
   71SLPC  C310 6211  -0.960   3.706   9.316 -0.5704 -0.0812  0.3912
   71SLPC  H10X 6212  -0.907   3.793   9.271 -1.3630  0.3302  0.2335
   71SLPC  H10Y 6213  -1.066   3.738   9.319 -0.5224  0.0225  1.5090
   71SLPC  C311 6214  -0.950   3.586   9.216  0.3499  0.0835 -0.3766
   71SLPC  H11X 6215  -0.995   3.503   9.273  0.6015  0.5915  0.5752
   71SLPC  H11Y 6216  -0.843   3.557   9.204 -0.2196 -2.0234 -0.6442
   71SLPC  C312 6217  -1.016   3.615   9.084 -0.3325 -0.3892 -0.4152
   71SLPC  H12X 6218  -0.957   3.696   9.035 -0.2202  1.5665  2.7183
   71SLPC  H12Y 6219  -1.117   3.659   9.096  0.3938  1.3748 -0.4234
   71SLPC  C313 6220  -1.031   3.496   8.990  0.8719 -0.3115 -0.5965
   71SLPC  H13X 6221  -1.120   3.434   9.015  0.6377  0.1709 -0.2312
   71SLPC  H13Y 6222  -0.947   3.423   8.999 -0.3149 -1.4454  3.6557
   71SLPC  C314 6223  -1.040   3.531   8.845 -0.2113 -0.2575  0.2462
   71SLPC  H14X 6224  -1.067   3.438   8.791 -0.3772 -0.2990  0.3971
   71SLPC  H14Y 6225  -0.945   3.565   8.800 -1.1928  1.4888 -0.6473
   71SLPC  C315 6226  -1.142   3.639   8.819 -0.1107 -0.1429 -0.7215
   71SLPC  H15X 6227  -1.121   3.737   8.868 -0.2889 -0.3632 -0.1858
   71SLPC  H15Y 6228  -1.238   3.601   8.861  0.2118  2.4790  2.9464
   71SLPC  C316 6229  -1.160   3.671   8.671 -0.3147 -0.3977 -0.3644
   71SLPC  H16X 6230  -1.164   3.571   8.623  1.1741 -0.0658 -1.2473
   71SLPC  H16Y 6231  -1.064   3.710   8.631  1.3010 -1.8067  1.9297
   71SLPC  C317 6232  -1.278   3.765   8.624 -0.1549  0.2742 -0.3510
   71SLPC  H17X 6233  -1.271   3.788   8.516  0.4564  0.9424 -0.1728
   71SLPC  H17Y 6234  -1.280   3.859   8.682 -1.5370 -0.1406  0.3326
   71SLPC  C318 6235  -1.416   3.697   8.653 -0.2364 -0.3943  0.6318
   71SLPC  H18X 6236  -1.424   3.698   8.764 -1.3034 -1.7949  0.5891
   71SLPC  H18Y 6237  -1.432   3.600   8.601 -0.8955  0.0377  0.0141
   71SLPC  H18Z 6238  -1.492   3.767   8.613  1.4666  0.9456 -0.4429
   72SLPC     N 6239   6.393   0.754  11.148 -0.1247 -0.3916  0.0036
   72SLPC   C13 6240   6.520   0.749  11.071 -0.2313  0.1402  0.2317
   72SLPC  H13A 6241   6.596   0.721  11.143  0.9778  2.7523  0.0687
   72SLPC  H13B 6242   6.520   0.670  10.997 -0.8513  1.1845 -0.9184
   72SLPC  H13C 6243   6.550   0.840  11.022  3.4962 -1.8625 -1.6464
   72SLPC   C14 6244   6.417   0.841  11.264  0.1171 -0.2030 -1.0854
   72SLPC  H14A 6245   6.444   0.940  11.231 -1.1473  0.0240 -1.5057
   72SLPC  H14B 6246   6.333   0.844  11.332  1.7010 -1.5543  1.0494
   72SLPC  H14C 6247   6.492   0.792  11.325  2.3395  1.3875 -2.3905
   72SLPC   C15 6248   6.359   0.617  11.201 -0.3992 -0.6545 -0.4972
   72SLPC  H15A 6249   6.298   0.634  11.289 -0.2251 -0.5969 -0.3847
   72SLPC  H15B 6250   6.303   0.556  11.132  0.5238 -1.7958 -0.2756
   72SLPC  H15C 6251   6.444   0.554  11.224  1.0284  0.1996 -3.0970
   72SLPC   C12 6252   6.269   0.800  11.072 -0.1933 -0.2347 -0.9470
   72SLPC  H12A 6253   6.279   0.906  11.051 -0.0835  0.0564  0.4951
   72SLPC  H12B 6254   6.185   0.797  11.140 -0.8603 -0.7143 -1.7775
   72SLPC   C11 6255   6.231   0.725  10.944  0.2313 -0.3872 -0.7841
   72SLPC  H11A 6256   6.322   0.700  10.886  1.3732  0.4104  0.5981
   72SLPC  H11B 6257   6.166   0.778  10.871  2.1258  1.0455 -1.5160
   72SLPC     P 6258   6.146   0.481  10.893  0.2412 -0.1980 -0.2953
   72SLPC   O13 6259   6.257   0.392  10.918  0.1793 -0.2064  0.4356
   72SLPC   O14 6260   6.011   0.426  10.904 -0.1269 -0.4135 -0.1482
   72SLPC   O12 6261   6.154   0.604  10.984 -0.6360 -0.5475 -0.1831
   72SLPC   O11 6262   6.155   0.546  10.752 -0.1404 -0.3894  0.2611
   72SLPC    C1 6263   6.264   0.524  10.661 -0.2976  0.4849  0.1395
   72SLPC    HA 6264   6.358   0.533  10.721  0.5229 -1.3923 -0.7776
   72SLPC    HB 6265   6.264   0.420  10.623  0.0707  1.1795 -1.8973
   72SLPC    C2 6266   6.265   0.623  10.547  0.1700 -0.6759 -0.1216
   72SLPC    HS 6267   6.244   0.725  10.587  2.1476  0.4762 -1.8614
   72SLPC   O21 6268   6.172   0.571  10.452 -0.1581  0.3528 -0.4555
   72SLPC   C21 6269   6.095   0.661  10.391 -0.4905  0.6167  0.1677
   72SLPC   O22 6270   6.085   0.784  10.408 -0.4874  1.0660 -0.2804
   72SLPC   C22 6271   6.006   0.596  10.286  0.9039 -0.4887  0.8291
   72SLPC   H2R 6272   6.059   0.517  10.229  0.2903 -0.8786  0.7906
   72SLPC   H2S 6273   5.912   0.561  10.334  0.3057 -1.2301 -0.8167
   72SLPC    C3 6274   6.398   0.643  10.479  0.2684  0.1717 -0.0979
   72SLPC    HX 6275   6.476   0.662  10.557  0.8881  0.2366 -0.7188
   72SLPC    HY 6276   6.392   0.730  10.410  0.0797  0.4258  0.2355
   72SLPC   O31 6277   6.434   0.526  10.399  0.1031 -0.5550 -0.5730
   72SLPC   C31 6278   6.558   0.513  10.354 -0.0905 -0.4377  0.1494
   72SLPC   O32 6279   6.645   0.600  10.356  0.7612 -0.0782 -0.2094
   72SLPC   C32 6280   6.565   0.385  10.270  0.1956  0.1397  0.2968
   72SLPC   H2X 6281   6.481   0.317  10.295 -1.0683  0.6717 -2.2121
   72SLPC   H2Y 6282   6.659   0.332  10.299  1.2558  2.7374  1.9604
   72SLPC   C23 6283   5.953   0.701  10.176 -1.1307 -0.0118 -1.2684
   72SLPC   H3R 6284   6.034   0.735  10.109  0.9177 -0.6055  0.7877
   72SLPC   H3S 6285   5.910   0.798  10.211  0.7361  0.3650  0.1373
   72SLPC   C24 6286   5.851   0.637  10.080 -0.0615  0.3465  0.2931
   72SLPC   H4R 6287   5.749   0.629  10.124 -0.5676  0.3308 -0.8377
   72SLPC   H4S 6288   5.890   0.538  10.050 -0.3193  0.2206  0.3723
   72SLPC   C25 6289   5.831   0.715   9.948 -0.4867  0.0079 -0.5032
   72SLPC   H5R 6290   5.931   0.760   9.931 -0.2172  0.3996  1.7218
   72SLPC   H5S 6291   5.754   0.795   9.950 -0.4301  0.0552  0.6833
   72SLPC   C26 6292   5.805   0.618   9.832  0.2974 -0.2571 -0.3119
   72SLPC   H6R 6293   5.736   0.541   9.873  2.1247 -0.8062  1.9201
   72SLPC   H6S 6294   5.895   0.556   9.813  1.7146  0.8117  2.3024
   72SLPC   C27 6295   5.744   0.687   9.708  0.0047  0.2311 -0.2229
   72SLPC   H7R 6296   5.800   0.780   9.684  1.8936 -0.2509  2.0417
   72SLPC   H7S 6297   5.641   0.710   9.744 -0.9514 -1.7887 -1.5059
   72SLPC   C28 6298   5.728   0.607   9.574 -0.0299 -0.4705  0.4100
   72SLPC   H8R 6299   5.830   0.594   9.533 -0.4207  0.2184 -0.8244
   72SLPC   H8S 6300   5.677   0.680   9.507  0.4672  0.0262  0.5637
   72SLPC   C29 6301   5.659   0.471   9.579  0.1598  0.0315  0.5992
   72SLPC   H9R 6302   5.732   0.390   9.599 -0.3385 -0.2784  1.1873
   72SLPC  C210 6303   5.536   0.438   9.536 -0.1493 -0.5388 -0.7402
   72SLPC  H10R 6304   5.500   0.336   9.553 -1.1782 -0.4053 -1.9316
   72SLPC  C211 6305   5.431   0.530   9.481  0.3805 -0.7014  0.0797
   72SLPC  H11R 6306   5.446   0.545   9.372  0.7949  0.9046  0.3356
   72SLPC  H11S 6307   5.447   0.628   9.531  0.0477  1.6932 -4.0123
   72SLPC  C212 6308   5.289   0.475   9.494 -0.2539 -0.9096 -0.4339
   72SLPC  H12R 6309   5.243   0.493   9.592  2.3749  0.3341  0.6899
   72SLPC  C213 6310   5.225   0.387   9.418 -0.1895  0.2440  0.3742
   72SLPC  H13R 6311   5.127   0.346   9.444  0.0384  0.0385  0.9256
   72SLPC  C214 6312   5.274   0.338   9.284 -0.6651 -0.3884 -0.2039
   72SLPC  H14R 6313   5.268   0.227   9.281 -2.8700 -0.3228 -2.3447
   72SLPC  H14S 6314   5.380   0.365   9.267 -0.4857 -1.3422 -0.6716
   72SLPC  C215 6315   5.196   0.395   9.168 -0.8828  0.5383 -0.3762
   72SLPC  H15R 6316   5.190   0.506   9.176  3.0932  0.8368  0.6230
   72SLPC  H15S 6317   5.090   0.361   9.173  0.0346 -2.9013 -1.6559
   72SLPC  C216 6318   5.254   0.358   9.036  0.0273  0.2466  0.1322
   72SLPC  H16R 6319   5.353   0.407   9.029  0.2561 -0.3873 -1.4272
   72SLPC  H16S 6320   5.188   0.395   8.954  1.1071  0.1782 -0.7838
   72SLPC  C217 6321   5.270   0.212   9.009 -0.6098 -0.0202  0.0240
   72SLPC  H17R 6322   5.187   0.146   9.041  1.2990 -2.0718  0.9732
   72SLPC  H17S 6323   5.351   0.168   9.070 -0.3421 -0.2597 -0.4938
   72SLPC  C218 6324   5.309   0.183   8.867  0.0109  0.0582 -0.7096
   72SLPC  H18R 6325   5.233   0.216   8.793 -0.2924  0.5262 -0.1990
   72SLPC  H18S 6326   5.329   0.074   8.854  1.1129  0.1400  0.1629
   72SLPC  H18T 6327   5.406   0.233   8.848  0.4937  0.5855  2.5333
   72SLPC   C33 6328   6.573   0.421  10.118  0.3697  0.0297  0.0847
   72SLPC   H3X 6329   6.633   0.343  10.066  1.1808 -0.0258  1.0664
   72SLPC   H3Y 6330   6.634   0.513  10.106  1.3702 -0.2977  2.1819
   72SLPC   C34 6331   6.435   0.443  10.062  0.5834 -0.4024 -0.0729
   72SLPC   H4X 6332   6.462   0.481   9.961  3.3518 -1.0149  0.3709
   72SLPC   H4Y 6333   6.377   0.528  10.104 -1.5137 -1.6018 -0.3935
   72SLPC   C35 6334   6.357   0.321  10.029  0.4719  0.8443 -0.4048
   72SLPC   H5X 6335   6.342   0.272  10.128  4.1345  2.0032  0.9195
   72SLPC   H5Y 6336   6.414   0.256   9.959 -0.4644  0.3137 -0.6866
   72SLPC   C36 6337   6.226   0.354   9.963 -0.4187 -0.2303  0.7847
   72SLPC   H6X 6338   6.248   0.413   9.872  0.2831 -1.6704 -0.0111
   72SLPC   H6Y 6339   6.180   0.415  10.044  1.6155  1.0793  1.0151
   72SLPC   C37 6340   6.136   0.239   9.920 -0.1439 -0.0711 -0.4812
   72SLPC   H7X 6341   6.135   0.164  10.002 -2.0056 -0.2779 -0.6278
   72SLPC   H7Y 6342   6.183   0.201   9.826 -0.3388 -0.8289 -0.2793
   72SLPC   C38 6343   5.995   0.291   9.888 -0.5355  0.4668 -0.4531
   72SLPC   H8X 6344   6.003   0.362   9.803 -0.3248 -0.1333 -0.9462
   72SLPC   H8Y 6345   5.951   0.333   9.980  1.6207 -1.0358  1.3591
   72SLPC   C39 6346   5.899   0.182   9.839 -0.1166  0.4885 -0.5143
   72SLPC   H9X 6347   5.798   0.226   9.850 -0.3263 -0.2966  0.9305
   72SLPC   H9Y 6348   5.903   0.099   9.912 -0.1609  1.5502  0.7256
   72SLPC  C310 6349   5.909   0.151   9.692 -0.4986 -0.7430 -0.5720
   72SLPC  H10X 6350   6.012   0.112   9.676 -0.0505  1.1135 -2.7568
   72SLPC  H10Y 6351   5.899   0.241   9.628 -0.5896  1.4910  2.4363
   72SLPC  C311 6352   5.810   0.040   9.650 -0.0823 -0.2363  0.1353
   72SLPC  H11X 6353   5.710   0.089   9.656  0.7955  2.4743 -3.7550
   72SLPC  H11Y 6354   5.817  -0.037   9.730 -2.9411 -0.8224 -0.0785
   72SLPC  C312 6355   5.842  -0.014   9.506 -0.4684  0.5319 -0.0884
   72SLPC  H12X 6356   5.782  -0.106   9.489 -2.3904  1.6877  0.2112
   72SLPC  H12Y 6357   5.947  -0.050   9.499 -0.4734 -0.3230  2.9415
   72SLPC  C313 6358   5.814   0.088   9.396  0.1545 -0.2062  0.6534
   72SLPC  H13X 6359   5.840   0.050   9.295 -0.2464  0.3756  0.3261
   72SLPC  H13Y 6360   5.869   0.181   9.420  0.4906 -0.3256  0.3633
   72SLPC  C314 6361   5.665   0.123   9.369  0.5397  0.0613 -0.3841
   72SLPC  H14X 6362   5.640   0.192   9.453 -0.1831  0.7134 -1.1076
   72SLPC  H14Y 6363   5.595   0.036   9.369 -0.5563  0.9105  0.6451
   72SLPC  C315 6364   5.628   0.194   9.230  0.0213  0.4506  0.6768
   72SLPC  H15X 6365   5.522   0.225   9.243  0.1067  0.6833  0.8356
   72SLPC  H15Y 6366   5.639   0.119   9.149 -1.0076  1.8772 -0.8471
   72SLPC  C316 6367   5.723   0.312   9.214  0.1397  0.9071 -0.1854
   72SLPC  H16X 6368   5.820   0.277   9.173  0.3583  0.8260  0.3867
   72SLPC  H16Y 6369   5.749   0.348   9.316  0.2287 -2.7224  1.2075
   72SLPC  C317 6370   5.672   0.420   9.120 -0.1648 -0.0825 -0.7235
   72SLPC  H17X 6371   5.573   0.443   9.165 -0.2813 -0.6136 -0.7002
   72SLPC  H17Y 6372   5.653   0.398   9.012  1.0686 -2.3100 -0.5354
   72SLPC  C318 6373   5.735   0.555   9.128  0.1618  0.0283  0.4976
   72SLPC  H18X 6374   5.814   0.557   9.206  0.6808  4.2296  0.1192
   72SLPC  H18Y 6375   5.651   0.626   9.147 -0.0652 -0.5520  1.7394
   72SLPC  H18Z 6376   5.782   0.597   9.037 -1.4218  1.6802  0.3747
   73SLPC     N 6377   0.711   1.087  10.926  0.2432  0.0695  0.0386
   73SLPC   C13 6378   0.760   1.212  10.976 -0.1517  0.2818  0.7360
   73SLPC  H13A 6379   0.802   1.191  11.074 -0.1611 -0.3258  0.6174
   73SLPC  H13B 6380   0.839   1.248  10.912  0.4256 -0.0675  1.2365
   73SLPC  H13C 6381   0.686   1.289  10.992 -0.0263  0.4640  0.4355
   73SLPC   C14 6382   0.672   1.111  10.785 -0.1233 -0.1035  0.6683
   73SLPC  H14A 6383   0.616   1.201  10.766  3.5266  2.0981 -0.6327
   73SLPC  H14B 6384   0.753   1.137  10.718  0.1191 -0.5617  0.7795
   73SLPC  H14C 6385   0.624   1.029  10.732  1.5081 -0.2400 -0.6997
   73SLPC   C15 6386   0.586   1.047  11.001 -0.0801 -0.6583 -0.4352
   73SLPC  H15A 6387   0.549   0.950  10.973 -0.4451 -0.6768  0.0996
   73SLPC  H15B 6388   0.605   1.044  11.107  2.1062  2.1413 -0.6114
   73SLPC  H15C 6389   0.511   1.124  10.993  0.3836 -0.2868 -1.3251
   73SLPC   C12 6390   0.821   0.981  10.930  0.5541  0.7342  0.5192
   73SLPC  H12A 6391   0.785   0.891  10.882  1.1545 -0.0042  1.3813
   73SLPC  H12B 6392   0.826   0.948  11.033 -1.5634 -0.3616  0.3260
   73SLPC   C11 6393   0.960   1.020  10.889  0.0108  0.1892  0.1220
   73SLPC  H11A 6394   0.944   1.089  10.804 -0.6052 -0.2719 -0.1403
   73SLPC  H11B 6395   1.009   0.926  10.856 -1.9831 -0.8041 -0.1658
   73SLPC     P 6396   1.146   1.197  10.968 -0.0275 -0.0599 -0.1169
   73SLPC   O13 6397   1.074   1.329  10.958 -0.5028 -0.0227 -0.3414
   73SLPC   O14 6398   1.257   1.186  11.066 -0.2429  0.0848 -0.4874
   73SLPC   O12 6399   1.032   1.081  10.998 -0.3983 -0.4610 -0.4998
   73SLPC   O11 6400   1.201   1.152  10.824  0.4018  0.0321 -0.2869
   73SLPC    C1 6401   1.302   1.051  10.816  0.3686  0.4776 -0.2704
   73SLPC    HA 6402   1.403   1.088  10.845  0.8539 -0.8838 -0.1240
   73SLPC    HB 6403   1.284   0.964  10.884  4.2890  0.2730  0.7763
   73SLPC    C2 6404   1.298   0.989  10.670 -0.0012 -0.4138 -0.7796
   73SLPC    HS 6405   1.318   1.070  10.597  2.1190 -0.9006 -0.8035
   73SLPC   O21 6406   1.161   0.934  10.653 -0.3302 -0.4551  0.1765
   73SLPC   C21 6407   1.086   1.007  10.574 -0.9089 -0.0706  0.4625
   73SLPC   O22 6408   1.119   1.119  10.530  0.0291 -0.3774  0.5093
   73SLPC   C22 6409   0.950   0.940  10.539 -0.1511 -0.0221 -0.4991
   73SLPC   H2R 6410   0.956   0.830  10.555 -0.9542  0.0529  0.3603
   73SLPC   H2S 6411   0.887   0.982  10.620  1.2674  1.3370 -0.0273
   73SLPC    C3 6412   1.397   0.876  10.649 -0.5015  0.6563  0.3412
   73SLPC    HX 6413   1.367   0.804  10.729  0.2593 -1.9331 -1.5799
   73SLPC    HY 6414   1.497   0.919  10.675  1.4307 -1.5510 -2.7733
   73SLPC   O31 6415   1.388   0.807  10.519  0.5428 -0.3411 -0.0990
   73SLPC   C31 6416   1.493   0.849  10.438 -0.3823 -0.6961 -0.3566
   73SLPC   O32 6417   1.585   0.917  10.471  0.3961 -0.4528 -0.1338
   73SLPC   C32 6418   1.476   0.812  10.293  0.0526  0.2718  0.5446
   73SLPC   H2X 6419   1.372   0.783  10.268 -0.3273  1.5075  0.6270
   73SLPC   H2Y 6420   1.550   0.732  10.269  0.5830  0.9075  0.0016
   73SLPC   C23 6421   0.896   0.965  10.402  1.1179 -0.0674  0.7326
   73SLPC   H3R 6422   0.890   1.073  10.377  1.1391 -0.2420 -0.0552
   73SLPC   H3S 6423   0.794   0.922  10.403  0.8939  0.4013 -0.7283
   73SLPC   C24 6424   0.980   0.899  10.289 -0.5689  0.0653  0.2682
   73SLPC   H4R 6425   0.972   0.788  10.294  2.5906 -0.2678 -0.1783
   73SLPC   H4S 6426   1.089   0.914  10.305 -0.9616  0.6832  3.0393
   73SLPC   C25 6427   0.929   0.940  10.146 -0.0416  0.3721 -0.1691
   73SLPC   H5R 6428   0.897   1.046  10.144 -1.8770 -0.1222  0.6349
   73SLPC   H5S 6429   0.836   0.880  10.134 -1.5796  2.6840 -0.5006
   73SLPC   C26 6430   1.024   0.904  10.029  0.2348  0.4505 -0.5103
   73SLPC   H6R 6431   1.051   0.797  10.030  0.5048  0.5192  0.3585
   73SLPC   H6S 6432   1.122   0.953  10.047  0.4832 -0.2226  0.0121
   73SLPC   C27 6433   0.982   0.955   9.896  0.2462 -0.1698  0.3625
   73SLPC   H7R 6434   0.935   1.051   9.924  0.8679  0.6237 -1.1379
   73SLPC   H7S 6435   0.908   0.881   9.859 -0.3184  0.5941 -0.0610
   73SLPC   C28 6436   1.094   0.990   9.792 -0.1061 -0.1359  0.1032
   73SLPC   H8R 6437   1.170   1.045   9.853  0.1213  0.3280 -0.5848
   73SLPC   H8S 6438   1.048   1.056   9.715 -2.5640 -1.8757 -0.0176
   73SLPC   C29 6439   1.155   0.875   9.731 -0.7561 -0.0296  0.3479
   73SLPC   H9R 6440   1.189   0.800   9.805 -0.5716  0.0798  0.3736
   73SLPC  C210 6441   1.168   0.851   9.603 -0.4785  0.3751 -0.7025
   73SLPC  H10R 6442   1.221   0.762   9.567  0.7371  0.8109 -0.0227
   73SLPC  C211 6443   1.138   0.954   9.493  0.3411  0.1074 -0.5745
   73SLPC  H11R 6444   1.201   0.945   9.402  1.1808  2.0648 -0.2334
   73SLPC  H11S 6445   1.172   1.052   9.533 -3.4734  1.9059 -1.2734
   73SLPC  C212 6446   0.992   0.966   9.448 -0.1398  0.3263 -0.1592
   73SLPC  H12R 6447   0.931   1.034   9.510 -0.6237  0.0868 -0.3693
   73SLPC  C213 6448   0.936   0.888   9.354  0.6214  0.4454 -0.5482
   73SLPC  H13R 6449   0.826   0.885   9.352  0.5963 -0.0220  0.5469
   73SLPC  C214 6450   0.996   0.783   9.264 -0.4839  0.7617 -0.4516
   73SLPC  H14R 6451   1.093   0.751   9.308 -0.6664  1.2124  0.2987
   73SLPC  H14S 6452   1.014   0.824   9.163 -0.1631  1.5828 -0.0727
   73SLPC  C215 6453   0.905   0.653   9.229  0.3215  0.1783 -0.0717
   73SLPC  H15R 6454   0.885   0.592   9.320  1.0954 -0.2486 -0.1708
   73SLPC  H15S 6455   0.957   0.583   9.159 -1.3983 -0.5971 -0.6193
   73SLPC  C216 6456   0.766   0.692   9.174 -0.0890  0.3682  0.3869
   73SLPC  H16R 6457   0.795   0.738   9.076  1.4232  0.5966  0.9157
   73SLPC  H16S 6458   0.702   0.762   9.231  1.0344  1.6355  0.1472
   73SLPC  C217 6459   0.678   0.567   9.165 -0.7946  0.3385 -1.3834
   73SLPC  H17R 6460   0.664   0.518   9.263 -1.3200 -0.4094 -1.8164
   73SLPC  H17S 6461   0.723   0.484   9.106  0.2477 -2.1674  2.5294
   73SLPC  C218 6462   0.536   0.597   9.112  0.7541  0.1490 -0.1491
   73SLPC  H18R 6463   0.487   0.677   9.171  0.0119  0.0585 -0.6174
   73SLPC  H18S 6464   0.468   0.509   9.104 -1.4748  1.8932 -1.6028
   73SLPC  H18T 6465   0.537   0.637   9.008 -3.1551  2.9819  0.6328
   73SLPC   C33 6466   1.517   0.931  10.201 -0.1583 -0.6040 -0.3040
   73SLPC   H3X 6467   1.624   0.957  10.189 -0.3269 -0.1869 -0.9682
   73SLPC   H3Y 6468   1.468   1.025  10.235  1.7384  1.1010 -1.9643
   73SLPC   C34 6469   1.461   0.897  10.059  0.0946 -0.3027  0.1384
   73SLPC   H4X 6470   1.353   0.874  10.069 -0.7407  3.0214 -0.0282
   73SLPC   H4Y 6471   1.524   0.818  10.013 -2.0993 -2.4404  0.6393
   73SLPC   C35 6472   1.472   1.026   9.975 -0.2063  0.5085 -0.1643
   73SLPC   H5X 6473   1.471   1.117  10.039 -2.2818 -0.6500  1.6283
   73SLPC   H5Y 6474   1.385   1.030   9.906 -0.5798 -1.8877  0.0597
   73SLPC   C36 6475   1.601   1.020   9.895 -0.3022  0.2631  0.4098
   73SLPC   H6X 6476   1.682   0.956   9.935  0.9528  1.1651 -0.6000
   73SLPC   H6Y 6477   1.650   1.120   9.898 -2.3468  1.3766 -0.7321
   73SLPC   C37 6478   1.572   0.988   9.743  0.3912  0.5607 -0.0126
   73SLPC   H7X 6479   1.491   0.912   9.739 -0.2151  1.2214 -0.5879
   73SLPC   H7Y 6480   1.661   0.947   9.692 -0.5285  1.4851 -2.4752
   73SLPC   C38 6481   1.538   1.123   9.667 -0.2007  0.1341  0.2175
   73SLPC   H8X 6482   1.637   1.174   9.662  1.2044 -2.5242 -0.9454
   73SLPC   H8Y 6483   1.468   1.181   9.731 -1.2968 -1.9217  0.9852
   73SLPC   C39 6484   1.477   1.106   9.531  0.2954 -0.2887 -0.6777
   73SLPC   H9X 6485   1.419   1.197   9.504 -1.8175 -1.0132  1.1263
   73SLPC   H9Y 6486   1.410   1.017   9.536  0.5132 -0.4952 -1.3544
   73SLPC  C310 6487   1.582   1.059   9.432 -0.0271  0.4417  0.0989
   73SLPC  H10X 6488   1.624   0.963   9.469  0.6905 -0.5748 -3.0655
   73SLPC  H10Y 6489   1.663   1.135   9.429  0.0406  0.4503  1.5132
   73SLPC  C311 6490   1.535   1.034   9.287  0.5749  0.5402 -0.2545
   73SLPC  H11X 6491   1.447   0.968   9.278  1.0778 -0.0039 -1.3207
   73SLPC  H11Y 6492   1.618   0.985   9.231  0.2476 -0.5276  0.1655
   73SLPC  C312 6493   1.501   1.161   9.200  1.1579 -0.4358  0.3473
   73SLPC  H12X 6494   1.597   1.214   9.184  0.2183  1.2142  0.0026
   73SLPC  H12Y 6495   1.431   1.235   9.243  0.3533 -1.0881  0.1891
   73SLPC  C313 6496   1.440   1.118   9.063 -0.5448  0.5777 -1.0192
   73SLPC  H13X 6497   1.484   1.019   9.040 -1.1595  0.4283 -1.5882
   73SLPC  H13Y 6498   1.483   1.184   8.985  2.3379 -0.8613 -0.7577
   73SLPC  C314 6499   1.287   1.102   9.067  0.0597 -0.6247  0.3670
   73SLPC  H14X 6500   1.241   1.202   9.084  0.0642 -0.9733  2.8784
   73SLPC  H14Y 6501   1.260   1.036   9.152 -0.5961  0.5732  1.1223
   73SLPC  C315 6502   1.217   1.048   8.941  0.4753  0.3043 -0.0216
   73SLPC  H15X 6503   1.106   1.037   8.950  0.2468  2.2717 -0.0316
   73SLPC  H15Y 6504   1.249   0.942   8.939  1.4069  0.5060  1.9335
   73SLPC  C316 6505   1.250   1.126   8.809  0.2919  0.3774  0.1706
   73SLPC  H16X 6506   1.188   1.073   8.733 -1.1674  2.6641 -0.3423
   73SLPC  H16Y 6507   1.357   1.105   8.792 -0.6710 -3.9875 -1.9140
   73SLPC  C317 6508   1.211   1.272   8.807 -0.1011 -0.1462 -0.0296
   73SLPC  H17X 6509   1.272   1.330   8.879 -0.5371 -0.2077  0.3949
   73SLPC  H17Y 6510   1.103   1.286   8.826 -0.1430  1.8291 -1.3939
   73SLPC  C318 6511   1.236   1.345   8.670 -0.0818  0.7585 -0.3098
   73SLPC  H18X 6512   1.341   1.324   8.638 -0.4155  0.2297 -1.0836
   73SLPC  H18Y 6513   1.215   1.454   8.662 -1.2250  0.6063  0.5436
   73SLPC  H18Z 6514   1.170   1.296   8.596 -1.5629  1.0931  0.7411
   74SLPC     N 6515   1.080   1.973  10.860 -0.4667 -0.2203 -0.3657
   74SLPC   C13 6516   1.210   1.944  10.927 -0.3171 -0.4372 -0.2264
   74SLPC  H13A 6517   1.278   1.907  10.851 -1.3329  0.1338 -1.4469
   74SLPC  H13B 6518   1.250   2.037  10.966  0.3230 -0.1373 -1.5480
   74SLPC  H13C 6519   1.203   1.871  11.006  0.1215 -0.6083 -0.3423
   74SLPC   C14 6520   1.007   2.073  10.940 -0.2300 -0.0191  0.4077
   74SLPC  H14A 6521   1.047   2.173  10.951  1.2106 -0.8320  3.1607
   74SLPC  H14B 6522   0.905   2.082  10.903 -0.0772 -0.0912 -0.0395
   74SLPC  H14C 6523   1.004   2.042  11.043 -0.7997 -2.2923 -0.2392
   74SLPC   C15 6524   0.992   1.851  10.860 -0.3107  0.3663 -0.3132
   74SLPC  H15A 6525   1.005   1.807  10.958 -2.4190 -0.8496 -0.5143
   74SLPC  H15B 6526   0.890   1.869  10.832  0.4166  2.0138 -2.1297
   74SLPC  H15C 6527   1.032   1.778  10.791  1.1729 -0.3864  1.2729
   74SLPC   C12 6528   1.099   2.013  10.717  0.8158 -0.6750 -0.0812
   74SLPC  H12A 6529   1.004   2.052  10.682  0.9368 -0.2264  0.0852
   74SLPC  H12B 6530   1.127   1.924  10.662  1.4152 -2.0542  2.3188
   74SLPC   C11 6531   1.222   2.103  10.691 -0.6129  0.1164  1.3410
   74SLPC  H11A 6532   1.224   2.192  10.757  2.2878  0.6087  0.7229
   74SLPC  H11B 6533   1.215   2.141  10.587 -1.5451  1.6656  1.9330
   74SLPC     P 6534   1.476   2.112  10.695  0.1143  0.1531 -0.0285
   74SLPC   O13 6535   1.483   2.221  10.797 -0.7633  0.3579 -0.3169
   74SLPC   O14 6536   1.584   2.012  10.718 -0.4301 -0.1206 -0.0093
   74SLPC   O12 6537   1.350   2.030  10.695  0.7254 -0.1764 -0.4197
   74SLPC   O11 6538   1.468   2.168  10.547 -0.4242 -0.6161 -0.7269
   74SLPC    C1 6539   1.503   2.085  10.436 -0.1660  0.0211 -0.1911
   74SLPC    HA 6540   1.612   2.073  10.414  0.2216 -0.7918  1.9148
   74SLPC    HB 6541   1.478   1.978  10.455  1.2356 -0.3805 -0.4299
   74SLPC    C2 6542   1.423   2.137  10.322  0.7135 -0.2657  0.0993
   74SLPC    HS 6543   1.316   2.138  10.351  0.9299 -1.7703  1.1110
   74SLPC   O21 6544   1.434   2.045  10.210  0.1413  0.2963  0.0460
   74SLPC   C21 6545   1.342   1.945  10.201  0.2475  0.0284 -0.4660
   74SLPC   O22 6546   1.246   1.931  10.278  0.1926  0.0219 -0.2667
   74SLPC   C22 6547   1.377   1.861  10.077 -0.0947 -0.3785  0.2186
   74SLPC   H2R 6548   1.479   1.821  10.093 -0.7246 -1.9914  0.4267
   74SLPC   H2S 6549   1.300   1.781  10.070 -1.5232  1.0481 -1.1673
   74SLPC    C3 6550   1.470   2.278  10.279  0.0620 -0.2537  0.6311
   74SLPC    HX 6551   1.581   2.280  10.273 -0.0208  0.2664 -1.4983
   74SLPC    HY 6552   1.450   2.359  10.352  2.6562  2.3212 -1.2655
   74SLPC   O31 6553   1.398   2.325  10.162  0.2291 -0.3691  0.0346
   74SLPC   C31 6554   1.467   2.335  10.042 -0.5687  0.3175 -0.3462
   74SLPC   O32 6555   1.588   2.331  10.041 -0.2040  0.2332 -0.0815
   74SLPC   C32 6556   1.368   2.349   9.925  0.3499 -0.1904 -0.2579
   74SLPC   H2X 6557   1.306   2.440   9.933  2.0532  0.9013  1.4111
   74SLPC   H2Y 6558   1.299   2.261   9.932  0.7095 -0.4356  0.2781
   74SLPC   C23 6559   1.382   1.951   9.955  0.0104 -0.4815  0.2546
   74SLPC   H3R 6560   1.479   2.005   9.954 -1.1080  1.6341 -1.4740
   74SLPC   H3S 6561   1.298   2.023   9.956  0.9980  0.7501 -0.7356
   74SLPC   C24 6562   1.368   1.869   9.820 -1.0824 -0.1012  0.1806
   74SLPC   H4R 6563   1.274   1.811   9.826 -1.1577 -0.4695 -2.8302
   74SLPC   H4S 6564   1.458   1.804   9.812 -1.2469 -0.5390  1.6539
   74SLPC   C25 6565   1.359   1.954   9.690  0.0195  0.3443  0.3329
   74SLPC   H5R 6566   1.460   1.999   9.677  0.9388 -1.3842  1.1158
   74SLPC   H5S 6567   1.295   2.040   9.718  0.2244  0.5498  0.1681
   74SLPC   C26 6568   1.315   1.873   9.569 -0.0507  0.0878 -0.1449
   74SLPC   H6R 6569   1.207   1.848   9.578 -0.0690  0.8220  3.3859
   74SLPC   H6S 6570   1.373   1.779   9.561 -0.1963 -0.1213  1.0155
   74SLPC   C27 6571   1.334   1.967   9.447  0.2637  0.6339  0.5106
   74SLPC   H7R 6572   1.441   1.997   9.446  0.7583 -1.0121 -0.4274
   74SLPC   H7S 6573   1.274   2.059   9.463 -1.2523 -0.5562  2.0305
   74SLPC   C28 6574   1.300   1.878   9.326  1.2672 -0.0416  0.4104
   74SLPC   H8R 6575   1.195   1.845   9.345  0.7284  0.7271 -1.0661
   74SLPC   H8S 6576   1.353   1.781   9.325  1.7951  0.2369 -0.6828
   74SLPC   C29 6577   1.317   1.952   9.194 -0.5717  0.3861 -0.3483
   74SLPC   H9R 6578   1.424   1.961   9.170 -0.5567 -0.0181 -0.4525
   74SLPC  C210 6579   1.230   1.995   9.103 -0.3128  0.2191  0.1413
   74SLPC  H10R 6580   1.274   2.051   9.019  1.8910 -1.4997  0.0575
   74SLPC  C211 6581   1.079   1.990   9.112  0.1769 -0.2812  0.8610
   74SLPC  H11R 6582   1.032   1.946   9.202  0.8962 -0.0251  1.3713
   74SLPC  H11S 6583   1.029   1.926   9.035 -1.4392 -1.9801  3.1870
   74SLPC  C212 6584   1.029   2.128   9.097  0.4429  0.3203 -0.0060
   74SLPC  H12R 6585   1.071   2.206   9.162  0.4237  1.2855 -1.0984
   74SLPC  C213 6586   0.972   2.186   8.987  0.4210  0.5583  0.1503
   74SLPC  H13R 6587   0.940   2.290   9.000 -1.3447  0.1364 -0.4975
   74SLPC  C214 6588   0.938   2.128   8.855  0.2671  0.4350 -0.8283
   74SLPC  H14R 6589   0.872   2.039   8.865 -1.4664  1.8213  0.9417
   74SLPC  H14S 6590   1.031   2.091   8.808 -0.1677 -0.0434 -1.3281
   74SLPC  C215 6591   0.893   2.228   8.745 -0.9421 -0.3087  0.8926
   74SLPC  H15R 6592   0.986   2.289   8.746  0.2002 -1.9295  2.9873
   74SLPC  H15S 6593   0.804   2.293   8.764  0.4951  2.1440 -0.1894
   74SLPC  C216 6594   0.872   2.165   8.611 -0.7485  0.0733  0.6723
   74SLPC  H16R 6595   0.789   2.091   8.606 -0.9030  0.1944  1.3250
   74SLPC  H16S 6596   0.963   2.105   8.589  0.1139  1.1739  1.1544
   74SLPC  C217 6597   0.845   2.268   8.503  0.1993  0.2175  0.3023
   74SLPC  H17R 6598   0.890   2.366   8.528 -2.1041  1.5574 -0.4782
   74SLPC  H17S 6599   0.736   2.291   8.504 -0.0277 -0.3461 -2.4269
   74SLPC  C218 6600   0.902   2.235   8.363 -0.2052  0.1597 -0.6320
   74SLPC  H18R 6601   0.833   2.167   8.309 -0.9354 -0.1727  0.6777
   74SLPC  H18S 6602   1.004   2.193   8.374  0.3417  1.0563 -2.0106
   74SLPC  H18T 6603   0.901   2.327   8.300  3.3096  0.7425  0.0001
   74SLPC   C33 6604   1.445   2.345   9.794 -0.2513  0.3406  0.2264
   74SLPC   H3X 6605   1.484   2.243   9.774 -2.2441 -0.7167  1.4692
   74SLPC   H3Y 6606   1.527   2.420   9.800  1.6448 -1.7073  1.9494
   74SLPC   C34 6607   1.357   2.384   9.674  0.6044  0.5046 -0.6590
   74SLPC   H4X 6608   1.338   2.494   9.676 -0.8875  0.2605 -0.0146
   74SLPC   H4Y 6609   1.261   2.329   9.685  0.8075  0.4959  1.5616
   74SLPC   C35 6610   1.419   2.348   9.538 -0.2017  0.1552  0.0496
   74SLPC   H5X 6611   1.449   2.242   9.547  1.3251  0.3959 -1.6562
   74SLPC   H5Y 6612   1.508   2.413   9.521  0.9473 -1.1300  0.9638
   74SLPC   C36 6613   1.318   2.389   9.436  0.3274 -1.0082  0.3603
   74SLPC   H6X 6614   1.310   2.500   9.437 -1.0888 -1.0533 -1.0282
   74SLPC   H6Y 6615   1.215   2.352   9.454 -1.1799  2.3218 -0.5530
   74SLPC   C37 6616   1.377   2.371   9.296  0.5754  0.2065 -0.0426
   74SLPC   H7X 6617   1.401   2.264   9.274  1.2965  0.5680 -1.0628
   74SLPC   H7Y 6618   1.478   2.416   9.296  0.3365  0.7910  1.5600
   74SLPC   C38 6619   1.280   2.419   9.188 -0.2496 -0.0657  0.3994
   74SLPC   H8X 6620   1.217   2.506   9.217 -1.2843 -0.9853  1.0120
   74SLPC   H8Y 6621   1.207   2.346   9.145 -0.1445  0.1936 -0.2383
   74SLPC   C39 6622   1.373   2.449   9.061  0.3534 -0.0766  0.5823
   74SLPC   H9X 6623   1.444   2.367   9.038  0.5412  0.4999 -0.9852
   74SLPC   H9Y 6624   1.433   2.539   9.088  2.1868 -0.5854 -1.5080
   74SLPC  C310 6625   1.291   2.506   8.944  0.8700 -0.7405  0.3064
   74SLPC  H10X 6626   1.217   2.580   8.982  0.9848 -0.1998 -0.5052
   74SLPC  H10Y 6627   1.244   2.421   8.891  3.5129 -0.4357 -2.8180
   74SLPC  C311 6628   1.376   2.567   8.826  0.0462  0.2411  0.6487
   74SLPC  H11X 6629   1.450   2.489   8.799 -0.7141  0.1496 -1.3749
   74SLPC  H11Y 6630   1.432   2.656   8.863  0.2982  0.0238  0.7956
   74SLPC  C312 6631   1.301   2.586   8.697 -0.9095 -0.8129  0.7164
   74SLPC  H12X 6632   1.263   2.487   8.663 -0.1701 -0.7990 -0.2067
   74SLPC  H12Y 6633   1.382   2.610   8.625  0.7847 -2.4805  1.9482
   74SLPC  C313 6634   1.195   2.695   8.713  0.1701  0.2474  0.4431
   74SLPC  H13X 6635   1.237   2.795   8.734 -0.5959  0.6361  0.1938
   74SLPC  H13Y 6636   1.129   2.679   8.801 -0.2232  0.1454  0.1350
   74SLPC  C314 6637   1.113   2.694   8.587  0.4264 -0.2514  0.3948
   74SLPC  H14X 6638   1.052   2.602   8.588  1.5552 -1.0208  1.3958
   74SLPC  H14Y 6639   1.180   2.698   8.498 -0.1505 -0.7512 -0.0761
   74SLPC  C315 6640   1.003   2.806   8.575  0.7072 -0.2456  1.0307
   74SLPC  H15X 6641   1.046   2.904   8.606  0.6585  0.5264 -1.1614
   74SLPC  H15Y 6642   0.927   2.784   8.652  0.2439  0.5320  0.8047
   74SLPC  C316 6643   0.929   2.812   8.440  0.1829 -0.3265 -0.3451
   74SLPC  H16X 6644   0.894   2.708   8.422  0.3194 -0.2930 -0.8301
   74SLPC  H16Y 6645   1.004   2.829   8.360 -1.0019 -2.1455 -1.9484
   74SLPC  C317 6646   0.807   2.905   8.440 -0.4108  0.2966  0.0623
   74SLPC  H17X 6647   0.757   2.899   8.539 -0.0399  0.0812  0.2356
   74SLPC  H17Y 6648   0.730   2.876   8.365 -0.1743  2.9700 -1.3251
   74SLPC  C318 6649   0.851   3.047   8.406 -0.0988 -0.5179  0.2956
   74SLPC  H18X 6650   0.767   3.120   8.408  1.5456  1.6043 -1.4907
   74SLPC  H18Y 6651   0.889   3.042   8.301 -1.1252  0.0889 -0.1227
   74SLPC  H18Z 6652   0.941   3.084   8.459  0.8333 -0.1551 -1.4437
   75SLPC     N 6653   2.011   4.321   6.477  0.4371  0.9379  0.1157
   75SLPC   C13 6654   1.968   4.228   6.582 -0.0341  0.8183  0.1899
   75SLPC  H13A 6655   1.991   4.267   6.680 -2.2058  1.2164  0.5777
   75SLPC  H13B 6656   1.865   4.200   6.567 -0.0491  1.3744 -0.8780
   75SLPC  H13C 6657   2.027   4.138   6.572  0.5247  1.3471 -1.6973
   75SLPC   C14 6658   1.999   4.259   6.342 -0.2737  0.0412 -0.2196
   75SLPC  H14A 6659   2.049   4.163   6.338 -1.7432 -0.8401  1.2999
   75SLPC  H14B 6660   1.895   4.248   6.318 -0.2364 -0.3735 -0.1948
   75SLPC  H14C 6661   2.050   4.323   6.271  1.0737  0.1120  0.7639
   75SLPC   C15 6662   2.156   4.346   6.502 -0.5242 -0.5218 -0.3937
   75SLPC  H15A 6663   2.199   4.412   6.428  1.1132 -0.5432  0.5009
   75SLPC  H15B 6664   2.161   4.399   6.596  0.2602 -0.1184 -0.6562
   75SLPC  H15C 6665   2.222   4.262   6.519 -2.4970 -1.9721  0.5088
   75SLPC   C12 6666   1.937   4.452   6.481 -0.2543  0.4474  0.7688
   75SLPC  H12A 6667   1.839   4.436   6.438 -1.2311  3.5499  1.5659
   75SLPC  H12B 6668   1.987   4.517   6.410  1.3376 -0.2953  1.1611
   75SLPC   C11 6669   1.922   4.523   6.612  0.6264 -0.1090  0.1787
   75SLPC  H11A 6670   1.878   4.462   6.693  3.2540 -3.3706 -0.5996
   75SLPC  H11B 6671   1.858   4.612   6.594 -1.9447 -1.9035 -0.1058
   75SLPC     P 6672   2.117   4.555   6.799 -0.3133 -0.1210 -0.1059
   75SLPC   O13 6673   2.214   4.444   6.783 -0.1865 -0.6824 -0.3801
   75SLPC   O14 6674   2.167   4.687   6.830  0.0129  0.2867 -0.0747
   75SLPC   O12 6675   2.047   4.578   6.655 -0.5194  0.3926  0.0436
   75SLPC   O11 6676   1.992   4.518   6.892  0.0624  0.3604 -0.0847
   75SLPC    C1 6677   1.920   4.630   6.957 -0.7572  1.0892 -0.3120
   75SLPC    HA 6678   1.990   4.683   7.026  0.2330  0.9660 -1.1965
   75SLPC    HB 6679   1.880   4.696   6.877 -1.1676  0.8587 -0.3015
   75SLPC    C2 6680   1.800   4.568   7.036  0.0306  0.4429 -0.3398
   75SLPC    HS 6681   1.714   4.639   7.039  0.5181  1.1258 -1.5926
   75SLPC   O21 6682   1.859   4.530   7.162  0.6590  0.0335 -0.0625
   75SLPC   C21 6683   1.776   4.515   7.266 -0.2809  0.0789 -0.0229
   75SLPC   O22 6684   1.660   4.542   7.272  0.1257  0.3577  1.3645
   75SLPC   C22 6685   1.858   4.446   7.385 -0.3660  0.3946 -0.0129
   75SLPC   H2R 6686   1.879   4.344   7.346  1.2383  0.3656  0.8448
   75SLPC   H2S 6687   1.954   4.499   7.405 -0.2495 -0.2165  1.0598
   75SLPC    C3 6688   1.737   4.439   6.960 -0.5615 -0.0546  0.2857
   75SLPC    HX 6689   1.814   4.364   6.934  0.6512  1.7153 -1.5629
   75SLPC    HY 6690   1.714   4.489   6.863  2.2180  1.3011  0.2214
   75SLPC   O31 6691   1.623   4.376   7.020 -0.0725  0.0117  0.3682
   75SLPC   C31 6692   1.652   4.269   7.094  0.6313 -0.2508 -0.9495
   75SLPC   O32 6693   1.764   4.237   7.130  0.0938 -0.3629  0.6429
   75SLPC   C32 6694   1.523   4.190   7.115  0.1056 -0.1254  0.1730
   75SLPC   H2X 6695   1.532   4.089   7.071  0.6517  0.4299 -1.0173
   75SLPC   H2Y 6696   1.436   4.249   7.078 -0.8336 -0.8720  1.1036
   75SLPC   C23 6697   1.780   4.451   7.524 -0.1559  0.4227 -0.2064
   75SLPC   H3R 6698   1.675   4.417   7.512 -0.4810  1.1694  0.4268
   75SLPC   H3S 6699   1.774   4.551   7.571  1.8980 -0.0973  1.3097
   75SLPC   C24 6700   1.846   4.359   7.628  0.3965  0.0360  0.1626
   75SLPC   H4R 6701   1.952   4.393   7.633  0.0651  1.3717 -1.0121
   75SLPC   H4S 6702   1.845   4.254   7.593 -0.4729  0.0185  0.2112
   75SLPC   C25 6703   1.768   4.361   7.764 -0.0189 -0.0495 -0.1945
   75SLPC   H5R 6704   1.673   4.303   7.767  0.0779 -0.2551 -0.9120
   75SLPC   H5S 6705   1.751   4.469   7.786 -0.1942  0.1852 -1.3990
   75SLPC   C26 6706   1.846   4.295   7.880 -0.0148  0.3431 -0.8466
   75SLPC   H6R 6707   1.921   4.370   7.915  0.4796 -0.0303 -1.0957
   75SLPC   H6S 6708   1.903   4.206   7.844  1.3933  1.0032 -0.3223
   75SLPC   C27 6709   1.759   4.265   8.006  0.7105  0.5855  0.2743
   75SLPC   H7R 6710   1.673   4.199   7.983  0.7174  0.6935 -0.0612
   75SLPC   H7S 6711   1.720   4.364   8.038 -0.3076  1.1137 -2.3272
   75SLPC   C28 6712   1.840   4.187   8.117  0.5361 -0.4756  0.4392
   75SLPC   H8R 6713   1.892   4.105   8.062 -3.1054 -1.4318 -1.9033
   75SLPC   H8S 6714   1.768   4.134   8.182 -1.4798 -0.6407 -1.7984
   75SLPC   C29 6715   1.927   4.286   8.184 -0.3615 -0.8057  0.1647
   75SLPC   H9R 6716   1.999   4.341   8.121  1.5992 -1.6484  1.5787
   75SLPC  C210 6717   1.933   4.322   8.317  0.4691 -0.1914 -0.2417
   75SLPC  H10R 6718   2.023   4.375   8.349  0.6085 -0.5938  0.0412
   75SLPC  C211 6719   1.851   4.272   8.431  0.5954  0.4996 -0.1564
   75SLPC  H11R 6720   1.893   4.188   8.491  1.4328  0.8248 -0.2681
   75SLPC  H11S 6721   1.752   4.235   8.397  0.7662 -0.1712  0.0643
   75SLPC  C212 6722   1.806   4.373   8.532 -0.1178 -0.0379 -0.2474
   75SLPC  H12R 6723   1.766   4.466   8.487  0.3624  0.4565  0.3259
   75SLPC  C213 6724   1.825   4.365   8.669  0.1185 -0.2998  0.3383
   75SLPC  H13R 6725   1.790   4.446   8.735 -2.2036 -0.6608 -0.3789
   75SLPC  C214 6726   1.885   4.254   8.749  0.2873  0.0419 -0.1740
   75SLPC  H14R 6727   1.884   4.288   8.855  0.3077 -2.5302  0.7282
   75SLPC  H14S 6728   1.987   4.227   8.715  0.5538  1.2250 -0.3234
   75SLPC  C215 6729   1.799   4.127   8.744  0.3620  0.4997  0.1648
   75SLPC  H15R 6730   1.788   4.092   8.639 -0.5696  2.5304 -0.4582
   75SLPC  H15S 6731   1.691   4.140   8.767 -0.1571 -2.3295 -0.2340
   75SLPC  C216 6732   1.842   4.019   8.840  0.0176 -1.0610 -0.3250
   75SLPC  H16R 6733   1.813   4.050   8.942 -0.2537 -0.0270 -0.6989
   75SLPC  H16S 6734   1.952   4.006   8.844  0.1158 -0.6725 -1.3241
   75SLPC  C217 6735   1.775   3.883   8.814 -0.1954 -0.0256  0.2004
   75SLPC  H17R 6736   1.786   3.864   8.705 -0.1150  1.1470 -0.0077
   75SLPC  H17S 6737   1.667   3.886   8.840 -0.3271  1.7501 -0.4658
   75SLPC  C218 6738   1.845   3.763   8.885  0.8084  0.5652 -0.7870
   75SLPC  H18R 6739   1.814   3.768   8.992  0.1780 -0.8714 -0.8724
   75SLPC  H18S 6740   1.955   3.766   8.870  0.9145 -1.2471 -0.5816
   75SLPC  H18T 6741   1.804   3.665   8.853 -0.7295  0.9225 -0.0449
   75SLPC   C33 6742   1.505   4.182   7.266 -0.3842 -0.7793 -0.1860
   75SLPC   H3X 6743   1.550   4.269   7.319 -0.0717 -1.8163  1.3100
   75SLPC   H3Y 6744   1.401   4.173   7.303 -0.0574  0.2114  1.0217
   75SLPC   C34 6745   1.580   4.061   7.333 -0.0873 -1.1142  0.1335
   75SLPC   H4X 6746   1.684   4.073   7.296 -0.9145  0.1942 -1.9220
   75SLPC   H4Y 6747   1.532   3.969   7.292 -2.4784 -0.4064  1.1485
   75SLPC   C35 6748   1.580   4.076   7.491  0.4922  0.2283  0.2228
   75SLPC   H5X 6749   1.481   4.108   7.532 -0.4932  0.3614 -2.0977
   75SLPC   H5Y 6750   1.647   4.162   7.508 -1.2710  1.4998  1.0910
   75SLPC   C36 6751   1.637   3.950   7.553 -0.0169 -0.0365  0.3696
   75SLPC   H6X 6752   1.683   3.977   7.650 -2.2005  1.3693  1.0803
   75SLPC   H6Y 6753   1.719   3.908   7.491  0.1425  1.5562 -0.5437
   75SLPC   C37 6754   1.532   3.850   7.590 -0.4728  0.0644 -0.7485
   75SLPC   H7X 6755   1.491   3.793   7.504 -1.0574  2.4808 -2.1795
   75SLPC   H7Y 6756   1.446   3.900   7.641 -0.7725 -0.4570 -0.7290
   75SLPC   C38 6757   1.602   3.755   7.700 -0.7107  0.5541 -0.1543
   75SLPC   H8X 6758   1.653   3.825   7.771  1.0218  1.3689 -2.0810
   75SLPC   H8Y 6759   1.692   3.718   7.647 -1.7724  0.5831 -2.0395
   75SLPC   C39 6760   1.519   3.656   7.782  0.4881  0.3892 -0.2579
   75SLPC   H9X 6761   1.508   3.560   7.727  0.7118  0.5978 -0.6683
   75SLPC   H9Y 6762   1.415   3.690   7.802  0.0528 -1.6794  1.3520
   75SLPC  C310 6763   1.571   3.620   7.920  0.4324 -0.6605  0.2787
   75SLPC  H10X 6764   1.499   3.556   7.974  1.3340  1.0799  3.8765
   75SLPC  H10Y 6765   1.573   3.715   7.978 -0.2284 -1.1428  1.1006
   75SLPC  C311 6766   1.711   3.569   7.915 -0.3552 -0.1834  0.4517
   75SLPC  H11X 6767   1.780   3.655   7.900 -3.0604  2.1905  0.8634
   75SLPC  H11Y 6768   1.721   3.504   7.825 -0.0321  0.6016 -0.0935
   75SLPC  C312 6769   1.760   3.495   8.044 -0.0723 -0.5765  0.2838
   75SLPC  H12X 6770   1.749   3.561   8.133 -2.3519 -0.3273 -0.1212
   75SLPC  H12Y 6771   1.868   3.470   8.046  0.2294  0.7339  1.0269
   75SLPC  C313 6772   1.675   3.372   8.094  0.1865 -0.1371  0.3708
   75SLPC  H13X 6773   1.685   3.299   8.012 -0.7931  1.0193 -0.8170
   75SLPC  H13Y 6774   1.566   3.395   8.093  0.6261  2.1566 -0.5654
   75SLPC  C314 6775   1.721   3.308   8.224  0.3064 -0.1208  0.5129
   75SLPC  H14X 6776   1.694   3.373   8.310  1.9367  2.5785 -0.8759
   75SLPC  H14Y 6777   1.831   3.316   8.213  0.1830  1.6571  0.2708
   75SLPC  C315 6778   1.680   3.157   8.250 -0.7082 -0.0800 -0.0075
   75SLPC  H15X 6779   1.570   3.164   8.260 -0.4298  2.1546  2.8745
   75SLPC  H15Y 6780   1.714   3.130   8.353 -1.9569 -0.5853  0.2914
   75SLPC  C316 6781   1.731   3.053   8.151  0.2453 -0.1287  0.2475
   75SLPC  H16X 6782   1.842   3.060   8.150  0.2253  0.1895 -0.4028
   75SLPC  H16Y 6783   1.697   3.063   8.045 -3.1901 -3.0296  0.8461
   75SLPC  C317 6784   1.698   2.913   8.208  0.8406 -0.2237  0.0890
   75SLPC  H17X 6785   1.587   2.906   8.214  0.9375 -2.5322 -0.0892
   75SLPC  H17Y 6786   1.733   2.914   8.314  0.0423  0.6303  0.3682
   75SLPC  C318 6787   1.745   2.795   8.127 -0.2954  0.2310 -0.8049
   75SLPC  H18X 6788   1.692   2.700   8.151 -1.0371  1.1204  1.2716
   75SLPC  H18Y 6789   1.856   2.786   8.121 -0.4503 -1.3768 -1.8974
   75SLPC  H18Z 6790   1.714   2.825   8.025 -3.4542  2.5950  0.6746
   76SLPC     N 6791   3.496   1.838   6.186  0.1686 -0.1698  0.4007
   76SLPC   C13 6792   3.372   1.834   6.104  0.1422 -0.1707 -0.7517
   76SLPC  H13A 6793   3.287   1.791   6.156  0.5756  0.6384  0.6916
   76SLPC  H13B 6794   3.339   1.935   6.082 -0.5061 -0.5305 -1.4860
   76SLPC  H13C 6795   3.380   1.782   6.010 -1.4887 -1.1631 -0.3911
   76SLPC   C14 6796   3.477   1.935   6.293 -1.0538 -0.3571  0.8700
   76SLPC  H14A 6797   3.394   1.913   6.359 -0.1005 -0.7124  2.0012
   76SLPC  H14B 6798   3.567   1.939   6.353  0.1157 -1.9313 -0.6656
   76SLPC  H14C 6799   3.451   2.032   6.256  1.5895 -0.6175 -2.0813
   76SLPC   C15 6800   3.614   1.874   6.095  0.3044  0.2849  0.0178
   76SLPC  H15A 6801   3.592   1.970   6.049  0.5689 -0.0453 -0.8178
   76SLPC  H15B 6802   3.709   1.884   6.145 -0.1727  2.3255  0.6358
   76SLPC  H15C 6803   3.624   1.803   6.014  0.9142  2.8948 -2.3728
   76SLPC   C12 6804   3.519   1.706   6.252  0.4136  0.0682 -0.7524
   76SLPC  H12A 6805   3.612   1.703   6.306 -0.4348  2.7653  1.0438
   76SLPC  H12B 6806   3.519   1.630   6.175  0.4326 -0.6885 -0.0152
   76SLPC   C11 6807   3.399   1.660   6.346 -0.0632  0.4534  0.0878
   76SLPC  H11A 6808   3.311   1.726   6.331 -0.7802 -0.9753 -2.5262
   76SLPC  H11B 6809   3.429   1.669   6.453 -0.9569 -0.2508  0.4088
   76SLPC     P 6810   3.467   1.406   6.346 -0.3109  0.0342  0.3554
   76SLPC   O13 6811   3.467   1.327   6.219  0.0197 -0.4481 -0.2238
   76SLPC   O14 6812   3.596   1.449   6.408  0.1616  0.6435  0.4501
   76SLPC   O12 6813   3.368   1.523   6.328 -0.2920  0.5389  0.7330
   76SLPC   O11 6814   3.396   1.310   6.447  0.4052 -0.0750  0.0600
   76SLPC    C1 6815   3.328   1.357   6.562 -0.0552 -0.5992  0.2681
   76SLPC    HA 6816   3.272   1.452   6.549  0.6000 -0.0983  1.0060
   76SLPC    HB 6817   3.250   1.283   6.592 -0.4295 -0.3525 -0.0892
   76SLPC    C2 6818   3.423   1.383   6.684 -0.2590 -0.5820  0.7237
   76SLPC    HS 6819   3.474   1.477   6.654 -2.4380  0.1912 -0.8311
   76SLPC   O21 6820   3.503   1.263   6.697 -0.3876 -0.3188  0.1642
   76SLPC   C21 6821   3.620   1.292   6.757  0.4952 -0.7378  0.7882
   76SLPC   O22 6822   3.656   1.407   6.787 -0.1222 -0.0448  0.0330
   76SLPC   C22 6823   3.698   1.169   6.789 -0.0134 -0.1384  0.7105
   76SLPC   H2R 6824   3.620   1.093   6.812  0.8908 -0.5298  2.7709
   76SLPC   H2S 6825   3.765   1.145   6.704  1.8109 -1.6720  2.4497
   76SLPC    C3 6826   3.339   1.414   6.809  0.0491  0.0140  0.3881
   76SLPC    HX 6827   3.256   1.343   6.825 -0.2798  0.2611 -0.1880
   76SLPC    HY 6828   3.282   1.508   6.789 -0.0595  0.0261  0.7446
   76SLPC   O31 6829   3.421   1.410   6.931  0.9147  0.6302  0.4991
   76SLPC   C31 6830   3.458   1.529   6.965 -0.4662 -0.7571  0.3376
   76SLPC   O32 6831   3.454   1.631   6.899  0.3484 -0.4187  0.5494
   76SLPC   C32 6832   3.512   1.523   7.112  0.9537  0.8991 -0.2335
   76SLPC   H2X 6833   3.594   1.449   7.118 -0.7740 -0.9649  1.7910
   76SLPC   H2Y 6834   3.438   1.476   7.179  3.5239  0.6307  2.6258
   76SLPC   C23 6835   3.779   1.169   6.915 -0.2809 -1.1878  0.3136
   76SLPC   H3R 6836   3.844   1.259   6.926 -1.2502 -0.4819  0.4141
   76SLPC   H3S 6837   3.846   1.081   6.916  2.1726  0.5477 -0.6792
   76SLPC   C24 6838   3.694   1.168   7.046 -0.4789 -0.0613  0.0058
   76SLPC   H4R 6839   3.633   1.076   7.058  2.2180 -1.9217  0.5184
   76SLPC   H4S 6840   3.608   1.238   7.041 -1.3536 -1.2032 -1.8953
   76SLPC   C25 6841   3.778   1.155   7.174  0.0672 -0.5453 -0.3617
   76SLPC   H5R 6842   3.860   1.230   7.164  0.6191 -1.0545  0.2095
   76SLPC   H5S 6843   3.828   1.056   7.169  1.4799  0.0294  1.1444
   76SLPC   C26 6844   3.710   1.166   7.310 -0.7537 -0.1349 -0.4872
   76SLPC   H6R 6845   3.649   1.074   7.324  0.6040 -1.0745 -0.5576
   76SLPC   H6S 6846   3.639   1.251   7.302  1.6495  2.0680  0.2744
   76SLPC   C27 6847   3.820   1.171   7.416 -0.4279  0.0748  0.0254
   76SLPC   H7R 6848   3.899   1.249   7.407  1.8015 -1.7957  1.9777
   76SLPC   H7S 6849   3.882   1.078   7.414 -0.6665 -0.0763 -1.8619
   76SLPC   C28 6850   3.761   1.170   7.559 -0.0285 -0.4620 -0.5012
   76SLPC   H8R 6851   3.669   1.233   7.559 -0.6699 -1.3411 -2.1296
   76SLPC   H8S 6852   3.720   1.067   7.573 -0.4402 -0.2293  0.0351
   76SLPC   C29 6853   3.853   1.208   7.670 -0.4922  0.1785  0.1445
   76SLPC   H9R 6854   3.939   1.264   7.631 -2.2665  2.3015 -0.9150
   76SLPC  C210 6855   3.829   1.187   7.803 -0.1369  0.4014 -0.0656
   76SLPC  H10R 6856   3.909   1.214   7.874 -1.7617  0.3993  1.8274
   76SLPC  C211 6857   3.706   1.126   7.873 -0.3277  0.2351  0.1278
   76SLPC  H11R 6858   3.750   1.028   7.902  3.4678  0.7528 -3.1024
   76SLPC  H11S 6859   3.622   1.107   7.803  0.3275 -2.6055 -0.0126
   76SLPC  C212 6860   3.660   1.211   7.988  0.6150  0.0786  0.6652
   76SLPC  H12R 6861   3.592   1.291   7.956  1.9639  0.9108 -0.1883
   76SLPC  C213 6862   3.702   1.204   8.117  0.5505 -0.1086  0.1317
   76SLPC  H13R 6863   3.653   1.267   8.193 -0.6261 -0.0894 -0.6196
   76SLPC  C214 6864   3.807   1.114   8.171  0.4272  0.8024  0.2961
   76SLPC  H14R 6865   3.891   1.135   8.102  0.9073 -0.4348  0.4842
   76SLPC  H14S 6866   3.793   1.006   8.152  0.9901  0.6385  0.8091
   76SLPC  C215 6867   3.838   1.124   8.318  0.2577 -0.3288  0.1885
   76SLPC  H15R 6868   3.931   1.065   8.330  0.6240 -0.6035 -3.1202
   76SLPC  H15S 6869   3.759   1.094   8.391 -0.3069 -0.2598 -0.3833
   76SLPC  C216 6870   3.881   1.266   8.351 -0.0911  0.4393 -0.8567
   76SLPC  H16R 6871   3.798   1.339   8.341  0.6725  1.7105  1.3459
   76SLPC  H16S 6872   3.970   1.286   8.288  0.2674 -2.5821 -1.4597
   76SLPC  C217 6873   3.919   1.270   8.495 -0.1484  0.6639 -0.5106
   76SLPC  H17R 6874   3.983   1.181   8.517 -0.1571  0.2618 -2.0037
   76SLPC  H17S 6875   3.835   1.243   8.562 -0.8180  1.3678 -1.0520
   76SLPC  C218 6876   3.991   1.396   8.530  0.6009 -0.1447  0.0107
   76SLPC  H18R 6877   4.074   1.410   8.457 -0.6645  2.1459 -1.0902
   76SLPC  H18S 6878   4.031   1.397   8.633  0.0036 -1.5080  0.2841
   76SLPC  H18T 6879   3.917   1.478   8.529  1.1198  0.4306  2.3384
   76SLPC   C33 6880   3.553   1.655   7.168  0.6178  0.2736  0.4260
   76SLPC   H3X 6881   3.463   1.721   7.172 -1.0047 -1.5486 -2.3464
   76SLPC   H3Y 6882   3.618   1.713   7.099 -1.4193  1.3929 -0.6606
   76SLPC   C34 6883   3.605   1.648   7.314  0.0401 -0.5579 -0.1887
   76SLPC   H4X 6884   3.529   1.590   7.370 -0.0610 -1.1542 -0.9348
   76SLPC   H4Y 6885   3.618   1.749   7.360  0.7173 -0.2727 -0.9705
   76SLPC   C35 6886   3.742   1.583   7.326  0.2701  0.6171 -0.0937
   76SLPC   H5X 6887   3.827   1.652   7.305 -0.2591  1.8611  1.6299
   76SLPC   H5Y 6888   3.744   1.500   7.253 -1.1027  0.1728  0.3526
   76SLPC   C36 6889   3.758   1.520   7.463  0.4608 -0.9968  0.2810
   76SLPC   H6X 6890   3.844   1.450   7.462  0.5264 -0.9142 -0.3159
   76SLPC   H6Y 6891   3.660   1.470   7.481 -0.4742  0.8068  0.4491
   76SLPC   C37 6892   3.757   1.625   7.574 -0.0495 -0.7979  0.6760
   76SLPC   H7X 6893   3.654   1.665   7.580 -0.5002 -1.9477  0.7902
   76SLPC   H7Y 6894   3.821   1.713   7.549 -0.6385 -0.2552  1.0651
   76SLPC   C38 6895   3.799   1.582   7.728  0.0470  0.3393  0.1678
   76SLPC   H8X 6896   3.905   1.602   7.753  0.1194  0.3905 -0.1771
   76SLPC   H8Y 6897   3.784   1.472   7.735 -0.0175  0.3930  0.8858
   76SLPC   C39 6898   3.702   1.643   7.827 -0.0001  0.1388 -0.5298
   76SLPC   H9X 6899   3.604   1.598   7.802  0.5654 -0.2230 -2.2076
   76SLPC   H9Y 6900   3.707   1.752   7.809  1.1608  0.1910 -0.0134
   76SLPC  C310 6901   3.742   1.611   7.969 -0.4568 -0.5834  0.1603
   76SLPC  H10X 6902   3.839   1.663   7.988 -2.8233  3.1823  3.2590
   76SLPC  H10Y 6903   3.751   1.505   7.999  2.9269 -0.2077  0.9558
   76SLPC  C311 6904   3.654   1.680   8.071 -0.0648 -0.4294  0.2845
   76SLPC  H11X 6905   3.555   1.630   8.078 -0.0879 -1.5409 -4.5190
   76SLPC  H11Y 6906   3.633   1.785   8.042 -0.0672 -0.0570  1.5796
   76SLPC  C312 6907   3.718   1.672   8.214  0.1524  0.3784  0.1356
   76SLPC  H12X 6908   3.806   1.739   8.216  3.0100 -3.0477 -1.1894
   76SLPC  H12Y 6909   3.760   1.573   8.239  2.2159  1.1555 -0.0538
   76SLPC  C313 6910   3.617   1.708   8.322  0.1106  0.3120  0.2478
   76SLPC  H13X 6911   3.536   1.633   8.311 -1.3941  1.4025  2.8159
   76SLPC  H13Y 6912   3.584   1.813   8.304 -0.4895  0.0196 -0.4266
   76SLPC  C314 6913   3.665   1.691   8.466 -0.0997 -0.6655  0.1131
   76SLPC  H14X 6914   3.762   1.745   8.467 -0.7811  0.6207  1.9136
   76SLPC  H14Y 6915   3.694   1.584   8.481  1.0813 -0.2965  0.6181
   76SLPC  C315 6916   3.572   1.743   8.582  1.0678 -0.6210  0.3530
   76SLPC  H15X 6917   3.565   1.854   8.585 -0.3637 -0.7023  0.5114
   76SLPC  H15Y 6918   3.628   1.716   8.674 -0.5061 -1.7716  1.0008
   76SLPC  C316 6919   3.429   1.680   8.589 -0.3985  0.2943  0.1593
   76SLPC  H16X 6920   3.449   1.571   8.583 -1.9920 -0.0397  0.4056
   76SLPC  H16Y 6921   3.367   1.713   8.503 -1.9318 -1.1241  0.6755
   76SLPC  C317 6922   3.350   1.701   8.721 -0.4327  0.1510  0.0635
   76SLPC  H17X 6923   3.365   1.804   8.759 -0.3576 -0.1418  0.8445
   76SLPC  H17Y 6924   3.403   1.639   8.796 -2.0263  0.6689  1.7126
   76SLPC  C318 6925   3.203   1.666   8.722 -0.0324 -0.3514  0.1262
   76SLPC  H18X 6926   3.155   1.685   8.624 -0.3978  0.4103  0.4458
   76SLPC  H18Y 6927   3.141   1.700   8.808  1.3607  1.5867  0.4360
   76SLPC  H18Z 6928   3.201   1.555   8.720  0.2715 -0.3465 -0.7685
   77SLPC     N 6929   5.793   1.714   6.316  0.2711 -0.3326 -0.6117
   77SLPC   C13 6930   5.839   1.807   6.205 -0.9895 -0.3605 -0.6177
   77SLPC  H13A 6931   5.893   1.889   6.252 -2.3813 -0.5650  1.4585
   77SLPC  H13B 6932   5.903   1.746   6.144 -0.1141 -0.5530  0.4490
   77SLPC  H13C 6933   5.755   1.836   6.144 -1.4537 -1.3752 -0.4794
   77SLPC   C14 6934   5.905   1.659   6.392 -0.4719 -0.0156 -0.3683
   77SLPC  H14A 6935   5.868   1.581   6.458  1.3995  0.2647  1.0895
   77SLPC  H14B 6936   5.978   1.611   6.328 -1.5470  2.3581 -3.6266
   77SLPC  H14C 6937   5.960   1.735   6.445 -1.1181  0.2516 -0.0637
   77SLPC   C15 6938   5.724   1.608   6.255  0.8133 -0.5725 -0.1627
   77SLPC  H15A 6939   5.705   1.525   6.322 -1.2909  0.2383  0.3121
   77SLPC  H15B 6940   5.630   1.641   6.213  0.2466 -1.1707  0.5900
   77SLPC  H15C 6941   5.783   1.562   6.177  3.7077  1.2433  0.7982
   77SLPC   C12 6942   5.697   1.783   6.408 -0.1290 -0.1047  0.4623
   77SLPC  H12A 6943   5.619   1.825   6.346  0.6141  0.7616  0.1064
   77SLPC  H12B 6944   5.751   1.861   6.459 -0.0210  1.0337 -1.3284
   77SLPC   C11 6945   5.628   1.697   6.515 -0.0348  0.0884 -0.3383
   77SLPC  H11A 6946   5.580   1.758   6.594 -0.6495  3.0324 -2.7882
   77SLPC  H11B 6947   5.699   1.630   6.568 -0.2086 -0.6560 -1.0324
   77SLPC     P 6948   5.371   1.664   6.462  0.0125  0.1603  0.2535
   77SLPC   O13 6949   5.342   1.774   6.365 -0.7935  0.4792  0.5806
   77SLPC   O14 6950   5.296   1.539   6.444 -0.0615 -0.4383  0.2902
   77SLPC   O12 6951   5.519   1.617   6.458 -0.2368 -0.1528  0.2279
   77SLPC   O11 6952   5.348   1.725   6.608  0.1204 -0.0901  0.5474
   77SLPC    C1 6953   5.263   1.664   6.705  0.2414 -0.5235 -0.2404
   77SLPC    HA 6954   5.156   1.663   6.672  0.7951  1.6306 -2.4175
   77SLPC    HB 6955   5.300   1.561   6.721 -0.3764 -0.8096 -0.5854
   77SLPC    C2 6956   5.263   1.740   6.836  0.4133  0.0695 -0.1332
   77SLPC    HS 6957   5.244   1.663   6.915  3.4513 -0.0139  0.6484
   77SLPC   O21 6958   5.165   1.845   6.833  0.4158 -0.3782  0.0242
   77SLPC   C21 6959   5.042   1.826   6.897 -0.4793 -0.0457 -0.3770
   77SLPC   O22 6960   5.006   1.734   6.969 -0.2889 -0.1146 -0.2431
   77SLPC   C22 6961   4.947   1.934   6.859 -0.1738  0.2366 -0.3838
   77SLPC   H2R 6962   4.950   1.952   6.750 -0.5372  0.9086 -0.2919
   77SLPC   H2S 6963   4.849   1.921   6.910  0.4335 -2.3558  0.2718
   77SLPC    C3 6964   5.405   1.794   6.866 -0.1907 -0.9077 -0.0674
   77SLPC    HX 6965   5.426   1.894   6.824 -0.6597 -0.8510 -0.1671
   77SLPC    HY 6966   5.490   1.734   6.827  0.4899 -0.5326  0.7912
   77SLPC   O31 6967   5.426   1.795   7.010 -0.5978 -0.1322  0.6199
   77SLPC   C31 6968   5.387   1.900   7.068  0.3609 -0.4480 -0.4027
   77SLPC   O32 6969   5.327   1.994   7.016  0.6902 -0.1039  0.1952
   77SLPC   C32 6970   5.414   1.895   7.215  0.4733  0.0468  0.5531
   77SLPC   H2X 6971   5.403   1.790   7.252 -1.7692 -0.6041 -1.7463
   77SLPC   H2Y 6972   5.333   1.955   7.261  0.2749 -0.1836  0.5087
   77SLPC   C23 6973   4.988   2.070   6.918  0.2429  0.0705 -0.0920
   77SLPC   H3R 6974   4.946   2.160   6.870  0.6426  0.2389 -0.1262
   77SLPC   H3S 6975   5.098   2.081   6.923  0.1916  0.7230 -0.4114
   77SLPC   C24 6976   4.951   2.077   7.075  0.3251  0.0687  0.2343
   77SLPC   H4R 6977   4.992   1.993   7.135  1.7316 -0.3999 -1.3049
   77SLPC   H4S 6978   4.841   2.065   7.071  0.1986  1.3511 -2.6746
   77SLPC   C25 6979   4.983   2.213   7.137 -0.0300  0.8730 -0.1484
   77SLPC   H5R 6980   4.949   2.294   7.069 -1.1179 -0.4333 -1.2191
   77SLPC   H5S 6981   5.092   2.219   7.156  0.0296 -0.2297 -0.0524
   77SLPC   C26 6982   4.909   2.229   7.270  0.3005  0.0655 -0.0333
   77SLPC   H6R 6983   4.956   2.314   7.324  1.2992  0.0901 -0.8916
   77SLPC   H6S 6984   4.936   2.139   7.329 -0.0711 -0.0843 -0.0881
   77SLPC   C27 6985   4.759   2.242   7.270  0.2345 -0.2975 -0.3739
   77SLPC   H7R 6986   4.724   2.141   7.240 -1.4968  0.6604 -1.7611
   77SLPC   H7S 6987   4.746   2.325   7.198  2.5977 -0.1254 -0.6941
   77SLPC   C28 6988   4.698   2.258   7.410 -0.6059  0.4788 -0.4974
   77SLPC   H8R 6989   4.588   2.276   7.410 -0.7320  0.1224  1.8476
   77SLPC   H8S 6990   4.741   2.356   7.441  0.2246 -0.2926  0.8929
   77SLPC   C29 6991   4.725   2.145   7.506  0.2520 -0.1508 -0.7369
   77SLPC   H9R 6992   4.665   2.052   7.498  0.7789 -0.4779 -0.9118
   77SLPC  C210 6993   4.821   2.148   7.602 -0.6341  0.1372  0.1290
   77SLPC  H10R 6994   4.829   2.059   7.667  0.0173 -0.5735 -0.8968
   77SLPC  C211 6995   4.916   2.264   7.638  0.1693  0.1140  0.8069
   77SLPC  H11R 6996   4.857   2.358   7.629  0.5438  0.2943  0.1792
   77SLPC  H11S 6997   4.995   2.257   7.561  0.3444 -1.1731  1.0847
   77SLPC  C212 6998   4.969   2.244   7.781 -0.1183 -0.6575 -0.3054
   77SLPC  H12R 6999   5.060   2.185   7.801  2.1058  2.6952  0.3129
   77SLPC  C213 7000   4.925   2.307   7.899 -0.3743 -0.2184  0.3254
   77SLPC  H13R 7001   4.960   2.267   7.995  0.1615  0.1267  0.2811
   77SLPC  C214 7002   4.802   2.402   7.913 -1.1855  0.2529  0.1417
   77SLPC  H14R 7003   4.755   2.416   7.814  2.0657 -1.1993 -1.7673
   77SLPC  H14S 7004   4.843   2.499   7.949 -1.1466 -0.1156  1.1126
   77SLPC  C215 7005   4.693   2.350   8.005 -0.3996  0.9808 -0.2021
   77SLPC  H15R 7006   4.677   2.244   7.977 -2.0662  0.8595  0.9976
   77SLPC  H15S 7007   4.601   2.404   7.974 -1.3512 -1.0586 -1.0734
   77SLPC  C216 7008   4.725   2.352   8.153 -0.1290 -0.3656 -1.2413
   77SLPC  H16R 7009   4.769   2.451   8.180 -2.9901  0.3288  1.4573
   77SLPC  H16S 7010   4.807   2.279   8.165  1.0923  0.8910 -1.6328
   77SLPC  C217 7011   4.613   2.321   8.251 -0.0337 -0.7302  0.5763
   77SLPC  H17R 7012   4.581   2.215   8.242 -0.8720 -0.4982  0.8243
   77SLPC  H17S 7013   4.525   2.386   8.234  0.9113  0.0568 -1.7712
   77SLPC  C218 7014   4.662   2.342   8.402  0.0814  0.1845 -0.5763
   77SLPC  H18R 7015   4.763   2.296   8.403  0.7523  1.5273 -2.2575
   77SLPC  H18S 7016   4.581   2.301   8.466 -1.6288  2.4095 -1.2168
   77SLPC  H18T 7017   4.675   2.449   8.428 -1.1433  0.2499 -0.1710
   77SLPC   C33 7018   5.561   1.947   7.242 -0.3411 -0.4911  0.0055
   77SLPC   H3X 7019   5.576   2.054   7.215 -1.4508 -0.9058 -2.5494
   77SLPC   H3Y 7020   5.632   1.878   7.192 -1.0218 -0.4113 -1.1157
   77SLPC   C34 7021   5.603   1.946   7.391  0.4921  0.1983 -0.4508
   77SLPC   H4X 7022   5.531   2.016   7.439  0.0582 -0.5005 -0.0818
   77SLPC   H4Y 7023   5.709   1.974   7.409 -0.5512  4.2271  0.4582
   77SLPC   C35 7024   5.584   1.812   7.457  0.4706 -0.3814  0.1191
   77SLPC   H5X 7025   5.627   1.725   7.403 -2.5175 -0.3238 -2.6573
   77SLPC   H5Y 7026   5.477   1.797   7.483  0.8613 -0.7537  1.6074
   77SLPC   C36 7027   5.655   1.824   7.594  0.5198  0.7862  0.1487
   77SLPC   H6X 7028   5.642   1.929   7.628  1.6320  1.0175 -0.0934
   77SLPC   H6Y 7029   5.761   1.792   7.580  0.7201  2.2240 -2.1575
   77SLPC   C37 7030   5.598   1.733   7.702 -0.1421  0.0070 -0.2569
   77SLPC   H7X 7031   5.580   1.634   7.657 -1.9387 -0.1387  0.6930
   77SLPC   H7Y 7032   5.494   1.770   7.716 -0.4876 -1.3118  0.8759
   77SLPC   C38 7033   5.678   1.731   7.836 -0.7718  0.3084 -0.6470
   77SLPC   H8X 7034   5.661   1.830   7.882 -1.2970  0.9379 -2.1345
   77SLPC   H8Y 7035   5.785   1.708   7.817 -0.5540 -0.1962  0.9977
   77SLPC   C39 7036   5.633   1.619   7.942 -0.2711  0.0415 -0.0648
   77SLPC   H9X 7037   5.689   1.529   7.908 -3.0417 -1.0925 -1.9340
   77SLPC   H9Y 7038   5.526   1.592   7.931 -1.4676  3.8419  0.7146
   77SLPC  C310 7039   5.639   1.657   8.091  0.1041 -0.6756  0.2274
   77SLPC  H10X 7040   5.573   1.581   8.138  0.6948 -1.9633 -0.9870
   77SLPC  H10Y 7041   5.608   1.764   8.097  1.3689 -0.0795 -2.5951
   77SLPC  C311 7042   5.783   1.634   8.147  0.4804  0.2240  0.2227
   77SLPC  H11X 7043   5.847   1.704   8.088 -0.5607  0.6646 -0.4095
   77SLPC  H11Y 7044   5.819   1.530   8.135  0.7058 -0.0495  2.8429
   77SLPC  C312 7045   5.793   1.670   8.292  0.4917 -0.7286 -0.3304
   77SLPC  H12X 7046   5.728   1.604   8.352  0.5809 -0.0861  0.4909
   77SLPC  H12Y 7047   5.751   1.772   8.309  0.5501 -0.6011 -0.9189
   77SLPC  C313 7048   5.938   1.656   8.350 -0.7281 -0.0898 -0.4449
   77SLPC  H13X 7049   6.014   1.687   8.275  0.7560  0.9599  1.4044
   77SLPC  H13Y 7050   5.970   1.550   8.366  0.8831  0.5473  0.8549
   77SLPC  C314 7051   5.975   1.743   8.476 -0.0527  0.8193  0.5015
   77SLPC  H14X 7052   5.912   1.716   8.563  0.4261  0.4161  0.7283
   77SLPC  H14Y 7053   5.952   1.851   8.461 -2.1939  0.3001 -0.3890
   77SLPC  C315 7054   6.130   1.743   8.498  0.4855  0.0849 -0.0735
   77SLPC  H15X 7055   6.169   1.781   8.401 -1.3767  0.7945 -0.5821
   77SLPC  H15Y 7056   6.177   1.644   8.521  1.5645  0.8793  1.3021
   77SLPC  C316 7057   6.171   1.833   8.609 -0.3014 -0.5700 -0.2230
   77SLPC  H16X 7058   6.164   1.782   8.707 -0.4049  0.4057  0.2819
   77SLPC  H16Y 7059   6.103   1.919   8.622 -1.4201 -1.5529  0.7165
   77SLPC  C317 7060   6.321   1.878   8.591 -0.4812 -0.4080 -0.1569
   77SLPC  H17X 7061   6.350   1.946   8.674  1.2499 -0.9661 -0.2614
   77SLPC  H17Y 7062   6.326   1.924   8.490  0.2152 -0.4495 -0.1465
   77SLPC  C318 7063   6.413   1.765   8.609 -0.6115 -0.4423 -0.0193
   77SLPC  H18X 7064   6.518   1.780   8.640 -0.1082 -1.8665 -0.9231
   77SLPC  H18Y 7065   6.417   1.697   8.521 -1.8023 -0.3466 -0.1662
   77SLPC  H18Z 7066   6.376   1.703   8.694  1.9730 -1.4528  0.4587
   78SLPC     N 7067   0.819   3.499   6.105 -0.3921 -0.3046 -0.0796
   78SLPC   C13 7068   0.682   3.527   6.057 -0.1455  0.0836 -0.0277
   78SLPC  H13A 7069   0.634   3.454   5.994 -1.6937  0.7250  0.3827
   78SLPC  H13B 7070   0.620   3.549   6.142  0.0175  1.9339 -0.3272
   78SLPC  H13C 7071   0.696   3.623   6.009  0.8573 -0.7028 -1.4042
   78SLPC   C14 7072   0.904   3.466   5.985 -0.0321 -0.0053 -0.1171
   78SLPC  H14A 7073   1.003   3.442   6.023 -0.0864  3.5760  2.8577
   78SLPC  H14B 7074   0.866   3.397   5.912 -0.3468 -0.6412  0.6258
   78SLPC  H14C 7075   0.918   3.555   5.926  0.0689  0.3597  0.4437
   78SLPC   C15 7076   0.824   3.375   6.188  0.1425  0.2846  0.3318
   78SLPC  H15A 7077   0.924   3.346   6.214 -0.3243 -1.6320  0.1109
   78SLPC  H15B 7078   0.778   3.386   6.285  0.4061 -1.1132  0.6282
   78SLPC  H15C 7079   0.774   3.288   6.148  0.7751  0.0649  0.0176
   78SLPC   C12 7080   0.871   3.622   6.179  1.2988  0.3651  1.2977
   78SLPC  H12A 7081   0.977   3.608   6.192  1.9792  2.4347 -1.1225
   78SLPC  H12B 7082   0.816   3.622   6.272 -0.0181 -2.2717  0.6106
   78SLPC   C11 7083   0.855   3.764   6.110 -0.6660  0.3031  0.7685
   78SLPC  H11A 7084   0.892   3.761   6.005 -1.4229  1.2507  0.4564
   78SLPC  H11B 7085   0.926   3.830   6.164  2.1490 -1.0459 -1.0543
   78SLPC     P 7086   0.657   3.855   6.251 -0.6309  0.3464 -0.0699
   78SLPC   O13 7087   0.674   4.001   6.266  0.2407 -0.5579  0.2105
   78SLPC   O14 7088   0.526   3.790   6.278 -0.3735 -0.3783  0.1202
   78SLPC   O12 7089   0.720   3.811   6.107 -0.2858 -0.3566  0.4708
   78SLPC   O11 7090   0.752   3.789   6.362  0.0838  0.5330 -0.0062
   78SLPC    C1 7091   0.839   3.871   6.449 -0.0514 -0.6347 -0.4263
   78SLPC    HA 7092   0.920   3.807   6.490  0.6436 -0.5579 -1.6279
   78SLPC    HB 7093   0.887   3.956   6.397 -0.8762  0.1243  0.0269
   78SLPC    C2 7094   0.768   3.920   6.582  0.4117  0.5277 -0.0551
   78SLPC    HS 7095   0.701   4.002   6.549  2.6054  1.4149 -2.7424
   78SLPC   O21 7096   0.862   3.966   6.677 -0.2903  0.4063 -0.1508
   78SLPC   C21 7097   0.903   4.088   6.666 -0.5536  0.1071  0.4078
   78SLPC   O22 7098   0.861   4.182   6.599 -0.0753 -0.2254  0.4739
   78SLPC   C22 7099   1.010   4.114   6.769 -0.1679 -0.2340 -0.3605
   78SLPC   H2R 7100   1.107   4.088   6.723  0.3945  2.9522 -1.2375
   78SLPC   H2S 7101   1.021   4.220   6.802 -0.7675 -0.4855  0.7021
   78SLPC    C3 7102   0.693   3.805   6.648  0.1568 -0.0387  0.2246
   78SLPC    HX 7103   0.762   3.720   6.669  1.0139  0.6032  0.0549
   78SLPC    HY 7104   0.617   3.773   6.574  0.4026 -1.9422  0.7449
   78SLPC   O31 7105   0.625   3.850   6.776 -0.6134  0.0555  0.1003
   78SLPC   C31 7106   0.546   3.760   6.830 -0.0414  0.0242  0.5908
   78SLPC   O32 7107   0.533   3.648   6.780  0.0062  0.1824 -0.0236
   78SLPC   C32 7108   0.481   3.820   6.960 -0.9076 -0.3736  0.4858
   78SLPC   H2X 7109   0.410   3.749   7.007 -0.1635 -0.8549  0.9210
   78SLPC   H2Y 7110   0.421   3.906   6.924  0.1058  0.6149  1.0763
   78SLPC   C23 7111   0.984   4.039   6.903  0.7499  0.1961 -0.1078
   78SLPC   H3R 7112   1.021   3.937   6.877  0.7101  0.3311 -0.7058
   78SLPC   H3S 7113   0.877   4.044   6.933  1.0043  2.0740  0.5951
   78SLPC   C24 7114   1.068   4.086   7.015 -0.3569 -0.0800 -0.6783
   78SLPC   H4R 7115   1.055   4.195   7.025  1.0686 -0.0192  1.1947
   78SLPC   H4S 7116   1.176   4.079   6.990 -0.1179  0.0249  0.2725
   78SLPC   C25 7117   1.045   4.012   7.151 -0.0726  0.9553  0.2105
   78SLPC   H5R 7118   1.104   3.918   7.152 -1.1032  0.2829  0.2345
   78SLPC   H5S 7119   0.938   3.982   7.162  0.5727 -1.5843  0.3130
   78SLPC   C26 7120   1.095   4.099   7.264 -0.5970 -0.1696  0.1388
   78SLPC   H6R 7121   1.081   4.207   7.244 -1.9748 -0.5068 -0.8923
   78SLPC   H6S 7122   1.205   4.086   7.277 -0.6370 -0.6200  0.0305
   78SLPC   C27 7123   1.022   4.065   7.397 -0.7152  0.3663 -0.1500
   78SLPC   H7R 7124   1.062   3.965   7.423 -0.1565  0.6267  0.0172
   78SLPC   H7S 7125   0.913   4.058   7.375 -1.1350  0.2929  1.8095
   78SLPC   C28 7126   1.046   4.167   7.518 -0.6699 -0.2798 -0.4572
   78SLPC   H8R 7127   0.980   4.125   7.597 -0.8642  1.2949  0.2572
   78SLPC   H8S 7128   1.001   4.267   7.502 -3.2119 -1.1954  0.3983
   78SLPC   C29 7129   1.187   4.157   7.574  0.5464 -0.7184  0.1192
   78SLPC   H9R 7130   1.271   4.184   7.509  0.0622 -0.6371 -0.4849
   78SLPC  C210 7131   1.218   4.135   7.703 -0.2669 -0.3837  0.1836
   78SLPC  H10R 7132   1.326   4.145   7.724  0.2816 -1.6975 -1.6332
   78SLPC  C211 7133   1.131   4.103   7.820  0.0894 -0.5696  0.8190
   78SLPC  H11R 7134   1.042   4.168   7.805 -0.0319 -0.4541  1.9425
   78SLPC  H11S 7135   1.177   4.132   7.917  1.4769  0.6769 -0.1713
   78SLPC  C212 7136   1.088   3.957   7.822  0.0779  0.5370  0.0056
   78SLPC  H12R 7137   1.038   3.919   7.732  0.4946 -1.8529  0.7098
   78SLPC  C213 7138   1.100   3.875   7.926  0.0073 -0.1402 -0.3952
   78SLPC  H13R 7139   1.059   3.775   7.902 -2.8869  0.5687  1.2121
   78SLPC  C214 7140   1.164   3.898   8.064  0.5770  0.0011 -0.1229
   78SLPC  H14R 7141   1.126   3.814   8.126  2.3269 -0.4120  0.4428
   78SLPC  H14S 7142   1.136   3.997   8.104 -2.3164  0.0291 -1.9461
   78SLPC  C215 7143   1.319   3.883   8.063 -0.0131 -0.3334  0.1027
   78SLPC  H15R 7144   1.349   3.986   8.032  0.9028 -0.9521 -1.1647
   78SLPC  H15S 7145   1.360   3.815   7.985  0.7647  2.7160 -2.3520
   78SLPC  C216 7146   1.378   3.829   8.198  0.0568 -0.8575 -1.2378
   78SLPC  H16R 7147   1.338   3.881   8.287  1.4852 -0.4580 -0.8013
   78SLPC  H16S 7148   1.489   3.838   8.199 -0.0245  0.2410 -1.3325
   78SLPC  C217 7149   1.336   3.679   8.223 -0.0719 -0.5540 -0.8037
   78SLPC  H17R 7150   1.342   3.628   8.125  1.3776 -2.7151  0.3083
   78SLPC  H17S 7151   1.231   3.687   8.257 -0.1977 -0.4451 -1.2092
   78SLPC  C218 7152   1.431   3.603   8.320 -0.2716  0.2705  0.3701
   78SLPC  H18R 7153   1.529   3.607   8.269 -0.1761 -0.3650  0.4982
   78SLPC  H18S 7154   1.394   3.501   8.344 -2.7468  1.4571  2.0133
   78SLPC  H18T 7155   1.438   3.655   8.418  1.6545 -0.0973  0.4657
   78SLPC   C33 7156   0.591   3.867   7.062 -0.2195  0.6652 -0.3871
   78SLPC   H3X 7157   0.641   3.957   7.020 -3.1626  2.1755 -0.9868
   78SLPC   H3Y 7158   0.659   3.781   7.079  0.5791  1.3887  0.1104
   78SLPC   C34 7159   0.536   3.927   7.195 -0.1193 -0.4671  0.3325
   78SLPC   H4X 7160   0.448   3.868   7.228 -1.8300  0.8403 -1.6793
   78SLPC   H4Y 7161   0.493   4.026   7.170 -3.2274 -1.8256 -0.1169
   78SLPC   C35 7162   0.642   3.945   7.300  0.3937  0.0811 -0.6861
   78SLPC   H5X 7163   0.602   4.023   7.368 -0.9931 -0.5307 -0.7524
   78SLPC   H5Y 7164   0.738   3.978   7.255  1.3243 -0.8412  0.5402
   78SLPC   C36 7165   0.664   3.816   7.377  0.1565 -0.2290 -0.0715
   78SLPC   H6X 7166   0.735   3.762   7.311 -1.7202 -0.6547 -1.8716
   78SLPC   H6Y 7167   0.567   3.768   7.401 -0.2023  0.3470 -0.3482
   78SLPC   C37 7168   0.725   3.839   7.520  0.0665 -0.4897  0.6949
   78SLPC   H7X 7169   0.825   3.888   7.508 -0.3275  0.0263 -0.6449
   78SLPC   H7Y 7170   0.741   3.738   7.564 -0.1269 -1.1044 -0.6088
   78SLPC   C38 7171   0.632   3.909   7.618  0.5577  0.1398  0.1424
   78SLPC   H8X 7172   0.531   3.923   7.574  0.5672 -0.2803 -0.0136
   78SLPC   H8Y 7173   0.675   4.008   7.646  0.1557 -0.4381  3.1312
   78SLPC   C39 7174   0.606   3.826   7.746 -0.0460  0.0553  0.9841
   78SLPC   H9X 7175   0.697   3.798   7.803  0.4440 -0.1775  0.1020
   78SLPC   H9Y 7176   0.546   3.739   7.713 -0.1516  0.9163 -1.2301
   78SLPC  C310 7177   0.509   3.894   7.847 -0.0767 -0.8592 -0.3192
   78SLPC  H10X 7178   0.413   3.902   7.791  0.9157 -1.4207 -2.1601
   78SLPC  H10Y 7179   0.548   3.994   7.876 -0.1750 -0.7227 -0.6564
   78SLPC  C311 7180   0.485   3.804   7.969 -0.3220  0.6306 -0.0978
   78SLPC  H11X 7181   0.534   3.709   7.941 -0.3632  0.6509 -0.2412
   78SLPC  H11Y 7182   0.376   3.785   7.972  0.0689 -1.9124 -0.0661
   78SLPC  C312 7183   0.533   3.866   8.107 -0.0406 -0.2250 -0.1526
   78SLPC  H12X 7184   0.481   3.828   8.197  0.4656  2.4375  1.3567
   78SLPC  H12Y 7185   0.488   3.967   8.105  0.3471 -0.0588 -1.1801
   78SLPC  C313 7186   0.683   3.888   8.116  0.7934  0.5114  0.0943
   78SLPC  H13X 7187   0.708   3.950   8.028  1.8942  0.4661  0.3608
   78SLPC  H13Y 7188   0.747   3.799   8.098 -1.5033 -1.2020 -0.0851
   78SLPC  C314 7189   0.716   3.963   8.249  0.3239  0.6898 -0.3642
   78SLPC  H14X 7190   0.673   3.894   8.325  0.8071  0.0077 -0.6950
   78SLPC  H14Y 7191   0.664   4.061   8.254 -0.8049  0.1057 -0.1254
   78SLPC  C315 7192   0.861   3.981   8.261  0.5142 -0.5223 -0.0060
   78SLPC  H15X 7193   0.892   4.049   8.179 -1.2855  1.1088  0.5963
   78SLPC  H15Y 7194   0.911   3.883   8.244 -0.9800 -1.4303  0.5957
   78SLPC  C316 7195   0.897   4.034   8.406 -0.0002  1.1230 -0.2306
   78SLPC  H16X 7196   0.837   4.125   8.424 -0.1112  0.9718  0.1768
   78SLPC  H16Y 7197   1.007   4.051   8.416  0.2917 -0.6946  0.0264
   78SLPC  C317 7198   0.862   3.929   8.511 -0.0751  0.0904 -0.4214
   78SLPC  H17X 7199   0.940   3.849   8.505  1.1058  1.3176 -2.9090
   78SLPC  H17Y 7200   0.765   3.880   8.491 -0.2238  0.2569 -0.1088
   78SLPC  C318 7201   0.854   3.985   8.651  0.1819  0.1055  0.2951
   78SLPC  H18X 7202   0.799   4.081   8.652 -1.5179 -0.8397  0.8668
   78SLPC  H18Y 7203   0.956   4.001   8.691  0.6000  0.7173 -0.9706
   78SLPC  H18Z 7204   0.798   3.922   8.723  0.3418  0.3414  0.6276
   79SLPC     N 7205   3.905   5.056   6.217 -0.1893  0.0317  0.2980
   79SLPC   C13 7206   3.996   5.113   6.113  0.5431 -0.1278 -0.1932
   79SLPC  H13A 7207   3.948   5.181   6.044 -0.1064  0.7128  1.0552
   79SLPC  H13B 7208   4.076   5.170   6.157  0.7499 -0.0721 -0.6362
   79SLPC  H13C 7209   4.042   5.031   6.059  0.9421 -1.0752  1.5344
   79SLPC   C14 7210   3.977   4.943   6.283  0.1351  0.0181 -0.5325
   79SLPC  H14A 7211   4.011   4.866   6.215 -2.0743  0.6237 -2.4597
   79SLPC  H14B 7212   4.069   4.979   6.326 -0.4457 -0.6326  1.3656
   79SLPC  H14C 7213   3.929   4.898   6.369 -1.3498 -0.9323 -1.8056
   79SLPC   C15 7214   3.785   4.994   6.144 -0.0434  0.4337  0.2715
   79SLPC  H15A 7215   3.719   5.072   6.110 -1.8502 -1.2278 -0.1923
   79SLPC  H15B 7216   3.819   4.937   6.059 -0.6365  0.4997 -0.0142
   79SLPC  H15C 7217   3.735   4.927   6.212 -0.3183  1.5906  1.2467
   79SLPC   C12 7218   3.868   5.163   6.311  0.2968 -0.2255  0.0475
   79SLPC  H12A 7219   3.962   5.211   6.335  0.1694  0.3303 -0.5269
   79SLPC  H12B 7220   3.823   5.109   6.393  0.7857 -3.0540 -1.4195
   79SLPC   C11 7221   3.766   5.263   6.256  0.1108  0.4729 -0.9661
   79SLPC  H11A 7222   3.794   5.285   6.151  2.2220 -0.5879 -0.6848
   79SLPC  H11B 7223   3.786   5.361   6.304 -0.5049  1.1993 -2.1261
   79SLPC     P 7224   3.527   5.191   6.365 -0.0865 -0.4265 -0.0084
   79SLPC   O13 7225   3.405   5.240   6.302  0.3486 -0.2629  0.2200
   79SLPC   O14 7226   3.534   5.048   6.403  0.4422  0.2076  0.2488
   79SLPC   O12 7227   3.627   5.218   6.249  0.3070  0.1316 -0.3293
   79SLPC   O11 7228   3.579   5.281   6.477  0.1297 -0.0735 -0.2343
   79SLPC    C1 7229   3.535   5.417   6.492 -0.1341  0.1551 -0.5508
   79SLPC    HA 7230   3.527   5.465   6.392 -0.3346  2.8985  0.6980
   79SLPC    HB 7231   3.435   5.416   6.540 -1.0497  1.6887 -2.2757
   79SLPC    C2 7232   3.642   5.491   6.586 -0.1802 -0.0359  0.2929
   79SLPC    HS 7233   3.730   5.490   6.518 -1.3052 -0.0926 -1.2155
   79SLPC   O21 7234   3.657   5.411   6.700  0.2143  0.2544 -0.3013
   79SLPC   C21 7235   3.721   5.458   6.807 -0.1454 -0.7513 -0.1045
   79SLPC   O22 7236   3.790   5.560   6.807  0.4414 -0.8405 -0.4467
   79SLPC   C22 7237   3.698   5.367   6.927 -0.6353  0.0835  0.2464
   79SLPC   H2R 7238   3.588   5.349   6.928 -0.3599 -1.8714  0.5962
   79SLPC   H2S 7239   3.756   5.276   6.902  1.2854  1.8729 -2.2439
   79SLPC    C3 7240   3.593   5.637   6.611 -0.6308 -0.0343  0.6714
   79SLPC    HX 7241   3.554   5.675   6.514  1.0620 -0.9772 -0.4233
   79SLPC    HY 7242   3.690   5.683   6.636  0.5518 -1.2615 -1.3655
   79SLPC   O31 7243   3.496   5.640   6.719 -0.3308 -0.4102  0.3076
   79SLPC   C31 7244   3.428   5.754   6.736 -0.0030 -0.3714 -0.0876
   79SLPC   O32 7245   3.429   5.849   6.658 -0.4472  0.4028 -0.0988
   79SLPC   C32 7246   3.353   5.747   6.865  0.7189 -0.4615 -0.3750
   79SLPC   H2X 7247   3.271   5.671   6.861  1.0192 -0.8633  0.6743
   79SLPC   H2Y 7248   3.307   5.844   6.893  0.4884 -1.0613  1.5005
   79SLPC   C23 7249   3.739   5.424   7.063  0.0232 -0.0234  0.2775
   79SLPC   H3R 7250   3.676   5.513   7.088 -0.5968 -0.1124 -0.9067
   79SLPC   H3S 7251   3.843   5.463   7.061  0.2693 -0.5238  1.6500
   79SLPC   C24 7252   3.726   5.313   7.169  0.0879 -0.2488  0.7483
   79SLPC   H4R 7253   3.794   5.230   7.140  1.2055  1.2503 -1.0824
   79SLPC   H4S 7254   3.622   5.273   7.177 -0.8190  1.5999 -1.1169
   79SLPC   C25 7255   3.765   5.371   7.304  0.9128 -0.4106 -0.7345
   79SLPC   H5R 7256   3.703   5.463   7.305  1.7658  0.2012 -1.7621
   79SLPC   H5S 7257   3.872   5.399   7.319  0.4320  0.3499  1.8629
   79SLPC   C26 7258   3.710   5.293   7.425 -1.0697  0.0693  0.5103
   79SLPC   H6R 7259   3.782   5.209   7.430  0.9324  1.6912  0.4582
   79SLPC   H6S 7260   3.607   5.256   7.408 -0.2963 -0.7392 -3.4732
   79SLPC   C27 7261   3.734   5.364   7.557 -0.3647 -0.0289 -0.8534
   79SLPC   H7R 7262   3.682   5.462   7.551 -2.3287 -0.9124  0.4807
   79SLPC   H7S 7263   3.840   5.395   7.571 -0.6871  0.9791 -0.6013
   79SLPC   C28 7264   3.686   5.291   7.682 -0.3941 -0.5192  0.6295
   79SLPC   H8R 7265   3.749   5.204   7.707  0.8361  0.3480  0.6537
   79SLPC   H8S 7266   3.581   5.256   7.675 -0.9545  1.1585 -0.1803
   79SLPC   C29 7267   3.702   5.392   7.790  0.0140  0.5429 -0.3045
   79SLPC   H9R 7268   3.678   5.495   7.760  0.9595  0.8048 -0.1799
   79SLPC  C210 7269   3.721   5.369   7.925  0.3738  0.4494 -0.0405
   79SLPC  H10R 7270   3.737   5.447   8.000  1.4537  0.2967 -0.0964
   79SLPC  C211 7271   3.754   5.228   7.983 -0.3963 -0.2610  0.1728
   79SLPC  H11R 7272   3.862   5.215   8.000 -0.5153 -1.9033 -0.2260
   79SLPC  H11S 7273   3.726   5.154   7.905 -0.7744  1.0546 -0.9779
   79SLPC  C212 7274   3.679   5.206   8.112 -0.0116 -0.4940 -0.6221
   79SLPC  H12R 7275   3.603   5.127   8.113 -1.7306  1.0137 -2.4907
   79SLPC  C213 7276   3.719   5.261   8.232  0.2088  0.3284 -0.0070
   79SLPC  H13R 7277   3.666   5.234   8.324  0.8540  0.4205  0.4006
   79SLPC  C214 7278   3.832   5.365   8.247  1.0077  0.2561  0.0724
   79SLPC  H14R 7279   3.892   5.381   8.155  2.2053 -0.2863  0.7377
   79SLPC  H14S 7280   3.899   5.326   8.326  0.5348 -2.2177 -0.6586
   79SLPC  C215 7281   3.791   5.508   8.299  0.2629  0.3736 -0.1329
   79SLPC  H15R 7282   3.712   5.547   8.231 -1.0055 -0.9080  0.5739
   79SLPC  H15S 7283   3.882   5.573   8.292 -0.2415  0.9465 -2.1945
   79SLPC  C216 7284   3.737   5.499   8.443  0.6142  0.1202 -0.0089
   79SLPC  H16R 7285   3.806   5.437   8.503  3.1513  1.6740 -1.1313
   79SLPC  H16S 7286   3.635   5.455   8.449  0.9315 -0.5624  0.5250
   79SLPC  C217 7287   3.720   5.644   8.504 -0.8160 -0.4824 -0.0505
   79SLPC  H17R 7288   3.823   5.683   8.518 -0.1898 -2.6348  2.0721
   79SLPC  H17S 7289   3.678   5.628   8.605 -3.6557  2.9748 -0.4949
   79SLPC  C218 7290   3.629   5.737   8.419 -0.5524 -0.0050  0.2512
   79SLPC  H18R 7291   3.697   5.766   8.336 -0.7436 -1.1960 -0.3529
   79SLPC  H18S 7292   3.596   5.823   8.481  0.0609 -0.2041  0.8776
   79SLPC  H18T 7293   3.538   5.682   8.388 -0.6240  0.6759 -0.7792
   79SLPC   C33 7294   3.432   5.702   6.989 -0.3629  1.1238 -0.1186
   79SLPC   H3X 7295   3.519   5.769   7.003 -0.1621  1.2917 -1.8675
   79SLPC   H3Y 7296   3.487   5.608   6.966  0.5642  1.9338 -1.3866
   79SLPC   C34 7297   3.336   5.677   7.104 -0.2899  0.5762 -0.7909
   79SLPC   H4X 7298   3.270   5.591   7.080 -1.4001  1.3737 -0.6639
   79SLPC   H4Y 7299   3.279   5.771   7.120 -0.0174  0.7001 -0.5315
   79SLPC   C35 7300   3.415   5.646   7.234  0.4363 -0.1527 -0.4839
   79SLPC   H5X 7301   3.494   5.723   7.251 -1.1194  1.3817  0.1316
   79SLPC   H5Y 7302   3.460   5.545   7.229 -2.4345 -1.5292 -0.8249
   79SLPC   C36 7303   3.321   5.663   7.353  0.0239  0.2389  0.3660
   79SLPC   H6X 7304   3.244   5.582   7.355  0.0290  0.2397  0.6490
   79SLPC   H6Y 7305   3.266   5.759   7.348 -3.1820 -1.4694 -0.1571
   79SLPC   C37 7306   3.381   5.654   7.488  0.1391 -0.0214 -0.8160
   79SLPC   H7X 7307   3.451   5.739   7.501  2.6080 -2.3932  4.7445
   79SLPC   H7Y 7308   3.458   5.574   7.498  2.7104  2.5278  2.0082
   79SLPC   C38 7309   3.292   5.643   7.616 -0.8895  0.4422  0.2113
   79SLPC   H8X 7310   3.235   5.548   7.610 -1.5309  0.8793 -0.9379
   79SLPC   H8Y 7311   3.216   5.724   7.618 -1.7295 -0.3538  1.4014
   79SLPC   C39 7312   3.366   5.661   7.749 -0.9639  0.6267 -0.1333
   79SLPC   H9X 7313   3.455   5.594   7.756 -1.4328 -0.1455 -1.2247
   79SLPC   H9Y 7314   3.298   5.598   7.810  0.4496 -1.5098 -0.6698
   79SLPC  C310 7315   3.398   5.800   7.801 -0.1603 -0.1270 -0.5675
   79SLPC  H10X 7316   3.308   5.864   7.786  0.8471  1.3869 -0.3438
   79SLPC  H10Y 7317   3.486   5.841   7.748 -0.6024  1.1933 -0.3231
   79SLPC  C311 7318   3.432   5.814   7.949 -0.8939  0.0099 -0.9224
   79SLPC  H11X 7319   3.532   5.768   7.955 -1.8168 -2.1381 -1.2620
   79SLPC  H11Y 7320   3.363   5.767   8.022  1.8721 -3.7144 -0.4569
   79SLPC  C312 7321   3.453   5.962   7.975  0.8436  0.0433 -0.5119
   79SLPC  H12X 7322   3.369   6.034   7.968  0.8228  0.1705  0.7710
   79SLPC  H12Y 7323   3.532   5.989   7.902  0.2090  1.0401 -0.8416
   79SLPC  C313 7324   3.517   5.978   8.106 -0.0769  0.4837  0.0284
   79SLPC  H13X 7325   3.589   5.894   8.116 -0.5528  0.2120  1.4089
   79SLPC  H13Y 7326   3.435   5.964   8.179  0.2216 -0.8528  0.1268
   79SLPC  C314 7327   3.585   6.111   8.123 -0.0475  0.0336  0.2696
   79SLPC  H14X 7328   3.516   6.198   8.119  1.0532  0.9639  0.8823
   79SLPC  H14Y 7329   3.657   6.143   8.045  1.0244  1.7026  1.8615
   79SLPC  C315 7330   3.654   6.115   8.262 -0.3928  0.2639  0.3906
   79SLPC  H15X 7331   3.734   6.193   8.259 -0.3150  0.1913  0.5548
   79SLPC  H15Y 7332   3.707   6.019   8.276  1.5502  0.8665 -2.1573
   79SLPC  C316 7333   3.557   6.134   8.374  0.2098 -0.0823 -0.0933
   79SLPC  H16X 7334   3.501   6.040   8.389 -0.7980 -0.2745 -4.1437
   79SLPC  H16Y 7335   3.486   6.215   8.347 -1.7572 -2.1229 -1.3399
   79SLPC  C317 7336   3.632   6.174   8.503  1.1616 -0.2427  0.3188
   79SLPC  H17X 7337   3.556   6.186   8.583  0.0739 -0.6918 -0.6100
   79SLPC  H17Y 7338   3.655   6.279   8.473 -0.4042 -0.2138 -0.9123
   79SLPC  C318 7339   3.753   6.090   8.545 -1.3208 -0.7823 -0.6771
   79SLPC  H18X 7340   3.804   6.140   8.630  0.5303 -1.7880 -1.1466
   79SLPC  H18Y 7341   3.820   6.090   8.456 -1.6062 -1.8456 -0.9030
   79SLPC  H18Z 7342   3.717   5.987   8.566  0.2736 -0.9040  1.8114
   80SLPC     N 7343   0.358   2.423   6.071  0.0244 -0.2861  0.2478
   80SLPC   C13 7344   0.234   2.387   6.144 -0.5486  0.0319 -0.2925
   80SLPC  H13A 7345   0.201   2.463   6.214 -1.2451 -0.9721  0.4984
   80SLPC  H13B 7346   0.153   2.352   6.081  0.0161  0.1174 -1.0920
   80SLPC  H13C 7347   0.249   2.308   6.216 -2.0423  0.9474  1.0930
   80SLPC   C14 7348   0.312   2.515   5.969  0.7172  0.2110  0.1136
   80SLPC  H14A 7349   0.391   2.552   5.906  0.6596  1.2238  0.6194
   80SLPC  H14B 7350   0.244   2.462   5.904 -1.7556 -0.2745  2.8782
   80SLPC  H14C 7351   0.248   2.596   6.002 -0.7145 -0.8320 -0.0097
   80SLPC   C15 7352   0.415   2.298   6.013  0.1349 -0.6884 -0.4448
   80SLPC  H15A 7353   0.521   2.309   5.999  0.0509  0.3232 -0.3470
   80SLPC  H15B 7354   0.389   2.205   6.062 -2.8976  0.0452 -0.4598
   80SLPC  H15C 7355   0.373   2.280   5.915 -0.5422 -0.7014 -0.1633
   80SLPC   C12 7356   0.460   2.493   6.156  0.7654 -0.1222 -0.4166
   80SLPC  H12A 7357   0.426   2.591   6.184  0.7901 -0.4766  0.9649
   80SLPC  H12B 7358   0.550   2.501   6.098  1.2590  1.0358  0.4640
   80SLPC   C11 7359   0.505   2.422   6.282 -0.4667  0.4019  0.7480
   80SLPC  H11A 7360   0.607   2.460   6.305 -0.3366 -0.9250  2.4683
   80SLPC  H11B 7361   0.509   2.314   6.258 -0.5109  0.5783 -0.0950
   80SLPC     P 7362   0.382   2.582   6.444 -0.0131 -0.0004 -0.3234
   80SLPC   O13 7363   0.506   2.634   6.493  0.6316  0.3380 -0.0927
   80SLPC   O14 7364   0.296   2.666   6.351  0.5166 -0.0778 -0.1995
   80SLPC   O12 7365   0.407   2.441   6.380  0.2210  0.7704 -0.4373
   80SLPC   O11 7366   0.302   2.552   6.578 -0.2823 -0.3048  0.0458
   80SLPC    C1 7367   0.164   2.527   6.574 -0.5322  0.0884  0.5273
   80SLPC    HA 7368   0.120   2.507   6.474  0.0352  1.0069  0.0788
   80SLPC    HB 7369   0.135   2.438   6.634  0.3325 -1.9220 -1.8802
   80SLPC    C2 7370   0.088   2.654   6.626 -0.1316  0.5595  0.2373
   80SLPC    HS 7371   0.106   2.739   6.556 -2.3003  0.5268 -0.4265
   80SLPC   O21 7372   0.102   2.675   6.768  0.0761 -0.5486  0.2348
   80SLPC   C21 7373   0.106   2.799   6.799  0.7050 -0.0886 -0.6123
   80SLPC   O22 7374   0.102   2.890   6.718 -0.4200 -0.1534  0.5202
   80SLPC   C22 7375   0.099   2.819   6.943 -0.5454  0.5415 -0.3679
   80SLPC   H2R 7376  -0.006   2.800   6.975 -0.9263  1.5982 -0.9360
   80SLPC   H2S 7377   0.172   2.754   6.995 -0.3550  0.7099 -0.4248
   80SLPC    C3 7378  -0.064   2.626   6.600 -0.6943 -1.2131 -0.0163
   80SLPC    HX 7379  -0.075   2.614   6.490  2.0378  1.0875 -0.6606
   80SLPC    HY 7380  -0.117   2.721   6.622  1.2920  0.2552 -1.2570
   80SLPC   O31 7381  -0.119   2.512   6.676  0.2477 -0.2631 -0.4083
   80SLPC   C31 7382  -0.187   2.542   6.790 -0.6766 -0.3545 -0.0808
   80SLPC   O32 7383  -0.203   2.657   6.828 -0.0588 -0.1063 -0.2705
   80SLPC   C32 7384  -0.224   2.429   6.865 -0.3682  0.4164  0.1910
   80SLPC   H2X 7385  -0.141   2.360   6.891 -0.6307 -0.4389 -1.1493
   80SLPC   H2Y 7386  -0.295   2.374   6.799 -0.1006  0.4174 -0.0974
   80SLPC   C23 7387   0.142   2.962   6.979 -0.0501  0.3124 -0.3775
   80SLPC   H3R 7388   0.056   3.031   6.974 -0.9782 -0.7345  0.6750
   80SLPC   H3S 7389   0.218   2.999   6.907 -1.2104  0.5789 -1.5014
   80SLPC   C24 7390   0.205   2.967   7.119 -0.0158 -0.0613  0.8220
   80SLPC   H4R 7391   0.314   2.950   7.123 -0.2136 -2.2277 -0.6890
   80SLPC   H4S 7392   0.158   2.888   7.181 -1.7616 -1.0148 -1.5201
   80SLPC   C25 7393   0.184   3.103   7.191  0.4860 -0.7715 -0.6042
   80SLPC   H5R 7394   0.075   3.123   7.183  0.1793 -2.4742 -0.9305
   80SLPC   H5S 7395   0.248   3.168   7.126  0.5338 -1.8475 -1.6662
   80SLPC   C26 7396   0.216   3.095   7.341  0.1844  0.3107  0.6237
   80SLPC   H6R 7397   0.175   2.999   7.379 -1.4026  0.8188  0.2652
   80SLPC   H6S 7398   0.164   3.173   7.400 -2.3065 -1.3951  0.8169
   80SLPC   C27 7399   0.368   3.086   7.378 -0.3262  0.3699 -0.6982
   80SLPC   H7R 7400   0.413   3.174   7.326  1.2855  0.1570  0.2577
   80SLPC   H7S 7401   0.418   3.002   7.326 -0.7664 -0.1236 -0.3314
   80SLPC   C28 7402   0.396   3.067   7.528 -0.1089  0.0877  0.2111
   80SLPC   H8R 7403   0.504   3.054   7.554  0.2715  3.6849  0.9919
   80SLPC   H8S 7404   0.337   2.980   7.562  0.0842  0.0116  0.3559
   80SLPC   C29 7405   0.345   3.185   7.607  0.1146  0.6447  0.2009
   80SLPC   H9R 7406   0.402   3.279   7.596  2.1431 -0.6546 -1.0690
   80SLPC  C210 7407   0.238   3.182   7.691 -0.3563 -0.6281  0.0217
   80SLPC  H10R 7408   0.214   3.270   7.753 -1.7959 -0.4819 -0.7072
   80SLPC  C211 7409   0.144   3.073   7.730 -0.0382  0.0018  0.0940
   80SLPC  H11R 7410   0.127   3.006   7.643 -2.1030  1.4044 -0.6578
   80SLPC  H11S 7411   0.045   3.114   7.758  0.1901  0.0600  0.8226
   80SLPC  C212 7412   0.197   2.986   7.845  0.5084  0.2148  1.1295
   80SLPC  H12R 7413   0.304   2.998   7.869  1.0013  0.1714 -0.8840
   80SLPC  C213 7414   0.131   2.882   7.900  0.1984  0.7332  0.6170
   80SLPC  H13R 7415   0.175   2.818   7.978  0.4026  0.9523  0.6808
   80SLPC  C214 7416  -0.010   2.841   7.857  0.3040  0.3421  0.5237
   80SLPC  H14R 7417  -0.026   2.731   7.856 -2.0578  0.6283  0.5992
   80SLPC  H14S 7418  -0.022   2.867   7.750  0.1369 -0.5236  0.3221
   80SLPC  C215 7419  -0.127   2.894   7.937  0.0517  0.1525  0.2902
   80SLPC  H15R 7420  -0.228   2.863   7.900 -0.0645  0.3973  0.4001
   80SLPC  H15S 7421  -0.107   3.003   7.928  1.6778 -0.2654 -2.4350
   80SLPC  C216 7422  -0.118   2.841   8.079 -0.7133  0.7449 -0.5155
   80SLPC  H16R 7423  -0.013   2.846   8.116 -0.0352 -1.0445 -2.0540
   80SLPC  H16S 7424  -0.143   2.734   8.064 -1.5668  0.7135  0.9563
   80SLPC  C217 7425  -0.205   2.913   8.178 -0.7445 -0.2136  0.2915
   80SLPC  H17R 7426  -0.207   3.024   8.165  1.0180 -0.0382  1.1057
   80SLPC  H17S 7427  -0.170   2.899   8.283  0.9341 -1.0156 -0.3341
   80SLPC  C218 7428  -0.349   2.857   8.173  0.3430 -0.4244  0.0756
   80SLPC  H18R 7429  -0.364   2.749   8.194  1.4672 -0.3140  1.6398
   80SLPC  H18S 7430  -0.394   2.863   8.071 -0.9134 -1.2600  0.5613
   80SLPC  H18T 7431  -0.417   2.910   8.244 -0.2068  0.3037 -0.9584
   80SLPC   C33 7432  -0.298   2.468   6.996 -0.2052  0.8144 -0.8458
   80SLPC   H3X 7433  -0.365   2.553   6.972 -2.9448 -0.3228  2.1189
   80SLPC   H3Y 7434  -0.232   2.504   7.077 -0.6267 -0.8879  0.2868
   80SLPC   C34 7435  -0.378   2.346   7.046 -0.4837  1.0637  0.2851
   80SLPC   H4X 7436  -0.431   2.300   6.960 -0.7256  0.8385  0.5548
   80SLPC   H4Y 7437  -0.460   2.385   7.110 -1.0144  2.0492 -0.9441
   80SLPC   C35 7438  -0.306   2.238   7.117 -0.7658  0.1151  0.8254
   80SLPC   H5X 7439  -0.240   2.281   7.195  0.7498 -2.0606  0.8453
   80SLPC   H5Y 7440  -0.246   2.170   7.052 -1.6127  0.1864 -0.0511
   80SLPC   C36 7441  -0.393   2.152   7.209 -0.3142  0.0935  0.4062
   80SLPC   H6X 7442  -0.472   2.110   7.143  0.2071 -0.2263 -0.0236
   80SLPC   H6Y 7443  -0.445   2.219   7.281  0.7264 -0.4242  1.6710
   80SLPC   C37 7444  -0.300   2.047   7.276  0.0688 -0.3071 -0.0724
   80SLPC   H7X 7445  -0.252   1.996   7.189  2.8394  1.5861  0.2189
   80SLPC   H7Y 7446  -0.373   1.983   7.330  0.1334  0.0400  0.4295
   80SLPC   C38 7447  -0.193   2.091   7.381  0.0829  0.3977  0.5656
   80SLPC   H8X 7448  -0.226   2.160   7.462  1.3794  0.7190  0.8490
   80SLPC   H8Y 7449  -0.112   2.143   7.325  0.2656  0.2606  0.7023
   80SLPC   C39 7450  -0.140   1.972   7.463  0.0808  0.0183  0.5521
   80SLPC   H9X 7451  -0.075   1.919   7.391  3.1166  1.5216  1.9838
   80SLPC   H9Y 7452  -0.229   1.911   7.491 -0.1207 -0.1121 -0.3340
   80SLPC  C310 7453  -0.062   1.999   7.581 -0.0235 -0.1955  0.0859
   80SLPC  H10X 7454  -0.059   1.902   7.636 -0.8164 -0.9055 -1.1008
   80SLPC  H10Y 7455  -0.111   2.076   7.645 -0.5001 -2.2562  2.3940
   80SLPC  C311 7456   0.079   2.044   7.552 -0.6288 -0.2194 -0.6550
   80SLPC  H11X 7457   0.066   2.131   7.485  1.1419 -0.6670 -1.6510
   80SLPC  H11Y 7458   0.139   1.967   7.499 -0.1125 -0.1676 -0.1518
   80SLPC  C312 7459   0.140   2.102   7.681 -0.7722 -0.7258 -0.1243
   80SLPC  H12X 7460   0.108   2.038   7.767 -4.2194 -2.3302 -2.3743
   80SLPC  H12Y 7461   0.097   2.204   7.689  1.7974  0.3092  1.9885
   80SLPC  C313 7462   0.299   2.121   7.674 -0.1803  0.0145  0.6568
   80SLPC  H13X 7463   0.326   2.181   7.584 -1.7658 -1.0885 -0.6200
   80SLPC  H13Y 7464   0.344   2.022   7.654  0.8428  0.9930 -2.6095
   80SLPC  C314 7465   0.367   2.169   7.804 -0.2246 -1.1118 -0.4440
   80SLPC  H14X 7466   0.347   2.093   7.883 -0.8805  0.7516  1.2586
   80SLPC  H14Y 7467   0.339   2.270   7.842  0.9844  0.6773 -3.8658
   80SLPC  C315 7468   0.515   2.172   7.773  0.0926  0.4623 -0.4099
   80SLPC  H15X 7469   0.532   2.250   7.696  1.4609  0.6808  0.0835
   80SLPC  H15Y 7470   0.531   2.073   7.724 -2.5817 -0.5535  0.5953
   80SLPC  C316 7471   0.604   2.200   7.896  0.1764 -0.0167  1.5706
   80SLPC  H16X 7472   0.594   2.117   7.969  1.0032 -0.8569  0.7662
   80SLPC  H16Y 7473   0.560   2.292   7.940 -2.0152 -0.6384  0.8171
   80SLPC  C317 7474   0.755   2.209   7.861  0.8303 -0.1953  0.1133
   80SLPC  H17X 7475   0.780   2.301   7.806  1.6350 -0.1972  0.4654
   80SLPC  H17Y 7476   0.780   2.120   7.800  0.8731 -0.0387 -0.0967
   80SLPC  C318 7477   0.857   2.201   7.976 -0.6565 -0.2572 -0.2270
   80SLPC  H18X 7478   0.962   2.220   7.945 -0.8343 -0.1501 -0.7627
   80SLPC  H18Y 7479   0.857   2.106   8.035 -0.1782 -0.6114 -0.7895
   80SLPC  H18Z 7480   0.823   2.273   8.054 -1.4411  1.2348 -1.8884
   81SAPS     N 7481   4.174   4.110  11.214 -0.2775  0.2541  0.3665
   81SAPS   HN1 7482   4.172   4.035  11.287  0.5546 -1.9832 -1.7559
   81SAPS   HN2 7483   4.237   4.189  11.240 -1.4729  1.4044 -0.1539
   81SAPS   HN3 7484   4.077   4.145  11.218 -0.9814 -1.6418  2.0247
   81SAPS   C12 7485   4.230   4.071  11.083 -0.3341 -0.7597  0.1984
   81SAPS  H12A 7486   4.336   4.094  11.080 -0.5974  0.4280 -0.3685
   81SAPS   C13 7487   4.198   3.913  11.047  0.4977 -0.2389  0.5508
   81SAPS  O13A 7488   4.188   3.833  11.142 -0.2880 -0.1352 -0.1047
   81SAPS  O13B 7489   4.221   3.874  10.933  0.5136 -0.7377 -0.0156
   81SAPS   C11 7490   4.174   4.164  10.982 -0.2399 -0.5035 -0.3542
   81SAPS  H11A 7491   4.064   4.147  10.972 -0.3709  0.3252 -0.4402
   81SAPS  H11B 7492   4.212   4.145  10.879 -0.3904  1.1986 -0.7557
   81SAPS     P 7493   4.311   4.388  10.955 -0.2491 -0.1904 -0.4191
   81SAPS   O13 7494   4.242   4.497  10.880 -0.0256  0.3263  0.3625
   81SAPS   O14 7495   4.404   4.428  11.064 -0.1819  0.2561 -0.3847
   81SAPS   O12 7496   4.204   4.302  11.021 -0.0633  0.9035 -0.2923
   81SAPS   O11 7497   4.384   4.295  10.851 -0.2144 -0.5179 -0.3331
   81SAPS    C1 7498   4.518   4.313  10.820 -0.1947  0.2507  0.0017
   81SAPS    HA 7499   4.547   4.420  10.814  0.5455  0.0974  0.6649
   81SAPS    HB 7500   4.574   4.253  10.895 -1.0995 -0.2699  0.2848
   81SAPS    C2 7501   4.548   4.254  10.681  0.3641  0.1012  0.2000
   81SAPS    HS 7502   4.501   4.319  10.604 -0.8597  0.2512  1.0457
   81SAPS   O21 7503   4.492   4.123  10.691  0.5398  1.0352 -0.7276
   81SAPS   C21 7504   4.394   4.091  10.615  0.6585 -0.8458 -0.6463
   81SAPS   O22 7505   4.309   4.170  10.566 -0.1658  0.1175  0.2953
   81SAPS   C22 7506   4.432   3.942  10.586 -0.0414 -0.5741  0.7941
   81SAPS   H2R 7507   4.541   3.927  10.568  0.3114  0.2589  2.1460
   81SAPS   H2S 7508   4.409   3.896  10.685  0.7685  1.8417  2.1751
   81SAPS    C3 7509   4.694   4.251  10.643 -0.0688 -0.0882  0.5677
   81SAPS    HX 7510   4.700   4.189  10.551 -0.4160 -1.1155  1.2262
   81SAPS    HY 7511   4.733   4.195  10.731 -2.6440  0.2450  2.0136
   81SAPS   O31 7512   4.754   4.386  10.639 -0.3247 -0.4395  0.3689
   81SAPS   C31 7513   4.883   4.378  10.608  0.2678  0.1830 -0.2997
   81SAPS   O32 7514   4.934   4.265  10.582  0.3326 -0.2790  0.2251
   81SAPS   C32 7515   4.964   4.503  10.604 -0.2032 -0.7858 -0.2699
   81SAPS   H2X 7516   5.067   4.464  10.588 -0.5020 -1.2101 -1.1885
   81SAPS   H2Y 7517   4.961   4.551  10.705  3.1722  2.2174 -1.3664
   81SAPS   C23 7518   4.365   3.871  10.467  0.1434  0.9189  0.1077
   81SAPS   H3R 7519   4.254   3.863  10.471  0.1280  1.2261  0.3285
   81SAPS   H3S 7520   4.389   3.764  10.483 -1.0419 -0.0501 -3.6731
   81SAPS   C24 7521   4.397   3.925  10.324 -0.3806 -0.2586 -0.0752
   81SAPS   H4R 7522   4.398   4.036  10.332 -1.6215 -0.3011  0.9643
   81SAPS   H4S 7523   4.319   3.892  10.253  0.0465 -0.6614 -0.3621
   81SAPS   C25 7524   4.533   3.870  10.274 -1.1742  0.6845 -0.5058
   81SAPS   H5R 7525   4.563   3.778  10.326  1.1176  0.6543 -1.7498
   81SAPS   C26 7526   4.620   3.937  10.188 -0.0344  0.3115 -0.6175
   81SAPS   H6R 7527   4.718   3.891  10.171 -0.5533 -2.1584  2.2011
   81SAPS   C27 7528   4.581   4.065  10.124 -0.1470  0.4408 -0.4917
   81SAPS   H7R 7529   4.656   4.146  10.138 -1.0288  1.0927  0.6635
   81SAPS   H7S 7530   4.504   4.109  10.191  1.0136 -1.3751  2.2141
   81SAPS   C28 7531   4.528   4.031   9.986 -0.7754 -0.2865 -0.7029
   81SAPS   H8R 7532   4.504   3.926   9.968 -3.2734  0.1397 -0.2197
   81SAPS   C29 7533   4.499   4.123   9.891 -0.0640  0.2858 -0.5673
   81SAPS   H9R 7534   4.475   4.087   9.790 -0.4690  1.1658 -0.7988
   81SAPS  C210 7535   4.526   4.273   9.894  0.4959  0.4733 -0.2373
   81SAPS  H10R 7536   4.563   4.290   9.791  1.6205 -2.5099 -0.4232
   81SAPS  H10S 7537   4.616   4.297   9.954  0.1746  2.2423 -0.4100
   81SAPS  C211 7538   4.407   4.360   9.922 -0.4912  0.1988  0.5968
   81SAPS  H11R 7539   4.387   4.391  10.026  0.2288  0.7356  0.5830
   81SAPS  C212 7540   4.325   4.403   9.823 -0.2642 -0.0180 -0.3671
   81SAPS  H12R 7541   4.230   4.452   9.850  0.2602 -0.1018  1.7435
   81SAPS  C213 7542   4.339   4.358   9.682 -0.4956 -0.2217  1.1820
   81SAPS  H13R 7543   4.235   4.350   9.644  0.4121  2.3297 -2.3147
   81SAPS  H13S 7544   4.392   4.261   9.667 -1.9249 -0.9552  0.7162
   81SAPS  C214 7545   4.400   4.470   9.592 -0.2483  0.0887  0.1785
   81SAPS  H14R 7546   4.346   4.565   9.606 -1.7226 -0.6409 -0.2672
   81SAPS  C215 7547   4.502   4.467   9.505 -0.1431  0.3416  0.3139
   81SAPS  H15R 7548   4.515   4.554   9.440  0.9056  0.5415  0.7689
   81SAPS  C216 7549   4.586   4.343   9.478 -0.1522 -0.3438 -0.5160
   81SAPS  H16R 7550   4.593   4.283   9.570  1.6977  2.4411  1.3056
   81SAPS  H16S 7551   4.691   4.363   9.447 -0.3551 -0.7180 -1.5034
   81SAPS  C217 7552   4.524   4.243   9.375  0.3683  0.4773  0.5878
   81SAPS  H17R 7553   4.434   4.209   9.431 -0.0123  1.0929  0.3479
   81SAPS  H17S 7554   4.601   4.163   9.368  0.9473  0.9292  1.5356
   81SAPS  C218 7555   4.489   4.295   9.238  0.6569  0.4782  0.0879
   81SAPS  H18R 7556   4.417   4.378   9.256 -1.8631 -1.6207  0.3961
   81SAPS  H18S 7557   4.434   4.218   9.179 -1.1642 -0.4382  2.7850
   81SAPS  C219 7558   4.614   4.365   9.173  0.4071 -0.9254 -0.4483
   81SAPS  H19R 7559   4.641   4.455   9.233 -0.6166  0.4997 -2.0403
   81SAPS  H19S 7560   4.580   4.410   9.077  0.9425 -0.6395 -0.5095
   81SAPS  C220 7561   4.739   4.281   9.147 -0.0675 -0.5466 -0.4698
   81SAPS  H20R 7562   4.797   4.264   9.240  1.4983  0.8847 -1.1467
   81SAPS  H20S 7563   4.803   4.340   9.078 -0.3448 -0.7425 -0.8954
   81SAPS  H20T 7564   4.704   4.192   9.090 -0.0286 -0.9529  0.1220
   81SAPS   C33 7565   4.926   4.598  10.487 -0.2298  0.3101 -0.1869
   81SAPS   H3X 7566   4.974   4.695  10.511  0.5300  0.0507 -0.5986
   81SAPS   H3Y 7567   4.817   4.612  10.474 -0.3510 -1.0508 -0.7967
   81SAPS   C34 7568   4.959   4.546  10.347 -0.0416 -0.1356 -0.1303
   81SAPS   H4X 7569   4.918   4.444  10.331  0.2717 -0.1192 -1.1463
   81SAPS   H4Y 7570   5.068   4.526  10.349 -0.0499 -0.2925 -0.9410
   81SAPS   C35 7571   4.907   4.643  10.239 -0.1530  0.2261  0.6961
   81SAPS   H5X 7572   4.961   4.739  10.246  0.2134  0.1254 -0.5573
   81SAPS   H5Y 7573   4.799   4.668  10.248  0.1266  1.1830  1.6469
   81SAPS   C36 7574   4.936   4.587  10.100  0.2349  1.1637  0.3550
   81SAPS   H6X 7575   4.879   4.492  10.090  1.5272  0.2172  1.5854
   81SAPS   H6Y 7576   5.043   4.559  10.112  0.2770 -0.0449 -2.3016
   81SAPS   C37 7577   4.934   4.691   9.994 -0.2629  0.4869 -0.0084
   81SAPS   H7X 7578   5.001   4.774  10.024  0.2616 -0.1289  0.5499
   81SAPS   H7Y 7579   4.833   4.735   9.978 -0.5526  0.4430  1.6040
   81SAPS   C38 7580   4.993   4.633   9.859  0.1182  0.5541 -0.2564
   81SAPS   H8X 7581   5.080   4.569   9.884  0.7105  1.5740  0.3678
   81SAPS   H8Y 7582   5.015   4.725   9.801 -0.4421  0.5619 -0.4655
   81SAPS   C39 7583   4.884   4.557   9.787  0.0536 -0.2058 -0.4095
   81SAPS   H9X 7584   4.788   4.612   9.782  0.0527 -0.3351 -3.9043
   81SAPS   H9Y 7585   4.867   4.468   9.851 -0.4647 -0.1712 -0.5014
   81SAPS  C310 7586   4.929   4.503   9.654 -0.0280  0.2245 -0.2648
   81SAPS  H10X 7587   4.861   4.425   9.613 -0.0488 -0.3332  0.7954
   81SAPS  H10Y 7588   5.032   4.465   9.671 -0.0194  0.3704  0.0126
   81SAPS  C311 7589   4.949   4.607   9.543  0.2461 -0.2505  0.6917
   81SAPS  H11X 7590   5.033   4.679   9.558 -1.5458  2.6190 -1.7353
   81SAPS  H11Y 7591   4.859   4.670   9.525 -0.7141 -1.6699  0.4206
   81SAPS  C312 7592   4.973   4.541   9.409 -0.4641 -0.2345  0.0230
   81SAPS  H12X 7593   4.965   4.626   9.338 -1.0060  0.8244  1.2889
   81SAPS  H12Y 7594   4.890   4.471   9.384 -1.1491  0.4617  0.3165
   81SAPS  C313 7595   5.114   4.475   9.401 -0.6814 -0.1199 -0.5571
   81SAPS  H13X 7596   5.128   4.409   9.489 -0.0947  1.2955  0.4444
   81SAPS  H13Y 7597   5.190   4.554   9.387 -0.5497 -0.6371 -3.1625
   81SAPS  C314 7598   5.107   4.385   9.283  0.2234 -0.0953  0.1010
   81SAPS  H14X 7599   5.017   4.320   9.288 -1.2306  1.8968  1.3631
   81SAPS  H14Y 7600   5.192   4.318   9.308 -1.2686 -1.6373  1.3525
   81SAPS  C315 7601   5.103   4.462   9.150 -0.0266  0.1686  0.9832
   81SAPS  H15X 7602   5.189   4.533   9.151  0.4806 -0.4176  0.3435
   81SAPS  H15Y 7603   5.011   4.523   9.141 -1.0928 -1.5650 -0.6258
   81SAPS  C316 7604   5.133   4.375   9.024  0.9753 -0.3579 -0.1255
   81SAPS  H16X 7605   5.054   4.298   9.012  1.9860 -1.1044 -2.4069
   81SAPS  H16Y 7606   5.228   4.319   9.035  0.9828 -0.4134 -0.4843
   81SAPS  C317 7607   5.138   4.462   8.901  1.1709  0.4836 -0.2301
   81SAPS  H17X 7608   5.221   4.536   8.891 -0.1734  2.0898 -0.0082
   81SAPS  H17Y 7609   5.045   4.523   8.893 -1.3533 -3.1101 -0.4550
   81SAPS  C318 7610   5.129   4.388   8.768 -0.1821 -0.2171  0.4060
   81SAPS  H18X 7611   5.119   4.457   8.682  0.1511  2.1683  2.1719
   81SAPS  H18Y 7612   5.045   4.317   8.756 -1.7831  2.0133 -2.9871
   81SAPS  H18Z 7613   5.227   4.340   8.746 -0.6174 -0.0299 -2.2481
   82SAPS     N 7614   3.743   3.389  11.100 -0.1834 -0.3945 -0.6831
   82SAPS   HN1 7615   3.724   3.408  11.000  1.1268  0.1058 -0.8627
   82SAPS   HN2 7616   3.841   3.353  11.097 -0.8300 -2.1901 -1.4399
   82SAPS   HN3 7617   3.681   3.320  11.146 -0.2647  0.7510  1.0051
   82SAPS   C12 7618   3.763   3.527  11.162 -0.0434  0.6008 -0.5101
   82SAPS  H12A 7619   3.694   3.538  11.244 -0.4161  3.9376 -1.1525
   82SAPS   C13 7620   3.903   3.549  11.216  0.3863  0.2235 -0.4570
   82SAPS  O13A 7621   3.976   3.446  11.213  0.1502  0.0218  0.2101
   82SAPS  O13B 7622   3.958   3.661  11.236  0.2986 -0.5683  0.0809
   82SAPS   C11 7623   3.740   3.635  11.060  0.7921  0.1709 -0.0571
   82SAPS  H11A 7624   3.818   3.628  10.981 -0.9011 -2.2912 -1.6492
   82SAPS  H11B 7625   3.755   3.733  11.110 -0.7098 -0.3529  1.5227
   82SAPS     P 7626   3.486   3.706  11.012  0.0918 -0.2166 -0.3768
   82SAPS   O13 7627   3.367   3.632  11.063  0.5361 -0.3365  0.3972
   82SAPS   O14 7628   3.521   3.829  11.079  0.6653 -0.4475  0.0694
   82SAPS   O12 7629   3.613   3.613  11.014  0.3651  0.1316 -0.2055
   82SAPS   O11 7630   3.465   3.726  10.858 -0.1340 -0.1485  0.2210
   82SAPS    C1 7631   3.515   3.828  10.773  0.1814 -0.0152  0.2786
   82SAPS    HA 7632   3.621   3.841  10.804  0.8365  0.3467 -1.9420
   82SAPS    HB 7633   3.522   3.801  10.666  0.7298 -0.9547  0.5462
   82SAPS    C2 7634   3.451   3.969  10.796 -0.2552 -0.2563 -0.0025
   82SAPS    HS 7635   3.454   3.987  10.905  1.1894  0.3265 -0.1182
   82SAPS   O21 7636   3.319   3.964  10.739  0.1799  0.1099  0.0957
   82SAPS   C21 7637   3.227   3.969  10.825  0.0851 -0.3999 -0.4671
   82SAPS   O22 7638   3.236   3.939  10.944  0.3899  0.2519 -0.1637
   82SAPS   C22 7639   3.095   4.018  10.758 -0.8276  0.8822 -0.2865
   82SAPS   H2R 7640   3.004   3.988  10.813 -0.1795 -2.0168 -0.6420
   82SAPS   H2S 7641   3.098   4.129  10.747  1.7515  0.9772  0.6877
   82SAPS    C3 7642   3.533   4.083  10.726 -0.2609  0.2475  0.5602
   82SAPS    HX 7643   3.629   4.101  10.781 -0.5649 -2.7056  2.2645
   82SAPS    HY 7644   3.467   4.170  10.748 -2.4360 -1.3890  0.7820
   82SAPS   O31 7645   3.561   4.061  10.589  0.7959  0.2407  0.1210
   82SAPS   C31 7646   3.480   4.121  10.496  0.3856 -0.3338 -0.1384
   82SAPS   O32 7647   3.382   4.190  10.512  0.0072 -0.4129  0.0386
   82SAPS   C32 7648   3.498   4.056  10.357 -0.1641 -0.7721 -0.5708
   82SAPS   H2X 7649   3.514   3.946  10.364  0.0563 -0.7167 -0.2014
   82SAPS   H2Y 7650   3.597   4.089  10.319  0.4468 -1.5098  0.3486
   82SAPS   C23 7651   3.062   3.954  10.620  0.6859 -0.5300 -0.1323
   82SAPS   H3R 7652   3.144   3.976  10.548  2.3893 -1.3394  1.4600
   82SAPS   H3S 7653   2.982   4.012  10.570 -0.5532 -0.9861  1.2523
   82SAPS   C24 7654   3.022   3.807  10.614 -0.2228  0.2517 -0.7879
   82SAPS   H4R 7655   3.001   3.787  10.507 -0.5703  0.7765 -0.8258
   82SAPS   H4S 7656   2.924   3.800  10.666 -0.1173  2.5308 -0.1626
   82SAPS   C25 7657   3.130   3.706  10.662 -0.4119 -0.0277  0.2855
   82SAPS   H5R 7658   3.133   3.678  10.769  1.2451 -3.2900 -0.4691
   82SAPS   C26 7659   3.239   3.669  10.586  0.5280 -0.1667 -1.0453
   82SAPS   H6R 7660   3.313   3.604  10.635 -0.3894  0.0217  0.6824
   82SAPS   C27 7661   3.267   3.716  10.444 -0.2161  0.3576 -0.2988
   82SAPS   H7R 7662   3.368   3.761  10.447 -0.1381  0.1701 -0.0697
   82SAPS   H7S 7663   3.202   3.798  10.406  1.7972  1.8057 -0.7551
   82SAPS   C28 7664   3.274   3.599  10.354  0.5026  0.7555 -0.5498
   82SAPS   H8R 7665   3.267   3.498  10.397 -0.9157  1.2803  0.5216
   82SAPS   C29 7666   3.264   3.604  10.217 -0.1891 -0.4064  0.3441
   82SAPS   H9R 7667   3.261   3.508  10.164  3.9549 -0.2280 -0.5673
   82SAPS  C210 7668   3.249   3.730  10.132  0.1084  0.3609  0.1734
   82SAPS  H10R 7669   3.342   3.743  10.073 -1.4295 -0.2697 -2.5966
   82SAPS  H10S 7670   3.245   3.822  10.195  1.8281  1.5969 -1.4167
   82SAPS  C211 7671   3.132   3.727  10.037  0.7182 -0.5645  0.3292
   82SAPS  H11R 7672   3.056   3.649  10.046 -1.0095  1.0821  0.6650
   82SAPS  C212 7673   3.108   3.816   9.930  0.3707  0.1221 -0.5708
   82SAPS  H12R 7674   3.016   3.806   9.870 -0.1027 -3.3473  0.5220
   82SAPS  C213 7675   3.192   3.937   9.889 -0.0556 -0.0460 -0.0922
   82SAPS  H13R 7676   3.253   3.962   9.979  2.4884 -1.8824 -1.1892
   82SAPS  H13S 7677   3.118   4.017   9.865 -1.4282 -1.2729 -0.0797
   82SAPS  C214 7678   3.288   3.890   9.780  0.2712  0.6470 -0.3713
   82SAPS  H14R 7679   3.322   3.786   9.790 -0.8669  0.2437 -0.4540
   82SAPS  C215 7680   3.327   3.951   9.670  0.5086 -0.1588 -0.7698
   82SAPS  H15R 7681   3.385   3.900   9.592  1.6796  2.0423 -1.4272
   82SAPS  C216 7682   3.275   4.086   9.639  0.2084  0.5423 -0.1888
   82SAPS  H16R 7683   3.365   4.140   9.602  1.1022  0.1443  1.3329
   82SAPS  H16S 7684   3.238   4.137   9.730 -0.2711 -0.1979  0.0360
   82SAPS  C217 7685   3.158   4.093   9.541 -0.3132 -0.0239 -0.2285
   82SAPS  H17R 7686   3.095   4.183   9.560  0.8960  0.7065  0.4557
   82SAPS  H17S 7687   3.090   4.007   9.556 -0.5768  0.1500 -0.4112
   82SAPS  C218 7688   3.210   4.101   9.400 -0.3997 -0.2990  0.1675
   82SAPS  H18R 7689   3.240   3.998   9.371  0.3902 -0.8234  2.6213
   82SAPS  H18S 7690   3.301   4.163   9.388 -1.3931  0.9097 -1.8454
   82SAPS  C219 7691   3.115   4.155   9.290 -0.3001 -0.1881 -0.2878
   82SAPS  H19R 7692   3.075   4.251   9.328 -0.4322 -0.4173  0.1516
   82SAPS  H19S 7693   3.025   4.090   9.282 -1.2163  0.8932  0.9146
   82SAPS  C220 7694   3.180   4.174   9.150 -1.0592 -0.8861  0.1682
   82SAPS  H20R 7695   3.126   4.255   9.096  0.9114  1.4641  1.5022
   82SAPS  H20S 7696   3.189   4.079   9.093 -2.1144 -0.9334  0.0718
   82SAPS  H20T 7697   3.282   4.216   9.167 -1.2245 -0.9038  1.2774
   82SAPS   C33 7698   3.385   4.096  10.266 -0.5351 -0.5937  0.4489
   82SAPS   H3X 7699   3.285   4.072  10.309 -1.6200 -1.0035 -2.1455
   82SAPS   H3Y 7700   3.389   4.028  10.179  1.0047 -0.7178  0.5952
   82SAPS   C34 7701   3.373   4.248  10.226  0.5031 -0.4037  0.7743
   82SAPS   H4X 7702   3.341   4.310  10.312 -1.1365  0.9061 -0.6942
   82SAPS   H4Y 7703   3.292   4.269  10.153 -0.0794  1.2487  1.8447
   82SAPS   C35 7704   3.494   4.308  10.145  0.6419  0.6518 -0.9785
   82SAPS   H5X 7705   3.593   4.298  10.194  0.6624 -0.5515 -1.2276
   82SAPS   H5Y 7706   3.474   4.417  10.135  0.2353  0.9366  2.0202
   82SAPS   C36 7707   3.512   4.250   9.998  0.5524  0.1253 -0.0214
   82SAPS   H6X 7708   3.427   4.285   9.935 -1.9449 -2.7415  1.5056
   82SAPS   H6Y 7709   3.507   4.140  10.008  2.1356 -0.3226 -2.9557
   82SAPS   C37 7710   3.651   4.282   9.936 -0.6791  0.0025 -0.3096
   82SAPS   H7X 7711   3.670   4.226   9.843 -0.5458  0.2295 -0.4195
   82SAPS   H7Y 7712   3.726   4.237  10.005 -1.0123  0.1409  0.1542
   82SAPS   C38 7713   3.675   4.428   9.910  0.9396 -0.2219  0.7983
   82SAPS   H8X 7714   3.783   4.435   9.885  0.6082 -0.0563 -0.7229
   82SAPS   H8Y 7715   3.652   4.481  10.005 -0.4686 -0.1466  0.4298
   82SAPS   C39 7716   3.585   4.491   9.805 -0.1626  0.8455 -0.1234
   82SAPS   H9X 7717   3.615   4.598   9.813  0.8019  0.6375 -0.7817
   82SAPS   H9Y 7718   3.479   4.483   9.835  0.4672 -1.1897  1.7311
   82SAPS  C310 7719   3.610   4.441   9.662  0.6604 -0.2798  0.4980
   82SAPS  H10X 7720   3.614   4.330   9.671  0.4508 -0.2148  1.4997
   82SAPS  H10Y 7721   3.705   4.483   9.621 -0.8758  2.2085 -0.7581
   82SAPS  C311 7722   3.492   4.474   9.573 -0.4975  0.5596 -0.0420
   82SAPS  H11X 7723   3.479   4.584   9.586 -1.7983  0.6289 -1.6174
   82SAPS  H11Y 7724   3.401   4.424   9.613 -0.6632  0.6823 -0.2671
   82SAPS  C312 7725   3.527   4.435   9.430  0.3529  0.1939  0.1684
   82SAPS  H12X 7726   3.519   4.325   9.436 -1.2649  0.2942  0.1114
   82SAPS  H12Y 7727   3.632   4.468   9.414  0.1633  1.4139  1.2362
   82SAPS  C313 7728   3.440   4.487   9.324  0.9828 -0.1068 -0.1787
   82SAPS  H13X 7729   3.449   4.597   9.329  0.8938 -0.0846 -0.4572
   82SAPS  H13Y 7730   3.333   4.460   9.341  0.7670  1.8557  2.0323
   82SAPS  C314 7731   3.474   4.452   9.178 -0.0738  0.2943 -0.2963
   82SAPS  H14X 7732   3.374   4.437   9.133 -0.5256  0.0459  0.7537
   82SAPS  H14Y 7733   3.534   4.358   9.172  0.3492  0.6384 -1.8480
   82SAPS  C315 7734   3.543   4.564   9.091 -0.6301 -0.9014 -0.0063
   82SAPS  H15X 7735   3.615   4.627   9.147 -2.1344 -1.4869  2.7813
   82SAPS  H15Y 7736   3.465   4.641   9.070 -2.3223 -1.5933  3.0475
   82SAPS  C316 7737   3.605   4.500   8.967 -0.4592 -0.5378  1.1051
   82SAPS  H16X 7738   3.523   4.442   8.918  1.0667 -1.5818 -0.3158
   82SAPS  H16Y 7739   3.688   4.431   8.993  0.3142  0.0321  0.2183
   82SAPS  C317 7740   3.650   4.606   8.858 -0.4461 -0.1828  0.0220
   82SAPS  H17X 7741   3.721   4.681   8.899 -0.1485 -1.1429  1.3221
   82SAPS  H17Y 7742   3.561   4.669   8.836 -0.4831 -0.2969 -0.1561
   82SAPS  C318 7743   3.695   4.529   8.727 -0.5026  0.1361 -0.2611
   82SAPS  H18X 7744   3.784   4.587   8.694  0.2084  1.9062  4.0910
   82SAPS  H18Y 7745   3.616   4.536   8.649 -0.3501 -0.9464 -0.5334
   82SAPS  H18Z 7746   3.730   4.425   8.746 -0.3791  0.1279 -0.5311
   83SAPS     N 7747   4.503   5.416  11.535  0.1601  0.1386 -0.1851
   83SAPS   HN1 7748   4.518   5.408  11.433  0.6312 -3.2383  0.0080
   83SAPS   HN2 7749   4.404   5.395  11.558  0.1026 -0.2204 -0.7491
   83SAPS   HN3 7750   4.517   5.512  11.571 -0.6371  0.1905  0.0032
   83SAPS   C12 7751   4.595   5.322  11.612  0.6513  0.3158  0.3467
   83SAPS  H12A 7752   4.681   5.380  11.641 -0.3826  1.0361  2.1628
   83SAPS   C13 7753   4.535   5.285  11.753 -0.7962  0.2905  0.2071
   83SAPS  O13A 7754   4.438   5.351  11.792 -0.4156 -0.0148  0.5542
   83SAPS  O13B 7755   4.607   5.215  11.828  0.1376  0.1719  0.2611
   83SAPS   C11 7756   4.618   5.195  11.522 -0.2865  0.6046 -0.8427
   83SAPS  H11A 7757   4.517   5.159  11.492  0.5094 -0.4929 -2.3634
   83SAPS  H11B 7758   4.676   5.123  11.584 -1.7869  1.1282  1.2832
   83SAPS     P 7759   4.742   5.131  11.310  0.0350 -0.1892 -0.1029
   83SAPS   O13 7760   4.833   5.195  11.208 -0.1187  0.8706 -0.4375
   83SAPS   O14 7761   4.793   5.022  11.389  0.1496  0.3364  0.1517
   83SAPS   O12 7762   4.699   5.240  11.416 -0.1318  0.1169  0.0134
   83SAPS   O11 7763   4.600   5.105  11.251 -0.9551  0.3289  0.0658
   83SAPS    C1 7764   4.542   4.994  11.180 -0.7722 -0.3221 -0.7452
   83SAPS    HA 7765   4.604   4.902  11.179  0.5704  0.5335  0.0856
   83SAPS    HB 7766   4.449   4.961  11.231 -1.1115  2.0413  0.3022
   83SAPS    C2 7767   4.523   5.026  11.027 -0.4161 -1.0076 -0.6357
   83SAPS    HS 7768   4.480   4.933  10.983 -0.2330 -0.3252 -2.3628
   83SAPS   O21 7769   4.650   5.071  10.970  0.2411 -0.0437 -0.3337
   83SAPS   C21 7770   4.737   4.973  10.958 -0.1698  0.1136 -0.9232
   83SAPS   O22 7771   4.720   4.852  10.992  0.3590 -0.4051  0.6350
   83SAPS   C22 7772   4.867   5.035  10.896  0.1733  0.1132 -0.9417
   83SAPS   H2R 7773   4.855   5.143  10.872 -1.0950  0.0351 -0.7619
   83SAPS   H2S 7774   4.956   5.021  10.960  1.3394  2.3292 -1.9817
   83SAPS    C3 7775   4.414   5.134  11.011 -0.1897  0.1409  0.3082
   83SAPS    HX 7776   4.452   5.227  11.057 -2.0711  1.9100 -1.5042
   83SAPS    HY 7777   4.317   5.122  11.065 -0.9679  1.2497 -0.7703
   83SAPS   O31 7778   4.377   5.174  10.872  0.3050 -0.4069 -0.3342
   83SAPS   C31 7779   4.296   5.087  10.815  0.7495 -0.5359 -0.2282
   83SAPS   O32 7780   4.263   4.989  10.869  0.3107  0.1770 -0.1174
   83SAPS   C32 7781   4.263   5.123  10.671 -0.6463 -0.1945 -0.2977
   83SAPS   H2X 7782   4.360   5.119  10.618  0.0280 -2.4917  0.9302
   83SAPS   H2Y 7783   4.222   5.226  10.672  0.4428  0.2542  1.0239
   83SAPS   C23 7784   4.900   4.951  10.765  0.1861  0.0983  0.3915
   83SAPS   H3R 7785   4.823   4.958  10.685  0.7368 -0.9192 -0.2517
   83SAPS   H3S 7786   4.897   4.844  10.794  0.3570 -0.3505 -1.1680
   83SAPS   C24 7787   5.038   4.974  10.709 -0.5179 -0.0887  0.2065
   83SAPS   H4R 7788   5.071   4.890  10.644 -1.0268 -0.7689  0.8251
   83SAPS   H4S 7789   5.119   4.968  10.784  1.0441  3.0587 -1.0162
   83SAPS   C25 7790   5.047   5.104  10.628 -0.7477  0.0175 -0.1203
   83SAPS   H5R 7791   5.097   5.185  10.684  3.0759 -1.0221 -1.7485
   83SAPS   C26 7792   5.039   5.111  10.499  0.4181 -0.0185 -0.3800
   83SAPS   H6R 7793   5.048   5.209  10.449 -1.2586  0.3575 -0.0011
   83SAPS   C27 7794   5.011   5.005  10.399 -0.4645  0.4013 -0.3052
   83SAPS   H7R 7795   4.917   5.039  10.351 -0.5100  1.6680  0.6561
   83SAPS   H7S 7796   4.991   4.912  10.458  1.1460 -0.0909 -0.4730
   83SAPS   C28 7797   5.119   4.990  10.291 -0.3049  0.1443 -0.3303
   83SAPS   H8R 7798   5.190   4.906  10.302 -1.5666 -0.7336  1.7627
   83SAPS   C29 7799   5.142   5.065  10.184 -0.5118  0.0703  0.5532
   83SAPS   H9R 7800   5.222   5.032  10.116 -0.5365 -0.3335  0.7167
   83SAPS  C210 7801   5.064   5.183  10.139  0.5526  0.5365 -0.0327
   83SAPS  H10R 7802   5.116   5.224  10.049  2.6407 -1.4155  0.1995
   83SAPS  H10S 7803   5.081   5.263  10.214  2.2337 -0.3154  0.5645
   83SAPS  C211 7804   4.917   5.165  10.119  0.7097 -0.4457 -0.8607
   83SAPS  H11R 7805   4.855   5.199  10.203  0.9843  1.5309 -1.3952
   83SAPS  C212 7806   4.857   5.122  10.006  0.5794  0.5041 -0.3082
   83SAPS  H12R 7807   4.752   5.091  10.016  0.6585  0.4112  0.2963
   83SAPS  C213 7808   4.923   5.081   9.885 -0.7480 -0.6026 -0.0161
   83SAPS  H13R 7809   4.908   4.971   9.876 -1.4914 -0.3649 -2.5766
   83SAPS  H13S 7810   5.034   5.089   9.886 -0.6840 -0.6744 -1.9368
   83SAPS  C214 7811   4.876   5.149   9.756  0.3051 -0.4809  0.4667
   83SAPS  H14R 7812   4.892   5.257   9.748 -2.2184 -0.1952 -4.1219
   83SAPS  C215 7813   4.819   5.091   9.649 -0.1073  0.1682  0.2485
   83SAPS  H15R 7814   4.785   5.151   9.563  2.7711 -0.0927 -1.1933
   83SAPS  C216 7815   4.792   4.943   9.645  0.2526  0.1376  0.4033
   83SAPS  H16R 7816   4.784   4.897   9.746 -0.2090  0.2403  0.4168
   83SAPS  H16S 7817   4.881   4.882   9.617 -0.5864 -1.8765  1.8109
   83SAPS  C217 7818   4.679   4.895   9.555 -0.0177  0.4139  0.6643
   83SAPS  H17R 7819   4.588   4.948   9.593 -1.6095 -2.6291  1.3954
   83SAPS  H17S 7820   4.661   4.786   9.559  0.1190  0.3992  0.9514
   83SAPS  C218 7821   4.713   4.922   9.409  0.0197 -0.7040  0.3037
   83SAPS  H18R 7822   4.818   4.898   9.385  0.3423 -0.8652  1.8429
   83SAPS  H18S 7823   4.697   5.030   9.385  0.4726 -0.1323  2.4469
   83SAPS  C219 7824   4.626   4.845   9.295  0.0036 -0.2866 -0.3050
   83SAPS  H19R 7825   4.646   4.736   9.309 -1.9124 -0.8507 -1.5997
   83SAPS  H19S 7826   4.659   4.892   9.201 -1.0033  2.2438  0.5360
   83SAPS  C220 7827   4.471   4.860   9.304  0.3646  0.1417 -0.3933
   83SAPS  H20R 7828   4.448   4.965   9.276 -0.8498  0.0894  0.3422
   83SAPS  H20S 7829   4.443   4.857   9.411  2.0178  0.9596  0.0897
   83SAPS  H20T 7830   4.429   4.783   9.236  1.3253 -0.0013 -0.8518
   83SAPS   C33 7831   4.170   5.023  10.601  0.0998  0.5699  0.9920
   83SAPS   H3X 7832   4.065   5.025  10.637 -0.4397  2.8813 -0.4752
   83SAPS   H3Y 7833   4.215   4.922  10.613  0.8449  0.0756 -3.8523
   83SAPS   C34 7834   4.149   5.060  10.452  0.7220  0.4893 -0.1700
   83SAPS   H4X 7835   4.243   5.097  10.407  0.6349 -0.8148 -1.5189
   83SAPS   H4Y 7836   4.085   5.151  10.441  1.0015  1.0132  2.1388
   83SAPS   C35 7837   4.083   4.938  10.372 -0.2569 -0.7224 -0.9622
   83SAPS   H5X 7838   3.979   4.910  10.403 -0.5464 -1.2976 -2.3859
   83SAPS   H5Y 7839   4.138   4.842  10.387  0.6923  0.1543  1.8503
   83SAPS   C36 7840   4.104   4.947  10.223  0.5066  0.1628  0.4116
   83SAPS   H6X 7841   4.215   4.947  10.213  0.4322 -2.3699 -1.4456
   83SAPS   H6Y 7842   4.054   5.037  10.181 -3.3441 -1.1456  1.7333
   83SAPS   C37 7843   4.057   4.832  10.140 -0.3853 -0.0887 -0.0957
   83SAPS   H7X 7844   3.952   4.813  10.169  0.1128 -1.2438  1.0678
   83SAPS   H7Y 7845   4.099   4.734  10.171  0.3269 -0.7928 -2.9659
   83SAPS   C38 7846   4.069   4.853   9.978  0.2631 -0.0598 -1.1864
   83SAPS   H8X 7847   4.179   4.848   9.964  0.7563 -1.7259  2.1471
   83SAPS   H8Y 7848   4.021   4.949   9.950  1.0310  0.7333  0.1382
   83SAPS   C39 7849   4.015   4.736   9.894 -0.0993  0.2708 -0.3272
   83SAPS   H9X 7850   3.910   4.707   9.917 -0.5545  1.5223 -0.7867
   83SAPS   H9Y 7851   4.082   4.650   9.916 -0.9933 -0.6659 -1.1525
   83SAPS  C310 7852   4.032   4.767   9.746 -0.3120  0.3457 -0.1436
   83SAPS  H10X 7853   4.131   4.817   9.735  0.1161  1.3289  5.1447
   83SAPS  H10Y 7854   3.949   4.834   9.716 -2.0114 -0.6325  2.0522
   83SAPS  C311 7855   4.043   4.640   9.660 -0.6795 -0.0056 -0.2426
   83SAPS  H11X 7856   3.962   4.571   9.692  0.4474 -1.2132  0.1111
   83SAPS  H11Y 7857   4.135   4.583   9.688  0.3228  1.6106 -0.1093
   83SAPS  C312 7858   4.026   4.670   9.512  0.4275 -0.2900 -0.8181
   83SAPS  H12X 7859   4.105   4.745   9.493  1.0313 -0.5035  0.6788
   83SAPS  H12Y 7860   3.926   4.714   9.494  0.7200  0.2919 -1.0435
   83SAPS  C313 7861   4.037   4.560   9.406  0.3200 -0.9014  0.9420
   83SAPS  H13X 7862   4.135   4.510   9.420  0.8609 -0.5781 -1.3139
   83SAPS  H13Y 7863   4.039   4.610   9.307  1.4140 -1.3710  0.7101
   83SAPS  C314 7864   3.914   4.464   9.418  0.5440  0.8858 -0.2400
   83SAPS  H14X 7865   3.820   4.511   9.381 -0.5432  0.1955  1.4967
   83SAPS  H14Y 7866   3.904   4.444   9.527  2.0158  1.4704  0.0134
   83SAPS  C315 7867   3.929   4.332   9.345 -0.6031  0.0518  0.5919
   83SAPS  H15X 7868   3.956   4.360   9.241  0.6635  0.1503  0.9231
   83SAPS  H15Y 7869   3.834   4.275   9.344  1.0955 -2.9920  0.7453
   83SAPS  C316 7870   4.039   4.241   9.402 -0.0274 -0.3928  0.3957
   83SAPS  H16X 7871   4.143   4.279   9.391 -0.8292  1.6350 -0.5814
   83SAPS  H16Y 7872   4.038   4.142   9.352  0.6731  0.2008 -0.8315
   83SAPS  C317 7873   4.014   4.202   9.551 -0.0945  0.0247 -0.0128
   83SAPS  H17X 7874   3.914   4.162   9.577 -0.2390 -1.9473 -3.1254
   83SAPS  H17Y 7875   4.037   4.296   9.607 -0.0997  1.3825 -2.1726
   83SAPS  C318 7876   4.102   4.081   9.599  0.2497 -0.2017  0.6987
   83SAPS  H18X 7877   4.207   4.117   9.600 -0.5538  2.3313  0.8979
   83SAPS  H18Y 7878   4.082   3.993   9.534  1.4308  0.7176 -0.9516
   83SAPS  H18Z 7879   4.081   4.051   9.704 -2.3741  0.7749  0.5254
   84SAPS     N 7880   6.214   5.053  11.398  0.0397  0.0512 -0.2913
   84SAPS   HN1 7881   6.128   5.016  11.353  0.0300 -0.7713  0.3925
   84SAPS   HN2 7882   6.201   5.062  11.501 -1.7428 -0.0658 -0.4793
   84SAPS   HN3 7883   6.246   5.148  11.367  1.4002  0.0168  0.8746
   84SAPS   C12 7884   6.334   4.967  11.373  0.9235 -0.0587 -0.0606
   84SAPS  H12A 7885   6.414   5.016  11.426 -0.7230  1.9042  0.7365
   84SAPS   C13 7886   6.326   4.822  11.437 -0.0406 -0.6870 -0.0077
   84SAPS  O13A 7887   6.219   4.788  11.501 -0.0770  0.2872 -0.6583
   84SAPS  O13B 7888   6.430   4.756  11.445 -0.0791  0.0846  0.3330
   84SAPS   C11 7889   6.360   4.952  11.218  0.2303  0.3667  0.7247
   84SAPS  H11A 7890   6.263   4.935  11.167  0.3882 -1.2337  0.9008
   84SAPS  H11B 7891   6.415   4.857  11.201  2.1914  1.6872 -0.7040
   84SAPS     P 7892   6.403   5.169  11.069  0.3351  0.2983 -0.3134
   84SAPS   O13 7893   6.267   5.216  11.093  0.1962 -0.1523  0.1139
   84SAPS   O14 7894   6.515   5.265  11.077 -0.2569  0.0612 -0.3231
   84SAPS   O12 7895   6.439   5.061  11.173 -0.1666 -0.0857 -0.3375
   84SAPS   O11 7896   6.403   5.094  10.936 -0.1062  0.3787  1.0169
   84SAPS    C1 7897   6.519   5.061  10.858  0.0848 -0.1786  0.0987
   84SAPS    HA 7898   6.605   5.036  10.923 -0.7397  1.6176  1.9654
   84SAPS    HB 7899   6.499   4.978  10.787  1.8150  2.1925 -3.4866
   84SAPS    C2 7900   6.565   5.170  10.755  0.1449 -0.0593  0.1879
   84SAPS    HS 7901   6.579   5.266  10.808 -0.3702 -0.5321  1.1895
   84SAPS   O21 7902   6.462   5.182  10.659  0.1318 -0.5813 -0.1474
   84SAPS   C21 7903   6.459   5.287  10.585 -0.4073 -0.1094  0.2622
   84SAPS   O22 7904   6.505   5.400  10.614 -0.4909  0.7373 -0.3637
   84SAPS   C22 7905   6.368   5.269  10.463 -0.0048  0.1095  0.0961
   84SAPS   H2R 7906   6.388   5.165  10.430  0.7658  0.7841 -1.6612
   84SAPS   H2S 7907   6.266   5.281  10.505  0.7740 -1.9731  2.9054
   84SAPS    C3 7908   6.703   5.141  10.687 -0.2297 -0.1333 -0.3545
   84SAPS    HX 7909   6.694   5.041  10.640  0.7666 -0.8976  1.0140
   84SAPS    HY 7910   6.788   5.134  10.759  0.4567 -1.8591 -1.2619
   84SAPS   O31 7911   6.747   5.241  10.588  0.8191 -0.2247 -0.1852
   84SAPS   C31 7912   6.798   5.195  10.478 -0.2166 -0.5806  0.2723
   84SAPS   O32 7913   6.805   5.078  10.442  0.2596 -0.3518  0.0536
   84SAPS   C32 7914   6.853   5.321  10.410 -0.7238 -0.3135 -0.0406
   84SAPS   H2X 7915   6.914   5.390  10.472  1.1172 -0.5159 -1.5309
   84SAPS   H2Y 7916   6.767   5.378  10.369 -0.4207 -0.2137 -0.5504
   84SAPS   C23 7917   6.376   5.368  10.338  0.2950  0.3090  0.1307
   84SAPS   H3R 7918   6.466   5.431  10.325 -0.2067  0.6089 -2.3048
   84SAPS   H3S 7919   6.308   5.449  10.371  2.4701  1.3266  2.4732
   84SAPS   C24 7920   6.337   5.285  10.216 -0.5708  0.0032  0.5797
   84SAPS   H4R 7921   6.290   5.358  10.145  2.7461  2.3208  0.5318
   84SAPS   H4S 7922   6.255   5.217  10.247  0.7219 -2.9152 -1.8961
   84SAPS   C25 7923   6.445   5.206  10.143 -0.0014  0.5513 -0.6112
   84SAPS   H5R 7924   6.489   5.121  10.197  0.9636  1.7860  0.6220
   84SAPS   C26 7925   6.490   5.229  10.021  0.4897  0.4325  0.2767
   84SAPS   H6R 7926   6.568   5.164   9.981 -0.3227 -0.6607  0.4316
   84SAPS   C27 7927   6.454   5.347   9.934 -0.1556 -0.6990 -0.0908
   84SAPS   H7R 7928   6.395   5.421   9.991 -1.1474 -1.6292  0.1184
   84SAPS   H7S 7929   6.377   5.309   9.864  1.3476 -1.2202 -1.5351
   84SAPS   C28 7930   6.571   5.416   9.866  0.8043 -0.6734 -0.6783
   84SAPS   H8R 7931   6.652   5.451   9.931  0.8037 -0.2887 -0.8822
   84SAPS   C29 7932   6.573   5.436   9.732 -0.3747  0.4220  0.5303
   84SAPS   H9R 7933   6.651   5.503   9.693  0.4786 -0.7417  0.2108
   84SAPS  C210 7934   6.483   5.390   9.623  0.1952 -0.3666 -0.4533
   84SAPS  H10R 7935   6.499   5.450   9.530 -0.7982  1.7629  0.6614
   84SAPS  H10S 7936   6.379   5.407   9.660  0.5095  0.6175  0.0166
   84SAPS  C211 7937   6.492   5.246   9.601  0.0672 -0.1945  0.7017
   84SAPS  H11R 7938   6.527   5.188   9.687  2.4798  1.0898  0.6830
   84SAPS  C212 7939   6.488   5.188   9.480 -0.1165 -0.7338  0.1228
   84SAPS  H12R 7940   6.477   5.078   9.477  0.7380 -0.8775  1.4203
   84SAPS  C213 7941   6.475   5.260   9.346 -0.0127  0.1937 -0.2950
   84SAPS  H13R 7942   6.528   5.357   9.359  0.2152  0.2146 -1.3054
   84SAPS  H13S 7943   6.367   5.281   9.334  0.1659  2.9637  1.9031
   84SAPS  C214 7944   6.538   5.196   9.223  0.2050  0.2638  0.0443
   84SAPS  H14R 7945   6.584   5.097   9.239  0.3188 -0.1492 -2.4706
   84SAPS  C215 7946   6.546   5.250   9.105  0.7401 -0.1697 -0.0379
   84SAPS  H15R 7947   6.592   5.186   9.029 -0.4060  0.1946 -1.0620
   84SAPS  C216 7948   6.499   5.383   9.070 -0.2451 -0.3194 -0.6121
   84SAPS  H16R 7949   6.563   5.432   8.994 -2.5950  1.2527 -1.7118
   84SAPS  H16S 7950   6.486   5.449   9.159 -2.1631 -3.0305  1.2676
   84SAPS  C217 7951   6.365   5.375   8.995  0.0527  0.2553  0.3166
   84SAPS  H17R 7952   6.311   5.472   8.998 -1.0206 -0.3388  0.7681
   84SAPS  H17S 7953   6.292   5.315   9.054  0.3354  0.3854  0.8011
   84SAPS  C218 7954   6.379   5.325   8.848  0.6780 -0.1103  0.6150
   84SAPS  H18R 7955   6.411   5.218   8.841  1.3543 -0.1953  3.8161
   84SAPS  H18S 7956   6.459   5.385   8.799  0.8506 -1.4990 -0.8888
   84SAPS  C219 7957   6.259   5.334   8.757  0.8761  0.6884 -0.1400
   84SAPS  H19R 7958   6.220   5.438   8.767  0.4267  0.4793  0.2350
   84SAPS  H19S 7959   6.187   5.258   8.791  2.6606 -0.2950  1.6593
   84SAPS  C220 7960   6.272   5.311   8.608 -0.4253 -1.0565 -0.1142
   84SAPS  H20R 7961   6.307   5.206   8.596  0.8503 -0.5116 -1.4847
   84SAPS  H20S 7962   6.354   5.375   8.568 -0.1924 -0.4065  1.3690
   84SAPS  H20T 7963   6.170   5.323   8.564 -0.8972 -0.4286  1.1147
   84SAPS   C33 7964   6.947   5.289  10.289  0.3004  0.9525  0.0387
   84SAPS   H3X 7965   7.014   5.204  10.312 -1.5723 -0.3980  0.7102
   84SAPS   H3Y 7966   7.008   5.381  10.275 -0.8391  2.2120  2.6371
   84SAPS   C34 7967   6.859   5.255  10.174  0.1565 -0.1801  0.5526
   84SAPS   H4X 7968   6.793   5.342  10.152 -0.6014 -0.8076  0.2946
   84SAPS   H4Y 7969   6.774   5.187  10.198 -0.2118 -0.3993 -1.2298
   84SAPS   C35 7970   6.928   5.221  10.041 -0.1341 -0.7549 -0.3905
   84SAPS   H5X 7971   7.017   5.158  10.063 -1.0211 -1.4974  1.2559
   84SAPS   H5Y 7972   6.976   5.314  10.004 -1.6912 -0.5755 -2.0884
   84SAPS   C36 7973   6.851   5.173   9.928 -0.7375 -0.2365 -0.6477
   84SAPS   H6X 7974   6.783   5.254   9.896  0.3679  0.7762 -0.4945
   84SAPS   H6Y 7975   6.784   5.086   9.948 -0.9297  0.2472  0.8827
   84SAPS   C37 7976   6.941   5.129   9.813 -0.3509  0.2905 -0.0095
   84SAPS   H7X 7977   6.964   5.021   9.802  0.8190  0.7484 -3.2154
   84SAPS   H7Y 7978   7.036   5.186   9.818 -0.7310  1.3007 -2.8338
   84SAPS   C38 7979   6.878   5.174   9.681 -0.2261 -0.5011 -0.3258
   84SAPS   H8X 7980   6.857   5.283   9.685 -2.4885 -0.9269  1.3746
   84SAPS   H8Y 7981   6.779   5.125   9.673 -0.6383  0.0284  1.2626
   84SAPS   C39 7982   6.965   5.136   9.559  0.1375  0.1874 -0.1242
   84SAPS   H9X 7983   6.984   5.027   9.554  1.5314  0.4152 -0.4051
   84SAPS   H9Y 7984   7.068   5.178   9.562 -0.5678  2.0482 -0.7801
   84SAPS  C310 7985   6.900   5.181   9.423 -0.2136 -0.7756 -0.0737
   84SAPS  H10X 7986   6.832   5.269   9.435 -0.6002 -1.2617  1.4692
   84SAPS  H10Y 7987   6.844   5.092   9.388 -1.0050 -1.1472  1.9869
   84SAPS  C311 7988   7.013   5.218   9.321 -0.3957 -0.1347  0.3137
   84SAPS  H11X 7989   7.098   5.147   9.330 -0.5656 -0.4135 -0.1711
   84SAPS  H11Y 7990   7.047   5.320   9.347 -2.0605  0.6637 -0.4634
   84SAPS  C312 7991   6.951   5.216   9.180  0.0334  0.0005  0.3535
   84SAPS  H12X 7992   6.855   5.270   9.188  0.1828  0.5622 -1.2162
   84SAPS  H12Y 7993   6.931   5.110   9.150  1.6644  0.2599 -2.0253
   84SAPS  C313 7994   7.036   5.288   9.072  0.3527 -0.5494 -0.0511
   84SAPS  H13X 7995   7.118   5.228   9.028  1.1392 -0.3621  1.1022
   84SAPS  H13Y 7996   7.080   5.381   9.112 -4.3168  3.1320 -2.4600
   84SAPS  C314 7997   6.935   5.332   8.963  0.3400 -0.4219  0.2185
   84SAPS  H14X 7998   6.983   5.396   8.887  1.8591 -1.1130  0.5702
   84SAPS  H14Y 7999   6.853   5.385   9.017  1.2597  1.3587 -0.0623
   84SAPS  C315 8000   6.884   5.211   8.880 -0.1804  0.3845 -0.0674
   84SAPS  H15X 8001   6.815   5.145   8.938  0.2566 -0.8628 -0.9323
   84SAPS  H15Y 8002   6.975   5.153   8.855 -0.8721 -1.0863  0.6980
   84SAPS  C316 8003   6.811   5.256   8.749  0.0559  0.7845  0.5146
   84SAPS  H16X 8004   6.869   5.331   8.693  0.7262 -0.3599 -0.3725
   84SAPS  H16Y 8005   6.711   5.295   8.778  0.0567 -0.3825  2.2697
   84SAPS  C317 8006   6.771   5.143   8.652  0.0016 -0.2144  0.0381
   84SAPS  H17X 8007   6.844   5.119   8.572  0.6451  1.3471  0.1080
   84SAPS  H17Y 8008   6.693   5.189   8.588  1.5840  2.0357 -0.3871
   84SAPS  C318 8009   6.721   5.018   8.720  0.2869 -0.9678  0.1867
   84SAPS  H18X 8010   6.796   4.976   8.791  1.8850  0.1623 -0.7590
   84SAPS  H18Y 8011   6.703   4.935   8.649 -0.6458 -0.9215  0.3675
   84SAPS  H18Z 8012   6.634   5.028   8.788 -1.7149  0.8075 -2.4375
   85SAPS     N 8013   3.348   0.215  10.973  0.2943 -0.1755  0.0638
   85SAPS   HN1 8014   3.438   0.229  11.023  0.6497  0.8698 -0.8230
   85SAPS   HN2 8015   3.323   0.115  10.967 -0.5091  0.0994 -1.4578
   85SAPS   HN3 8016   3.367   0.256  10.880 -2.8091  0.7045 -0.3101
   85SAPS   C12 8017   3.242   0.286  11.044  0.0304  0.4811  0.0161
   85SAPS  H12A 8018   3.163   0.295  10.972  0.3737  0.6960 -0.3407
   85SAPS   C13 8019   3.182   0.208  11.160 -0.4708 -0.1783 -0.0858
   85SAPS  O13A 8020   3.249   0.116  11.208  0.1901  0.6870 -0.0371
   85SAPS  O13B 8021   3.087   0.264  11.219 -0.1565  0.0875 -0.6091
   85SAPS   C11 8022   3.300   0.425  11.096 -0.5329 -0.1795 -0.8732
   85SAPS  H11A 8023   3.392   0.414  11.157 -0.0364  2.5269 -1.0237
   85SAPS  H11B 8024   3.225   0.465  11.168 -0.3458 -1.4517  0.0682
   85SAPS     P 8025   3.418   0.636  10.990  0.5596  0.3139 -0.3084
   85SAPS   O13 8026   3.345   0.755  11.042 -0.0600 -0.4176  0.6641
   85SAPS   O14 8027   3.536   0.597  11.071  0.5776  0.4272  0.1103
   85SAPS   O12 8028   3.316   0.513  10.981 -0.7777 -0.8541 -0.5549
   85SAPS   O11 8029   3.461   0.664  10.836 -0.1516  0.0432  0.0425
   85SAPS    C1 8030   3.351   0.673  10.737 -0.8174  0.0590  0.0048
   85SAPS    HA 8031   3.258   0.719  10.776 -0.4691  0.5634  0.2544
   85SAPS    HB 8032   3.386   0.738  10.654  2.3436  0.0729  1.2078
   85SAPS    C2 8033   3.316   0.530  10.683 -0.1843 -0.1099  0.8907
   85SAPS    HS 8034   3.287   0.463  10.767 -0.3246  0.2130  1.1040
   85SAPS   O21 8035   3.435   0.473  10.616 -0.1822  0.1385  0.5433
   85SAPS   C21 8036   3.466   0.350  10.630 -0.5459  0.1320 -0.5162
   85SAPS   O22 8037   3.409   0.274  10.711 -0.5744 -0.7406  0.3500
   85SAPS   C22 8038   3.582   0.310  10.539  0.8167  0.0800 -0.6926
   85SAPS   H2R 8039   3.567   0.207  10.501  0.9929  0.5535 -2.0979
   85SAPS   H2S 8040   3.577   0.368  10.445 -0.5756  0.1309 -0.6172
   85SAPS    C3 8041   3.192   0.528  10.589  0.0661 -0.2802  1.0103
   85SAPS    HX 8042   3.210   0.591  10.499 -0.0336 -2.1067 -0.3681
   85SAPS    HY 8043   3.105   0.573  10.642 -0.8491  1.5978 -1.8491
   85SAPS   O31 8044   3.146   0.397  10.547  0.3000 -0.3682  0.4390
   85SAPS   C31 8045   3.188   0.360  10.426 -0.1234  0.4620 -0.2661
   85SAPS   O32 8046   3.259   0.420  10.348  0.5251 -0.2729  0.5015
   85SAPS   C32 8047   3.132   0.214  10.394 -0.0248 -0.2633 -0.0405
   85SAPS   H2X 8048   3.022   0.230  10.398  0.1870  1.1896  1.0215
   85SAPS   H2Y 8049   3.161   0.153  10.483 -1.7928 -0.0992  0.6878
   85SAPS   C23 8050   3.723   0.317  10.609 -0.0060 -0.1327  0.7674
   85SAPS   H3R 8051   3.744   0.229  10.673  1.4232 -1.3799 -1.2790
   85SAPS   H3S 8052   3.743   0.413  10.661  1.3482  1.0340 -1.7048
   85SAPS   C24 8053   3.828   0.323  10.494 -0.0976 -0.1117  0.0987
   85SAPS   H4R 8054   3.930   0.325  10.538  0.4895  1.2274 -1.2716
   85SAPS   H4S 8055   3.817   0.416  10.435  0.4994 -0.4781 -0.5921
   85SAPS   C25 8056   3.810   0.202  10.403 -0.0076  0.0165  0.5125
   85SAPS   H5R 8057   3.828   0.103  10.448  0.9349  0.6120  1.4990
   85SAPS   C26 8058   3.767   0.200  10.276  0.2512 -0.1201  0.6325
   85SAPS   H6R 8059   3.764   0.105  10.220 -1.0382  0.3304 -0.0921
   85SAPS   C27 8060   3.722   0.323  10.197 -0.0351 -0.2459 -0.0727
   85SAPS   H7R 8061   3.804   0.324  10.123  1.2049 -1.4435  1.2283
   85SAPS   H7S 8062   3.728   0.424  10.243  1.5165  1.2170 -3.2359
   85SAPS   C28 8063   3.582   0.303  10.144  0.1656 -0.3084  0.2773
   85SAPS   H8R 8064   3.503   0.307  10.222 -0.7394  0.4614 -0.6553
   85SAPS   C29 8065   3.536   0.298  10.017 -0.4214  0.4495 -0.8234
   85SAPS   H9R 8066   3.431   0.272   9.999 -1.0853  1.4055  1.3781
   85SAPS  C210 8067   3.611   0.313   9.889  0.6601  0.2671 -0.2368
   85SAPS  H10R 8068   3.556   0.255   9.812  0.2332 -0.9504  0.9488
   85SAPS  H10S 8069   3.711   0.265   9.901 -0.6478 -3.5873 -2.8756
   85SAPS  C211 8070   3.610   0.462   9.853 -0.2975  0.2672  1.3069
   85SAPS  H11R 8071   3.612   0.540   9.931 -0.1619  1.3584  0.2328
   85SAPS  C212 8072   3.632   0.506   9.726  0.2278  0.3317 -0.2900
   85SAPS  H12R 8073   3.625   0.614   9.708 -0.1936  0.2057 -0.9419
   85SAPS  C213 8074   3.658   0.419   9.604 -0.7003  1.3951  0.3081
   85SAPS  H13R 8075   3.566   0.412   9.543 -3.2743 -0.8998  4.0601
   85SAPS  H13S 8076   3.671   0.311   9.628  2.7660  1.1030 -2.0047
   85SAPS  C214 8077   3.788   0.456   9.532  0.4049  0.4666 -0.0003
   85SAPS  H14R 8078   3.872   0.462   9.603  0.8948 -0.9184 -0.4302
   85SAPS  C215 8079   3.810   0.484   9.401  0.1028 -0.0317  0.3033
   85SAPS  H15R 8080   3.909   0.523   9.373 -0.9115  0.5947 -2.8020
   85SAPS  C216 8081   3.702   0.478   9.293  0.1567  0.2779 -0.1747
   85SAPS  H16R 8082   3.658   0.580   9.294 -4.8022 -1.6139  0.5492
   85SAPS  H16S 8083   3.608   0.425   9.317 -0.3381  0.8456 -0.8152
   85SAPS  C217 8084   3.742   0.418   9.155  0.5750  0.1143  0.1787
   85SAPS  H17R 8085   3.664   0.435   9.077 -0.1814 -1.4933  0.5446
   85SAPS  H17S 8086   3.756   0.310   9.172  1.1605  0.5176  2.5935
   85SAPS  C218 8087   3.874   0.475   9.090 -0.2058  0.5095 -0.2428
   85SAPS  H18R 8088   3.941   0.459   9.178 -0.8327  0.2702  0.2011
   85SAPS  H18S 8089   3.865   0.582   9.064 -3.5108  0.9376  1.9704
   85SAPS  C219 8090   3.910   0.390   8.970  0.3439  0.2303 -0.2210
   85SAPS  H19R 8091   3.914   0.285   9.006  2.0572 -0.9734 -3.4405
   85SAPS  H19S 8092   4.012   0.415   8.932 -0.0665  0.1400 -1.4234
   85SAPS  C220 8093   3.821   0.382   8.841 -0.2869 -0.2619 -0.0722
   85SAPS  H20R 8094   3.865   0.320   8.760  1.6750 -0.6153  1.1994
   85SAPS  H20S 8095   3.820   0.490   8.816  1.5267 -0.2687 -0.2431
   85SAPS  H20T 8096   3.714   0.367   8.869 -0.3394 -0.0571 -0.1608
   85SAPS   C33 8097   3.179   0.158  10.256 -0.9367  0.6560 -0.6652
   85SAPS   H3X 8098   3.182   0.048  10.270  1.4130  0.6541 -0.6891
   85SAPS   H3Y 8099   3.289   0.173  10.246 -0.5429 -1.8928 -0.9881
   85SAPS   C34 8100   3.104   0.209  10.133  0.5759  0.7714  0.1643
   85SAPS   H4X 8101   3.107   0.320  10.124  2.4329  1.0200  2.9936
   85SAPS   H4Y 8102   2.994   0.194  10.148  0.0925  3.5669 -0.0344
   85SAPS   C35 8103   3.131   0.127  10.000 -0.0527 -0.7168 -0.1337
   85SAPS   H5X 8104   3.143   0.020  10.030 -0.0072 -0.8092 -0.4841
   85SAPS   H5Y 8105   3.226   0.167   9.960  0.2930  0.3841  1.6790
   85SAPS   C36 8106   3.008   0.122   9.909  0.3134 -0.0610  0.5133
   85SAPS   H6X 8107   2.955   0.219   9.894 -0.9819 -0.9906 -1.3843
   85SAPS   H6Y 8108   2.927   0.061   9.953 -4.1773  1.9144 -3.9785
   85SAPS   C37 8109   3.043   0.047   9.772  0.3927 -0.4311 -0.2778
   85SAPS   H7X 8110   2.950   0.027   9.715  0.3136  2.7288 -1.4372
   85SAPS   H7Y 8111   3.079  -0.052   9.807 -2.0089 -1.0841  0.5128
   85SAPS   C38 8112   3.143   0.129   9.685  0.0066  0.2625  0.7802
   85SAPS   H8X 8113   3.236   0.142   9.744 -0.4717 -0.7027  1.7742
   85SAPS   H8Y 8114   3.090   0.226   9.672  0.4262  0.5952  1.5041
   85SAPS   C39 8115   3.169   0.074   9.549 -0.7667 -0.1285 -0.3432
   85SAPS   H9X 8116   3.211  -0.029   9.549  2.7783  1.1693  0.2960
   85SAPS   H9Y 8117   3.253   0.126   9.497 -1.7845  0.0564 -1.8644
   85SAPS  C310 8118   3.051   0.094   9.441  0.2488 -0.6426  0.5451
   85SAPS  H10X 8119   3.017   0.200   9.442  2.2188  0.1205 -1.9413
   85SAPS  H10Y 8120   2.962   0.035   9.470 -1.3244  0.5112 -1.6532
   85SAPS  C311 8121   3.086   0.066   9.300  0.4699  0.8190 -0.6641
   85SAPS  H11X 8122   3.150  -0.025   9.305  0.7054  1.0494  1.3704
   85SAPS  H11Y 8123   3.144   0.154   9.263  2.0324  0.2641  0.3544
   85SAPS  C312 8124   2.965   0.031   9.211 -0.1616  0.6525 -0.2630
   85SAPS  H12X 8125   2.910   0.125   9.185 -0.1375  0.6187 -0.4411
   85SAPS  H12Y 8126   2.891  -0.032   9.264 -2.1515  0.5560 -2.9427
   85SAPS  C313 8127   3.006  -0.043   9.085 -0.4757 -0.5129 -0.2858
   85SAPS  H13X 8128   2.915  -0.089   9.041 -0.6514  1.1906 -1.8464
   85SAPS  H13Y 8129   3.076  -0.128   9.103  2.6714  1.2867 -2.9092
   85SAPS  C314 8130   3.068   0.048   8.973 -0.4402  0.1651 -0.2017
   85SAPS  H14X 8131   3.077  -0.016   8.882  1.6405  0.3120 -0.1437
   85SAPS  H14Y 8132   3.165   0.090   9.008  0.5230 -1.8293 -0.3492
   85SAPS  C315 8133   2.980   0.164   8.924  0.0577  0.2967  0.0979
   85SAPS  H15X 8134   2.975   0.248   8.997  0.6528 -0.4537  1.0282
   85SAPS  H15Y 8135   2.880   0.117   8.913 -0.0845  0.4859  0.5431
   85SAPS  C316 8136   3.009   0.225   8.784 -0.5982 -0.0171  0.3336
   85SAPS  H16X 8137   2.947   0.317   8.781 -0.7269 -0.1309 -0.8193
   85SAPS  H16Y 8138   2.975   0.151   8.709  1.5360  0.9985 -1.7929
   85SAPS  C317 8139   3.153   0.258   8.754 -0.6173  0.0687  0.3913
   85SAPS  H17X 8140   3.220   0.174   8.786 -0.4675 -0.6352 -1.6153
   85SAPS  H17Y 8141   3.183   0.349   8.811 -1.8837 -0.8204  2.5792
   85SAPS  C318 8142   3.173   0.282   8.599 -0.5674  0.2380  0.1045
   85SAPS  H18X 8143   3.146   0.194   8.537 -1.5066  0.7554 -0.2333
   85SAPS  H18Y 8144   3.281   0.297   8.578 -0.0430 -0.8275  1.8240
   85SAPS  H18Z 8145   3.112   0.370   8.568  0.2264  0.1671 -1.8004
   86SAPS     N 8146   6.484   5.534  11.020 -0.0560  0.3415  0.0573
   86SAPS   HN1 8147   6.554   5.518  10.944 -1.0941 -2.0895 -0.5165
   86SAPS   HN2 8148   6.492   5.440  11.064  1.8083  0.6086  0.3570
   86SAPS   HN3 8149   6.387   5.554  10.989 -0.1023 -1.3696 -1.0631
   86SAPS   C12 8150   6.530   5.636  11.116 -0.7070 -0.7550 -0.6669
   86SAPS  H12A 8151   6.492   5.731  11.083  1.6192  0.3463 -0.3249
   86SAPS   C13 8152   6.463   5.622  11.257 -0.1987 -0.4584  0.2601
   86SAPS  O13A 8153   6.363   5.552  11.276  0.2216  0.6134  0.3169
   86SAPS  O13B 8154   6.511   5.699  11.342 -0.3111 -0.0810  0.3092
   86SAPS   C11 8155   6.685   5.638  11.122 -0.0647 -0.7463 -0.2092
   86SAPS  H11A 8156   6.712   5.712  11.200  0.5533 -1.5589  0.3796
   86SAPS  H11B 8157   6.728   5.684  11.030 -1.7082  0.6313 -0.3229
   86SAPS     P 8158   6.905   5.492  11.168 -0.1430 -0.0335  0.8016
   86SAPS   O13 8159   6.964   5.604  11.245 -0.2192  0.0614  0.0966
   86SAPS   O14 8160   6.934   5.360  11.227  0.4744  0.1756  0.3521
   86SAPS   O12 8161   6.745   5.514  11.154 -0.5475 -0.0579 -0.4464
   86SAPS   O11 8162   6.959   5.491  11.016 -0.1316  0.1747  0.6915
   86SAPS    C1 8163   7.078   5.558  10.978  0.3337 -0.4364 -1.3640
   86SAPS    HA 8164   7.070   5.663  11.013 -0.2383 -0.8309 -0.2646
   86SAPS    HB 8165   7.154   5.494  11.029 -1.0838 -0.2531  1.1370
   86SAPS    C2 8166   7.106   5.557  10.823 -0.0962 -0.0318 -0.5233
   86SAPS    HS 8167   7.201   5.611  10.802 -0.5585  0.6241 -0.9820
   86SAPS   O21 8168   6.995   5.617  10.760  0.4597  0.2247  0.0307
   86SAPS   C21 8169   6.975   5.744  10.768 -1.0121 -0.7719 -0.3548
   86SAPS   O22 8170   7.047   5.822  10.828  0.1126 -0.0338 -0.2307
   86SAPS   C22 8171   6.839   5.757  10.710  0.6667 -0.3234  0.1206
   86SAPS   H2R 8172   6.824   5.691  10.623 -1.1244 -0.0189  0.1629
   86SAPS   H2S 8173   6.771   5.718  10.789 -0.5762  1.2516 -0.1155
   86SAPS    C3 8174   7.106   5.406  10.777  0.5366  0.0738  0.7674
   86SAPS    HX 8175   7.010   5.354  10.797  0.4436 -0.2015 -0.3527
   86SAPS    HY 8176   7.186   5.352  10.832 -1.0468  0.0997  3.2625
   86SAPS   O31 8177   7.126   5.396  10.634 -0.7508  1.0728  0.2160
   86SAPS   C31 8178   7.254   5.424  10.594 -0.9026  0.6610  0.7158
   86SAPS   O32 8179   7.339   5.457  10.671 -0.1110  0.2161 -0.1812
   86SAPS   C32 8180   7.271   5.409  10.440 -0.5154  0.4420  1.2211
   86SAPS   H2X 8181   7.171   5.435  10.399 -0.1529  2.7563  1.6491
   86SAPS   H2Y 8182   7.286   5.300  10.424 -0.6236  0.5504  0.3127
   86SAPS   C23 8183   6.815   5.911  10.679  0.0627  1.0378  0.0104
   86SAPS   H3R 8184   6.853   5.982  10.756  0.9356  2.3822 -1.5871
   86SAPS   H3S 8185   6.704   5.920  10.676 -0.1297 -0.4153  1.5252
   86SAPS   C24 8186   6.867   5.946  10.539  0.6676 -0.1228  0.2312
   86SAPS   H4R 8187   6.977   5.934  10.548  1.0142  3.1345  1.8020
   86SAPS   H4S 8188   6.856   6.056  10.521  1.3341 -0.2028 -0.7681
   86SAPS   C25 8189   6.805   5.875  10.422  0.2911  0.5106 -0.1927
   86SAPS   H5R 8190   6.695   5.881  10.420  0.2546 -0.0124 -2.3129
   86SAPS   C26 8191   6.861   5.832  10.313 -0.3642  0.4211  0.0067
   86SAPS   H6R 8192   6.794   5.797  10.233 -1.1986  1.8323  0.0530
   86SAPS   C27 8193   7.013   5.839  10.278  0.0069 -0.0702  0.1079
   86SAPS   H7R 8194   7.065   5.902  10.353 -1.2215  0.5201  0.4978
   86SAPS   H7S 8195   7.032   5.886  10.180  0.8387 -0.3689  0.1184
   86SAPS   C28 8196   7.084   5.700  10.284  0.6256 -0.1766 -0.3566
   86SAPS   H8R 8197   7.109   5.675  10.388 -0.0542  1.6998  0.3187
   86SAPS   C29 8198   7.101   5.611  10.183  0.6235 -0.5037  0.1199
   86SAPS   H9R 8199   7.147   5.514  10.207 -0.1026 -1.0835 -0.7976
   86SAPS  C210 8200   7.056   5.632  10.042  0.8518  0.2774 -0.1985
   86SAPS  H10R 8201   7.010   5.729  10.014  1.5905  0.6499 -0.1576
   86SAPS  H10S 8202   6.970   5.568  10.012 -0.1472  1.9208 -0.9691
   86SAPS  C211 8203   7.173   5.605   9.951 -0.6493 -0.4948  0.5527
   86SAPS  H11R 8204   7.275   5.617   9.989 -0.4980 -1.2737  0.4060
   86SAPS  C212 8205   7.157   5.543   9.833  0.1751  0.2026 -0.0773
   86SAPS  H12R 8206   7.247   5.518   9.775 -1.1777 -0.9371 -1.7776
   86SAPS  C213 8207   7.037   5.496   9.765 -0.4672 -0.1293 -0.3956
   86SAPS  H13R 8208   6.945   5.552   9.795  1.0622  1.2592  1.9926
   86SAPS  H13S 8209   7.012   5.395   9.805 -1.2253  0.7488  1.4570
   86SAPS  C214 8210   7.048   5.497   9.611 -0.2136 -0.1014  0.2118
   86SAPS  H14R 8211   6.993   5.410   9.571  1.0445 -1.5564  1.5112
   86SAPS  C215 8212   7.122   5.574   9.528 -0.1109  0.1135 -0.0947
   86SAPS  H15R 8213   7.102   5.565   9.420 -1.1666  0.1132  0.0833
   86SAPS  C216 8214   7.211   5.690   9.557  0.5187 -0.6036 -0.1876
   86SAPS  H16R 8215   7.309   5.647   9.587  0.8534  0.3145  0.0872
   86SAPS  H16S 8216   7.158   5.752   9.632  1.6409 -0.8151  0.8028
   86SAPS  C217 8217   7.245   5.796   9.445  1.0372 -0.2542 -0.2998
   86SAPS  H17R 8218   7.163   5.871   9.441  0.2973 -1.0742 -2.5903
   86SAPS  H17S 8219   7.254   5.743   9.348 -4.6371  1.4667 -2.1728
   86SAPS  C218 8220   7.376   5.870   9.483 -0.4341 -0.3321 -0.0058
   86SAPS  H18R 8221   7.417   5.932   9.400 -1.3348 -0.0316 -0.2408
   86SAPS  H18S 8222   7.441   5.790   9.522 -2.4010 -1.8268  0.3663
   86SAPS  C219 8223   7.369   5.980   9.595 -0.3175  0.3270  0.9107
   86SAPS  H19R 8224   7.309   5.939   9.678 -2.1665  1.3948  0.1627
   86SAPS  H19S 8225   7.319   6.070   9.553  0.1361  0.1721  0.0016
   86SAPS  C220 8226   7.505   6.045   9.628 -0.3867 -0.2862 -0.1958
   86SAPS  H20R 8227   7.567   5.974   9.686 -1.9957  0.0083  1.9860
   86SAPS  H20S 8228   7.487   6.128   9.699  2.9861 -1.7382  2.6737
   86SAPS  H20T 8229   7.549   6.079   9.531 -1.4573  1.3177 -0.1566
   86SAPS   C33 8230   7.382   5.481  10.367 -0.2820 -0.3835 -0.4104
   86SAPS   H3X 8231   7.475   5.460  10.424  1.1833  2.4753 -1.5636
   86SAPS   H3Y 8232   7.359   5.590  10.360 -1.5894 -0.5600  0.6157
   86SAPS   C34 8233   7.419   5.427  10.229  0.0194 -0.3188  0.1764
   86SAPS   H4X 8234   7.516   5.476  10.206 -0.3340  0.3756  0.1702
   86SAPS   H4Y 8235   7.343   5.467  10.159  0.6617  3.4318  1.3946
   86SAPS   C35 8236   7.425   5.272  10.221 -0.2365  0.3561  0.5037
   86SAPS   H5X 8237   7.322   5.231  10.210 -0.4383  0.4362  1.9449
   86SAPS   H5Y 8238   7.471   5.230  10.313  1.8037  1.5412  0.0726
   86SAPS   C36 8239   7.499   5.212  10.094  0.0906 -0.5701 -0.8918
   86SAPS   H6X 8240   7.485   5.101  10.092 -1.0099 -0.5047  0.8286
   86SAPS   H6Y 8241   7.608   5.237  10.096  0.0389 -0.3627  0.0671
   86SAPS   C37 8242   7.431   5.270   9.968  0.2218  0.0937  1.0159
   86SAPS   H7X 8243   7.474   5.373   9.960  1.5555 -0.2379  3.2470
   86SAPS   H7Y 8244   7.320   5.265   9.978  0.0191  0.8077 -0.4905
   86SAPS   C38 8245   7.469   5.205   9.834  0.7257  0.0574 -0.7436
   86SAPS   H8X 8246   7.458   5.095   9.838 -1.2942  0.0948 -2.9230
   86SAPS   H8Y 8247   7.572   5.243   9.818  0.1079  1.7421 -0.9913
   86SAPS   C39 8248   7.376   5.262   9.731 -0.1266  0.1865  0.4635
   86SAPS   H9X 8249   7.411   5.365   9.711  0.5722 -0.1530 -0.1156
   86SAPS   H9Y 8250   7.268   5.265   9.757 -0.5185 -0.5726 -0.9689
   86SAPS  C310 8251   7.378   5.193   9.587  0.0160  0.1103  0.4849
   86SAPS  H10X 8252   7.321   5.258   9.517 -1.2587 -1.2675  0.1774
   86SAPS  H10Y 8253   7.342   5.088   9.598 -0.4454  0.4058  2.1028
   86SAPS  C311 8254   7.520   5.189   9.529  0.1240  0.3739  0.2131
   86SAPS  H11X 8255   7.585   5.152   9.612 -2.4773  0.0346  2.2221
   86SAPS  H11Y 8256   7.554   5.293   9.512  0.3045  0.2655 -0.0925
   86SAPS  C312 8257   7.541   5.108   9.400 -0.0887  0.5165  0.7149
   86SAPS  H12X 8258   7.513   5.006   9.433  0.3210  0.2292  0.1920
   86SAPS  H12Y 8259   7.648   5.083   9.383 -0.2047 -0.4463  1.3049
   86SAPS  C313 8260   7.464   5.152   9.274 -0.0327  0.1973 -0.6307
   86SAPS  H13X 8261   7.487   5.258   9.251 -0.9299  0.6569  0.5000
   86SAPS  H13Y 8262   7.353   5.146   9.282  0.1321 -0.8446  1.5035
   86SAPS  C314 8263   7.510   5.070   9.153  0.8024  0.3673  0.5635
   86SAPS  H14X 8264   7.478   4.966   9.175 -2.3703  1.5484  2.1032
   86SAPS  H14Y 8265   7.621   5.062   9.146  0.9899  1.8345  1.3956
   86SAPS  C315 8266   7.446   5.124   9.030  0.0731 -0.2703 -0.0261
   86SAPS  H15X 8267   7.471   5.232   9.037 -1.6824  0.0783  2.0226
   86SAPS  H15Y 8268   7.336   5.125   9.043 -0.2370  0.2625 -2.2713
   86SAPS  C316 8269   7.486   5.062   8.900  0.2747  0.2947  0.5889
   86SAPS  H16X 8270   7.473   4.952   8.909 -1.3812  0.3989 -0.0391
   86SAPS  H16Y 8271   7.594   5.075   8.876 -0.1805 -1.4236 -3.2316
   86SAPS  C317 8272   7.414   5.125   8.777 -0.0207  0.6380 -0.3645
   86SAPS  H17X 8273   7.434   5.233   8.792  0.0097  0.4088  1.3867
   86SAPS  H17Y 8274   7.304   5.111   8.781 -0.1721  1.9283  0.9062
   86SAPS  C318 8275   7.473   5.069   8.647  0.0310  0.3316  0.2818
   86SAPS  H18X 8276   7.580   5.098   8.638 -0.2055  0.6111 -2.3388
   86SAPS  H18Y 8277   7.430   5.119   8.558  0.6439  1.3314  0.5278
   86SAPS  H18Z 8278   7.461   4.959   8.640  0.2731  0.2221  1.4062
   87SAPS     N 8279   6.042   1.938  10.903 -0.0778 -0.1783 -0.0410
   87SAPS   HN1 8280   5.944   1.970  10.890 -0.1065 -0.2569 -0.0232
   87SAPS   HN2 8281   6.104   2.022  10.907 -0.2385 -0.0971  0.9303
   87SAPS   HN3 8282   6.074   1.868  10.833 -1.9027  0.1618 -1.2596
   87SAPS   C12 8283   6.046   1.859  11.033  0.1736 -0.0047 -0.7425
   87SAPS  H12A 8284   6.145   1.818  11.053 -0.1952 -0.5287  0.0819
   87SAPS   C13 8285   6.011   1.930  11.162 -0.2607  0.1073  0.2582
   87SAPS  O13A 8286   5.985   2.059  11.157 -0.4662  1.3805  0.6757
   87SAPS  O13B 8287   6.005   1.867  11.268 -0.4243 -0.6440  0.0860
   87SAPS   C11 8288   5.964   1.733  11.011 -0.0990  0.0121 -0.2031
   87SAPS  H11A 8289   5.857   1.756  10.995  0.2835  2.0601 -0.1077
   87SAPS  H11B 8290   5.972   1.665  11.099  1.4377  0.9626  0.4442
   87SAPS     P 8291   5.991   1.522  10.865  0.1105 -0.3870  0.2022
   87SAPS   O13 8292   6.111   1.442  10.906  0.5692 -0.0589 -0.0656
   87SAPS   O14 8293   5.861   1.487  10.920 -0.2665 -0.2418 -0.3201
   87SAPS   O12 8294   6.011   1.676  10.881 -0.3594  0.4893  0.1324
   87SAPS   O11 8295   5.973   1.501  10.711 -0.1063 -0.5596  0.5645
   87SAPS    C1 8296   5.983   1.604  10.622  0.1096  0.0731  0.2376
   87SAPS    HA 8297   5.916   1.587  10.536  0.4933 -1.7897  0.2731
   87SAPS    HB 8298   5.945   1.699  10.667 -0.8644  0.0983 -0.5987
   87SAPS    C2 8299   6.138   1.616  10.574 -0.1398 -0.3475  0.3496
   87SAPS    HS 8300   6.200   1.619  10.666  1.6645 -0.9153 -0.7957
   87SAPS   O21 8301   6.150   1.737  10.491 -0.1155  0.1489 -0.2338
   87SAPS   C21 8302   6.141   1.849  10.554  0.6649  0.1730  0.7666
   87SAPS   O22 8303   6.145   1.864  10.677  0.1493 -0.1312  0.4538
   87SAPS   C22 8304   6.121   1.958  10.444 -0.6134  0.6555 -1.1017
   87SAPS   H2R 8305   6.050   2.026  10.495  0.0810  0.6646 -0.1142
   87SAPS   H2S 8306   6.214   2.017  10.430  0.4638 -0.9082 -0.7485
   87SAPS    C3 8307   6.186   1.489  10.493 -0.4726  0.1310  0.0606
   87SAPS    HX 8308   6.209   1.403  10.559  2.9242  0.1762 -0.8744
   87SAPS    HY 8309   6.274   1.531  10.438 -0.9396 -0.1391 -0.9111
   87SAPS   O31 8310   6.082   1.448  10.402 -0.4673  0.8035  0.0101
   87SAPS   C31 8311   6.090   1.341  10.334  0.0970  1.0585  0.1591
   87SAPS   O32 8312   6.190   1.267  10.330  0.2256 -0.2757 -0.1611
   87SAPS   C32 8313   5.963   1.317  10.259  0.3126  0.0250  0.0277
   87SAPS   H2X 8314   5.935   1.411  10.207 -1.1065 -1.0146 -1.1827
   87SAPS   H2Y 8315   5.882   1.294  10.331 -0.4318 -1.6412 -1.2624
   87SAPS   C23 8316   6.062   1.919  10.313  1.2913 -0.6856 -0.2033
   87SAPS   H3R 8317   5.998   1.828  10.308  0.8060 -0.3219 -0.6343
   87SAPS   H3S 8318   6.152   1.897  10.251  2.9712  2.9251  0.6923
   87SAPS   C24 8319   6.000   2.041  10.242  0.3994 -0.5191 -0.4070
   87SAPS   H4R 8320   5.914   2.080  10.300  0.7015  0.1862 -0.4079
   87SAPS   H4S 8321   5.960   2.011  10.143  1.9371  1.8756 -1.8707
   87SAPS   C25 8322   6.101   2.155  10.220  0.4925  0.3596  0.5208
   87SAPS   H5R 8323   6.099   2.223  10.306 -0.9695 -0.9742  1.6003
   87SAPS   C26 8324   6.174   2.176  10.111  0.4397 -0.5572  0.5130
   87SAPS   H6R 8325   6.241   2.263  10.122  0.2910 -0.2067 -1.1153
   87SAPS   C27 8326   6.195   2.096   9.985 -0.0759 -0.9019  0.4392
   87SAPS   H7R 8327   6.137   2.002   9.987 -1.3252 -0.2436 -1.7217
   87SAPS   H7S 8328   6.305   2.077   9.987 -0.0006 -0.4751  0.4325
   87SAPS   C28 8329   6.143   2.151   9.853  0.0048 -0.1999 -0.2280
   87SAPS   H8R 8330   6.038   2.122   9.836  0.0313 -2.6743  2.9869
   87SAPS   C29 8331   6.216   2.215   9.764 -0.1343 -0.2343  0.9283
   87SAPS   H9R 8332   6.169   2.243   9.669  0.4452 -1.2501  0.3104
   87SAPS  C210 8333   6.357   2.269   9.775 -1.0342  0.3270  0.2570
   87SAPS  H10R 8334   6.373   2.287   9.883 -1.3716 -2.9071  0.9226
   87SAPS  H10S 8335   6.352   2.374   9.739 -0.8765  0.3957  0.4327
   87SAPS  C211 8336   6.470   2.195   9.712 -0.2608 -0.1884  0.2383
   87SAPS  H11R 8337   6.530   2.139   9.786  0.3323  3.0187  2.3769
   87SAPS  C212 8338   6.493   2.190   9.579  0.1983 -0.6171 -0.7357
   87SAPS  H12R 8339   6.590   2.156   9.539  0.2568  1.5898 -2.6883
   87SAPS  C213 8340   6.395   2.260   9.483 -0.4899 -0.2199  0.3277
   87SAPS  H13R 8341   6.333   2.335   9.537  1.6672  1.2397  0.9171
   87SAPS  H13S 8342   6.328   2.189   9.430 -1.1453  1.0296 -0.5630
   87SAPS  C214 8343   6.489   2.339   9.393  0.0176 -0.8021  0.5537
   87SAPS  H14R 8344   6.479   2.448   9.411 -1.3105 -0.5303 -1.4575
   87SAPS  C215 8345   6.559   2.301   9.285  0.2128  0.3588  0.1263
   87SAPS  H15R 8346   6.624   2.377   9.238  2.1874  0.3149  2.5609
   87SAPS  C216 8347   6.561   2.166   9.222  0.6570  0.0173  0.1388
   87SAPS  H16R 8348   6.516   2.088   9.288  1.0026 -2.0873 -1.9824
   87SAPS  H16S 8349   6.664   2.134   9.195 -0.4173 -2.5995 -1.2970
   87SAPS  C217 8350   6.480   2.166   9.085 -0.0928  0.1051 -0.6371
   87SAPS  H17R 8351   6.378   2.204   9.106  0.1374 -0.5779  2.0251
   87SAPS  H17S 8352   6.476   2.057   9.065 -0.3221 -0.4755  2.1661
   87SAPS  C218 8353   6.545   2.246   8.970 -0.7927 -0.5065 -0.7594
   87SAPS  H18R 8354   6.655   2.232   8.973 -0.2282  3.1749  0.3583
   87SAPS  H18S 8355   6.532   2.355   8.987  2.2095 -0.3518  1.5480
   87SAPS  C219 8356   6.492   2.222   8.827 -0.0735  0.2784 -0.7161
   87SAPS  H19R 8357   6.383   2.227   8.848 -0.6688 -0.5786 -3.2912
   87SAPS  H19S 8358   6.511   2.116   8.798 -0.7453  0.4833 -1.9755
   87SAPS  C220 8359   6.540   2.318   8.728 -0.1925  0.0734 -0.5517
   87SAPS  H20R 8360   6.649   2.335   8.717 -0.4505  1.7454 -0.8513
   87SAPS  H20S 8361   6.500   2.418   8.756  1.3791  0.2372  1.3437
   87SAPS  H20T 8362   6.509   2.287   8.626  1.2376 -1.1140 -0.6523
   87SAPS   C33 8363   5.968   1.209  10.146  0.4669  0.3522  0.3701
   87SAPS   H3X 8364   5.997   1.110  10.186 -1.1569  0.8657  3.0259
   87SAPS   H3Y 8365   6.053   1.248  10.085  1.7300 -0.9994  1.2184
   87SAPS   C34 8366   5.841   1.200  10.055  0.3818  0.6068  0.0582
   87SAPS   H4X 8367   5.811   1.303  10.029 -1.9096  0.2947  1.1408
   87SAPS   H4Y 8368   5.754   1.150  10.104 -2.0392  2.5278 -2.0502
   87SAPS   C35 8369   5.875   1.118   9.923 -0.3204 -0.2198 -0.6872
   87SAPS   H5X 8370   5.911   1.017   9.951  1.0599  0.5120  0.3145
   87SAPS   H5Y 8371   5.958   1.174   9.875  0.3738 -1.5281 -1.0707
   87SAPS   C36 8372   5.752   1.104   9.826 -0.0927 -0.5077  0.2098
   87SAPS   H6X 8373   5.691   1.197   9.833 -0.4079 -0.7656  0.8923
   87SAPS   H6Y 8374   5.696   1.014   9.859  1.1423 -1.1133  0.7120
   87SAPS   C37 8375   5.806   1.083   9.681 -0.2564 -0.2369  0.0165
   87SAPS   H7X 8376   5.882   1.002   9.690 -0.9630 -0.6779  2.7637
   87SAPS   H7Y 8377   5.856   1.176   9.646  2.5283 -1.4841  0.3780
   87SAPS   C38 8378   5.701   1.040   9.580 -0.1690  0.7739 -0.0044
   87SAPS   H8X 8379   5.626   1.118   9.556  0.2740  1.5509  1.0509
   87SAPS   H8Y 8380   5.642   0.961   9.631 -1.4320  0.0581 -2.4191
   87SAPS   C39 8381   5.767   1.003   9.454  0.5231  0.6281  0.6355
   87SAPS   H9X 8382   5.812   0.902   9.468  1.9842  1.2299  0.4142
   87SAPS   H9Y 8383   5.846   1.077   9.432  0.3453  0.5565 -0.3143
   87SAPS  C310 8384   5.660   1.000   9.343  0.2117 -0.4911 -0.4411
   87SAPS  H10X 8385   5.708   0.943   9.261  0.4312  2.4054 -2.4598
   87SAPS  H10Y 8386   5.627   1.097   9.300 -0.3288 -0.9443 -1.0636
   87SAPS  C311 8387   5.532   0.922   9.381  0.0741 -0.0357  0.0859
   87SAPS  H11X 8388   5.481   0.987   9.455  2.0472  0.1968  1.3120
   87SAPS  H11Y 8389   5.566   0.829   9.433  1.9951  0.1883 -0.6961
   87SAPS  C312 8390   5.448   0.888   9.256 -0.3821  0.7794 -0.6164
   87SAPS  H12X 8391   5.347   0.853   9.286  0.4906  0.3930  2.2422
   87SAPS  H12Y 8392   5.494   0.808   9.194  1.2386  1.0780  0.1364
   87SAPS  C313 8393   5.420   1.003   9.165 -0.3092 -0.0606  0.3216
   87SAPS  H13X 8394   5.509   1.037   9.108 -1.3191  1.9680 -0.1299
   87SAPS  H13Y 8395   5.398   1.096   9.220  0.3407 -0.3750  1.1367
   87SAPS  C314 8396   5.310   0.977   9.058  0.5383 -0.3654 -0.1147
   87SAPS  H14X 8397   5.303   1.063   8.987  0.2222 -1.3497 -1.3209
   87SAPS  H14Y 8398   5.208   0.967   9.100  0.7708  0.9606  0.8206
   87SAPS  C315 8399   5.341   0.863   8.967  0.3472  0.1779  0.3220
   87SAPS  H15X 8400   5.249   0.855   8.904  0.2427  1.2026  0.3226
   87SAPS  H15Y 8401   5.344   0.768   9.024  0.7063  0.8133  1.3889
   87SAPS  C316 8402   5.469   0.869   8.877  0.1835 -0.0165 -0.6329
   87SAPS  H16X 8403   5.473   0.778   8.812  0.4510 -1.3327  1.1449
   87SAPS  H16Y 8404   5.557   0.861   8.945 -0.9120 -0.1705  0.8108
   87SAPS  C317 8405   5.478   0.997   8.803 -0.7495  0.8163 -0.1351
   87SAPS  H17X 8406   5.501   1.076   8.878  1.1584 -0.2453  0.4720
   87SAPS  H17Y 8407   5.383   1.019   8.751 -0.1558  0.9503 -1.2002
   87SAPS  C318 8408   5.599   1.006   8.708 -0.0462 -0.0801 -0.1785
   87SAPS  H18X 8409   5.695   0.986   8.759  0.8724 -1.7526 -2.4166
   87SAPS  H18Y 8410   5.600   1.108   8.664 -1.5402  0.0715  0.0883
   87SAPS  H18Z 8411   5.586   0.937   8.622 -0.7041  1.3690 -1.2861
   88SAPS     N 8412   2.868   6.657  11.190  0.2970 -0.0105  0.7527
   88SAPS   HN1 8413   2.859   6.677  11.291 -2.0565  1.3802  0.3450
   88SAPS   HN2 8414   2.970   6.645  11.173  0.3906  0.5027  0.9250
   88SAPS   HN3 8415   2.849   6.736  11.125  0.6288 -1.2432 -0.9169
   88SAPS   C12 8416   2.791   6.538  11.143  0.0926 -0.6313  0.2100
   88SAPS  H12A 8417   2.841   6.456  11.193 -0.1690  0.1329  1.7825
   88SAPS   C13 8418   2.648   6.518  11.195  0.4174 -0.4465  0.3297
   88SAPS  O13A 8419   2.608   6.601  11.284 -0.0284  0.5676  0.3515
   88SAPS  O13B 8420   2.576   6.423  11.158  0.2771 -1.0320 -0.8446
   88SAPS   C11 8421   2.798   6.527  10.984  0.6614  0.1816  0.5548
   88SAPS  H11A 8422   2.745   6.435  10.952  0.5802  0.5270 -0.3430
   88SAPS  H11B 8423   2.904   6.523  10.952  0.7314 -1.9031  0.9185
   88SAPS     P 8424   2.683   6.663  10.794 -0.4035 -0.3114  0.5697
   88SAPS   O13 8425   2.587   6.550  10.769 -0.4040  0.1180  0.7054
   88SAPS   O14 8426   2.622   6.795  10.785  0.3009 -0.3870 -0.1523
   88SAPS   O12 8427   2.750   6.651  10.934  0.0770  0.3915  0.5175
   88SAPS   O11 8428   2.813   6.654  10.692  0.5205  0.0396 -0.2435
   88SAPS    C1 8429   2.819   6.746  10.592  0.1202  0.0548 -0.6031
   88SAPS    HA 8430   2.812   6.846  10.639  1.5004 -0.2744  0.3760
   88SAPS    HB 8431   2.921   6.744  10.547 -0.4415 -0.5677 -1.8805
   88SAPS    C2 8432   2.730   6.709  10.468  0.4748  0.0639 -0.5467
   88SAPS    HS 8433   2.623   6.714  10.498 -0.1371 -0.0705 -2.5767
   88SAPS   O21 8434   2.758   6.584  10.412 -0.4355 -0.4046  0.4759
   88SAPS   C21 8435   2.661   6.514  10.355 -0.3848  0.3403  0.6275
   88SAPS   O22 8436   2.546   6.545  10.347 -0.1375  0.6578  0.4242
   88SAPS   C22 8437   2.721   6.387  10.292 -0.6402 -0.2078 -1.2757
   88SAPS   H2R 8438   2.797   6.427  10.221  1.2790  1.4278  1.5090
   88SAPS   H2S 8439   2.782   6.335  10.369  0.3765  1.6693 -0.7569
   88SAPS    C3 8440   2.732   6.818  10.361  0.2704  0.0696 -0.0689
   88SAPS    HX 8441   2.829   6.816  10.306 -0.8161 -0.0867 -2.0583
   88SAPS    HY 8442   2.735   6.917  10.410  1.4685  0.7123 -1.3714
   88SAPS   O31 8443   2.618   6.827  10.272  1.0066  1.2542 -0.2265
   88SAPS   C31 8444   2.648   6.815  10.138 -0.1434  0.4367 -0.6202
   88SAPS   O32 8445   2.740   6.872  10.085  0.4207  0.4130  0.6633
   88SAPS   C32 8446   2.550   6.719  10.076 -0.3806  0.0892  0.2238
   88SAPS   H2X 8447   2.452   6.735  10.126 -1.5627  1.4095 -2.3704
   88SAPS   H2Y 8448   2.579   6.613  10.092 -0.5744  0.2575  1.8830
   88SAPS   C23 8449   2.618   6.288  10.225 -0.3035 -1.0485  0.2236
   88SAPS   H3R 8450   2.579   6.338  10.134  3.3407  0.2944 -0.7680
   88SAPS   H3S 8451   2.530   6.269  10.291 -2.0277  2.4781 -0.8064
   88SAPS   C24 8452   2.688   6.160  10.168 -0.4506 -0.5790 -0.9025
   88SAPS   H4R 8453   2.778   6.137  10.229 -0.5889 -0.1804 -0.5448
   88SAPS   H4S 8454   2.732   6.188  10.070  3.1139  0.6781  0.8819
   88SAPS   C25 8455   2.608   6.030  10.156 -0.2340 -0.3198 -0.1250
   88SAPS   H5R 8456   2.591   5.973  10.248 -0.0001 -2.5001 -1.3594
   88SAPS   C26 8457   2.570   5.982  10.041  0.3047  0.2542  0.0058
   88SAPS   H6R 8458   2.495   5.903  10.027 -0.0004  0.9987 -3.2484
   88SAPS   C27 8459   2.590   6.053   9.910  0.3820  0.4016  0.2405
   88SAPS   H7R 8460   2.597   6.162   9.927 -1.5776  0.5398  0.4707
   88SAPS   H7S 8461   2.495   6.038   9.854  0.6475 -0.5008  0.0175
   88SAPS   C28 8462   2.714   6.008   9.838 -0.5205  0.4657 -0.5075
   88SAPS   H8R 8463   2.802   5.992   9.902 -1.7961  2.4490  1.9572
   88SAPS   C29 8464   2.735   6.014   9.712 -0.2253 -0.6823 -0.0997
   88SAPS   H9R 8465   2.828   5.962   9.682 -0.3699 -1.0752  0.1285
   88SAPS  C210 8466   2.640   6.048   9.603 -0.4299 -0.8263  0.1482
   88SAPS  H10R 8467   2.684   6.134   9.549 -0.3873 -0.7732  0.2661
   88SAPS  H10S 8468   2.544   6.092   9.636  0.5770 -0.0942  2.3445
   88SAPS  C211 8469   2.622   5.930   9.507 -0.6014  0.7658 -0.4463
   88SAPS  H11R 8470   2.601   5.839   9.566 -1.6866  1.3339  0.0906
   88SAPS  C212 8471   2.610   5.930   9.376 -0.3575 -0.3069  0.8629
   88SAPS  H12R 8472   2.585   5.838   9.323  1.7998  0.6226 -2.0214
   88SAPS  C213 8473   2.622   6.052   9.288  0.0598  0.4581 -0.3385
   88SAPS  H13R 8474   2.569   6.136   9.338 -2.1754  0.6597 -2.8536
   88SAPS  H13S 8475   2.572   6.036   9.190 -0.3831  4.2455 -0.9042
   88SAPS  C214 8476   2.766   6.090   9.263  0.0176  0.6320 -0.3095
   88SAPS  H14R 8477   2.827   6.120   9.350  2.0657  0.7334 -1.6970
   88SAPS  C215 8478   2.831   6.110   9.149  0.3429  0.4046  0.5202
   88SAPS  H15R 8479   2.934   6.148   9.136 -0.0500  1.2299 -0.3794
   88SAPS  C216 8480   2.771   6.083   9.006 -0.1887 -1.3002 -0.8220
   88SAPS  H16R 8481   2.687   6.011   9.018 -0.6751 -0.3175  2.3736
   88SAPS  H16S 8482   2.853   6.024   8.959  2.1248 -1.4462  2.9763
   88SAPS  C217 8483   2.740   6.216   8.939 -1.2413  0.6112  0.6152
   88SAPS  H17R 8484   2.666   6.267   9.004 -0.4089 -2.2505  4.1987
   88SAPS  H17S 8485   2.691   6.192   8.842  0.3957 -0.6880  0.0561
   88SAPS  C218 8486   2.860   6.308   8.908  0.5404  0.3982 -0.2997
   88SAPS  H18R 8487   2.928   6.252   8.840 -0.3482 -1.3747  0.2203
   88SAPS  H18S 8488   2.921   6.327   8.999  1.5293  1.1367 -1.0797
   88SAPS  C219 8489   2.824   6.444   8.841  1.1868  0.1611  0.6882
   88SAPS  H19R 8490   2.915   6.506   8.844  2.1836 -1.2638  1.1593
   88SAPS  H19S 8491   2.742   6.477   8.908 -0.8062 -3.5148  0.3719
   88SAPS  C220 8492   2.762   6.438   8.700 -0.0214 -0.3431 -0.7868
   88SAPS  H20R 8493   2.658   6.400   8.693 -0.3948  0.5407 -0.2788
   88SAPS  H20S 8494   2.834   6.396   8.626  0.5343  2.0356 -1.7172
   88SAPS  H20T 8495   2.760   6.544   8.666  3.2833  0.0968  0.0689
   88SAPS   C33 8496   2.531   6.740   9.925 -0.4058 -0.3300 -0.1463
   88SAPS   H3X 8497   2.511   6.844   9.892  1.5811  1.0616  2.5898
   88SAPS   H3Y 8498   2.436   6.683   9.912 -1.9536  1.3576  2.6182
   88SAPS   C34 8499   2.632   6.665   9.840 -0.0522  0.4431 -0.4060
   88SAPS   H4X 8500   2.638   6.555   9.843  0.7087  0.4515 -1.2709
   88SAPS   H4Y 8501   2.736   6.697   9.861  0.6124 -1.4966 -0.5423
   88SAPS   C35 8502   2.612   6.695   9.687 -0.0589 -0.2293 -0.1978
   88SAPS   H5X 8503   2.704   6.663   9.634  0.3067 -0.4696  0.5816
   88SAPS   H5Y 8504   2.599   6.804   9.667  2.9773  0.0277 -1.2738
   88SAPS   C36 8505   2.499   6.619   9.616 -0.4697  0.1140  0.6628
   88SAPS   H6X 8506   2.402   6.665   9.643 -1.2818 -1.8269  1.2575
   88SAPS   H6Y 8507   2.498   6.516   9.657 -0.1320  0.2875  1.1118
   88SAPS   C37 8508   2.519   6.611   9.465 -0.2635 -0.3789  0.4269
   88SAPS   H7X 8509   2.617   6.573   9.430  0.8998  1.6695  1.3044
   88SAPS   H7Y 8510   2.517   6.716   9.428 -1.8052 -0.1620  1.0428
   88SAPS   C38 8511   2.401   6.533   9.399  0.0942 -0.1659  0.3140
   88SAPS   H8X 8512   2.306   6.576   9.437  0.8549 -0.3587  2.6156
   88SAPS   H8Y 8513   2.416   6.428   9.432 -1.1073  0.1658  2.1107
   88SAPS   C39 8514   2.387   6.536   9.246 -0.4282 -0.2926 -0.6334
   88SAPS   H9X 8515   2.317   6.458   9.211 -0.8907  0.5201 -1.5989
   88SAPS   H9Y 8516   2.490   6.512   9.211  0.6091  1.3498  1.0902
   88SAPS  C310 8517   2.355   6.670   9.190 -0.9842  0.2062  0.9285
   88SAPS  H10X 8518   2.421   6.747   9.235 -0.8382  1.9492 -2.0289
   88SAPS  H10Y 8519   2.248   6.694   9.210 -1.0859 -0.3180  1.0168
   88SAPS  C311 8520   2.381   6.698   9.035  0.2554  0.0498 -1.0118
   88SAPS  H11X 8521   2.487   6.679   9.009  0.4277  0.4635 -0.6050
   88SAPS  H11Y 8522   2.346   6.803   9.023 -0.7677 -0.1859 -0.2562
   88SAPS  C312 8523   2.306   6.611   8.937  0.3236  0.1353  0.0557
   88SAPS  H12X 8524   2.196   6.612   8.953 -0.5163 -2.7533 -4.0606
   88SAPS  H12Y 8525   2.346   6.508   8.947  1.6935  0.6529  0.0661
   88SAPS  C313 8526   2.326   6.665   8.790  0.3162  0.3106  0.2591
   88SAPS  H13X 8527   2.299   6.772   8.781 -0.5041  0.0529 -0.5299
   88SAPS  H13Y 8528   2.249   6.604   8.737  3.1244 -2.1435 -1.2935
   88SAPS  C314 8529   2.448   6.612   8.711  0.2986 -0.5672  0.0344
   88SAPS  H14X 8530   2.429   6.507   8.681 -1.3854  0.2954 -2.2356
   88SAPS  H14Y 8531   2.532   6.616   8.783 -1.2988  0.2572  1.9587
   88SAPS  C315 8532   2.468   6.702   8.585 -0.0565  0.5418  0.0047
   88SAPS  H15X 8533   2.573   6.690   8.550 -0.4244 -0.7098 -0.7230
   88SAPS  H15Y 8534   2.449   6.808   8.614 -0.9655 -0.8372  5.4443
   88SAPS  C316 8535   2.384   6.654   8.466 -0.6822 -0.6886  0.3257
   88SAPS  H16X 8536   2.278   6.686   8.482  0.4583  4.4201 -0.6319
   88SAPS  H16Y 8537   2.399   6.546   8.446 -0.0641 -0.9153  1.8754
   88SAPS  C317 8538   2.428   6.728   8.339  0.0791  0.0578  0.4817
   88SAPS  H17X 8539   2.449   6.837   8.348 -0.8983  0.8144 -3.9196
   88SAPS  H17Y 8540   2.349   6.717   8.262 -0.3178  1.5932  0.6368
   88SAPS  C318 8541   2.567   6.669   8.283 -0.6745 -0.3836 -0.3923
   88SAPS  H18X 8542   2.642   6.659   8.365 -1.5416 -1.6796  0.2884
   88SAPS  H18Y 8543   2.615   6.737   8.209  1.2374  0.1318  1.2251
   88SAPS  H18Z 8544   2.551   6.566   8.246 -1.7541  0.0322 -1.1459
   89SAPS     N 8545   0.684   2.601  10.948  0.4822  0.3208  0.5606
   89SAPS   HN1 8546   0.596   2.548  10.960  0.6385 -0.5028 -1.4751
   89SAPS   HN2 8547   0.648   2.697  10.928 -1.2807  0.0284  2.0906
   89SAPS   HN3 8548   0.745   2.559  10.874  0.5979  0.7055  0.4272
   89SAPS   C12 8549   0.761   2.612  11.075 -0.4173  0.0245  0.3213
   89SAPS  H12A 8550   0.692   2.654  11.147 -1.8073 -0.5008 -0.6555
   89SAPS   C13 8551   0.809   2.486  11.130  0.6813 -0.0017  0.6096
   89SAPS  O13A 8552   0.801   2.381  11.066 -0.1144  0.0047 -0.0849
   89SAPS  O13B 8553   0.877   2.491  11.237  0.5691  0.9454  0.5348
   89SAPS   C11 8554   0.891   2.705  11.045 -0.4441 -0.3128 -0.7703
   89SAPS  H11A 8555   0.945   2.645  10.969  1.0550 -0.1871  0.1679
   89SAPS  H11B 8556   0.950   2.714  11.139 -1.2686 -1.0468 -0.1653
   89SAPS     P 8557   0.957   2.931  10.914 -0.1428 -0.0101 -0.1877
   89SAPS   O13 8558   0.899   3.067  10.904  0.4453  0.0780 -0.2433
   89SAPS   O14 8559   1.095   2.925  10.971 -0.5671 -0.1050  0.1881
   89SAPS   O12 8560   0.859   2.837  11.002  0.4195  0.5859  0.3685
   89SAPS   O11 8561   0.952   2.876  10.769 -0.4817 -0.6982  0.0199
   89SAPS    C1 8562   1.055   2.772  10.733  0.3794  0.2367 -0.0975
   89SAPS    HA 8563   1.142   2.772  10.801  1.2125 -0.9615 -1.1159
   89SAPS    HB 8564   1.010   2.671  10.750  1.0782  0.0532  0.7034
   89SAPS    C2 8565   1.106   2.783  10.586 -0.0537 -0.7974  0.2964
   89SAPS    HS 8566   1.155   2.883  10.585  0.8173 -1.2164 -0.6057
   89SAPS   O21 8567   0.989   2.779  10.507  0.0640  0.1876  0.1536
   89SAPS   C21 8568   0.986   2.871  10.410  0.1984 -0.4284 -0.2310
   89SAPS   O22 8569   1.063   2.957  10.388  0.6010  0.1395  0.4805
   89SAPS   C22 8570   0.850   2.861  10.334 -0.9358 -0.9330  0.3028
   89SAPS   H2R 8571   0.814   2.756  10.344 -3.2334 -0.2405 -0.1205
   89SAPS   H2S 8572   0.770   2.924  10.380 -0.5871 -1.8581  2.3002
   89SAPS    C3 8573   1.219   2.682  10.533  0.7777 -0.3915 -0.0741
   89SAPS    HX 8574   1.176   2.583  10.559  0.7959 -0.1137  1.0602
   89SAPS    HY 8575   1.308   2.698  10.598  0.2109 -1.7350  1.0989
   89SAPS   O31 8576   1.219   2.682  10.391 -0.5601  0.2157 -0.6202
   89SAPS   C31 8577   1.319   2.753  10.336  0.4023  0.0773  0.1999
   89SAPS   O32 8578   1.385   2.825  10.403 -0.4336  0.0444 -0.5113
   89SAPS   C32 8579   1.331   2.731  10.185 -0.4955  0.7614 -0.5036
   89SAPS   H2X 8580   1.270   2.808  10.133 -0.3746  2.6340  1.9793
   89SAPS   H2Y 8581   1.300   2.630  10.150 -1.2068 -0.1494  2.4655
   89SAPS   C23 8582   0.870   2.904  10.183  0.2219 -0.4974  0.4834
   89SAPS   H3R 8583   0.954   2.842  10.144 -0.8544 -2.0772  0.5944
   89SAPS   H3S 8584   0.912   3.006  10.167  1.3593 -1.2060 -1.4531
   89SAPS   C24 8585   0.737   2.901  10.103  0.3007 -0.0839 -0.9656
   89SAPS   H4R 8586   0.657   2.948  10.163  1.1671  0.0194  0.1485
   89SAPS   H4S 8587   0.714   2.795  10.077  1.4692  0.3432 -4.1916
   89SAPS   C25 8588   0.755   2.975   9.975  0.0726  0.7235  0.4030
   89SAPS   H5R 8589   0.729   3.082   9.971 -1.1053  0.4294 -2.6050
   89SAPS   C26 8590   0.788   2.924   9.857 -0.9783 -0.2372 -0.4917
   89SAPS   H6R 8591   0.803   2.999   9.778  0.2293  1.3171  1.1596
   89SAPS   C27 8592   0.812   2.778   9.826  0.4927  0.4766  0.2499
   89SAPS   H7R 8593   0.730   2.733   9.767  0.8121  1.8669 -1.3391
   89SAPS   H7S 8594   0.825   2.722   9.921  1.5448 -0.0788 -0.2001
   89SAPS   C28 8595   0.938   2.751   9.745 -0.3888 -0.5082  0.3629
   89SAPS   H8R 8596   1.013   2.692   9.799  1.1920 -0.4340 -1.6217
   89SAPS   C29 8597   0.967   2.786   9.615  0.5462  0.4447 -0.3024
   89SAPS   H9R 8598   1.065   2.755   9.574  0.5361  1.9867 -1.6224
   89SAPS  C210 8599   0.880   2.866   9.518 -0.3521 -0.2643 -0.2197
   89SAPS  H10R 8600   0.794   2.905   9.575  0.1604 -2.3584  2.1700
   89SAPS  H10S 8601   0.847   2.791   9.443  1.9877  0.5575 -2.2187
   89SAPS  C211 8602   0.949   2.978   9.445  0.1002  0.2844  0.3602
   89SAPS  H11R 8603   1.047   3.003   9.487 -0.1084  0.3871  0.7962
   89SAPS  C212 8604   0.918   3.027   9.321 -0.3317 -0.0256  0.8745
   89SAPS  H12R 8605   0.982   3.105   9.275 -1.7506 -0.4936 -2.1289
   89SAPS  C213 8606   0.808   2.984   9.230 -0.3220 -0.2170  0.4964
   89SAPS  H13R 8607   0.746   3.076   9.217  0.5075  0.5511  1.7318
   89SAPS  H13S 8608   0.750   2.910   9.289  3.4175 -2.8258  1.2179
   89SAPS  C214 8609   0.851   2.919   9.097 -0.2198 -0.2842 -0.8505
   89SAPS  H14R 8610   0.909   2.827   9.111 -1.4612 -0.7124  2.4766
   89SAPS  C215 8611   0.831   2.962   8.978 -0.4871 -0.9853  0.4130
   89SAPS  H15R 8612   0.887   2.908   8.900 -1.8273  0.3137 -1.5406
   89SAPS  C216 8613   0.758   3.083   8.930 -0.2332  0.4058 -0.0767
   89SAPS  H16R 8614   0.827   3.155   8.882 -2.0232  1.5829 -1.0244
   89SAPS  H16S 8615   0.717   3.131   9.022  2.7092  1.4079  0.8121
   89SAPS  C217 8616   0.650   3.063   8.825  0.4999  0.4885  0.2202
   89SAPS  H17R 8617   0.583   2.981   8.858  2.3546 -0.9323  0.6395
   89SAPS  H17S 8618   0.714   3.026   8.742 -2.4940  1.2556 -2.6327
   89SAPS  C218 8619   0.575   3.189   8.776 -0.4449  0.1083 -0.5978
   89SAPS  H18R 8620   0.649   3.257   8.728  0.4699 -0.3078  0.1917
   89SAPS  H18S 8621   0.531   3.239   8.865 -0.2731  0.2872 -0.6124
   89SAPS  C219 8622   0.478   3.152   8.667 -0.1468 -0.0885  0.5913
   89SAPS  H19R 8623   0.414   3.068   8.701  0.7247 -1.7199 -1.5420
   89SAPS  H19S 8624   0.522   3.100   8.580 -3.1341 -2.9163  0.5980
   89SAPS  C220 8625   0.385   3.265   8.616 -0.7646  0.0710 -0.5988
   89SAPS  H20R 8626   0.328   3.309   8.700 -0.5915 -0.1395 -0.3703
   89SAPS  H20S 8627   0.308   3.226   8.546  1.0345 -2.0403 -1.5272
   89SAPS  H20T 8628   0.454   3.340   8.570  0.3738 -0.6954 -0.1949
   89SAPS   C33 8629   1.476   2.765  10.137  0.6029 -0.1976  0.7421
   89SAPS   H3X 8630   1.555   2.711  10.195 -2.2989 -3.7317  1.7872
   89SAPS   H3Y 8631   1.497   2.874  10.147  1.7771 -0.1878 -1.2337
   89SAPS   C34 8632   1.504   2.718   9.993 -0.9805  0.1408 -0.0128
   89SAPS   H4X 8633   1.499   2.607   9.995  0.6232  0.0507  0.1354
   89SAPS   H4Y 8634   1.603   2.764   9.971 -1.7463  0.7683 -2.4154
   89SAPS   C35 8635   1.410   2.769   9.888  0.8301  0.2990 -0.0109
   89SAPS   H5X 8636   1.385   2.876   9.903  2.2275  0.7889 -0.9211
   89SAPS   H5Y 8637   1.319   2.706   9.885 -0.9225  2.6765  0.1631
   89SAPS   C36 8638   1.471   2.766   9.747 -0.1737  0.6325  0.4732
   89SAPS   H6X 8639   1.529   2.671   9.756 -1.0288  0.0417 -0.0186
   89SAPS   H6Y 8640   1.535   2.854   9.728 -0.3922  0.3617 -1.8267
   89SAPS   C37 8641   1.361   2.774   9.642  0.2336 -0.3890 -0.3936
   89SAPS   H7X 8642   1.318   2.876   9.652  0.4632 -0.4755  1.8928
   89SAPS   H7Y 8643   1.285   2.697   9.667  0.9290 -0.7725  0.6159
   89SAPS   C38 8644   1.416   2.757   9.503 -0.1962  1.3411  0.1378
   89SAPS   H8X 8645   1.441   2.650   9.489 -3.2392  0.5673 -0.1415
   89SAPS   H8Y 8646   1.510   2.816   9.494  1.6851 -1.2384  1.5073
   89SAPS   C39 8647   1.313   2.802   9.394 -0.4060  0.2016 -0.2311
   89SAPS   H9X 8648   1.275   2.905   9.413 -0.7029  0.4283 -1.8921
   89SAPS   H9Y 8649   1.222   2.739   9.401  0.4136 -0.9714  0.1045
   89SAPS  C310 8650   1.356   2.798   9.247 -0.1227 -0.6033 -0.4619
   89SAPS  H10X 8651   1.399   2.697   9.231  0.7030 -0.5073  0.9781
   89SAPS  H10Y 8652   1.435   2.872   9.224  0.0177  0.0110  1.7550
   89SAPS  C311 8653   1.241   2.824   9.150  0.2780 -0.6614 -0.0671
   89SAPS  H11X 8654   1.182   2.899   9.207 -0.0873 -1.5333  0.7267
   89SAPS  H11Y 8655   1.175   2.737   9.131 -0.8566 -0.0613  0.9655
   89SAPS  C312 8656   1.271   2.890   9.011 -0.0359 -0.8345  0.0926
   89SAPS  H12X 8657   1.187   2.864   8.944 -0.5741  1.8854 -0.3976
   89SAPS  H12Y 8658   1.361   2.852   8.958  0.0482  0.0130 -0.3946
   89SAPS  C313 8659   1.281   3.039   9.024 -0.0101 -0.1118  0.5381
   89SAPS  H13X 8660   1.370   3.062   9.087  0.7145 -0.6559 -0.2562
   89SAPS  H13Y 8661   1.201   3.088   9.083 -3.0989 -3.2166 -0.7713
   89SAPS  C314 8662   1.297   3.115   8.889 -0.3012  0.0094 -0.0645
   89SAPS  H14X 8663   1.349   3.050   8.816 -0.9969 -1.0425  0.3485
   89SAPS  H14Y 8664   1.360   3.205   8.900  0.9114 -0.8919  0.6482
   89SAPS  C315 8665   1.155   3.157   8.835  0.6830 -0.0151 -0.7329
   89SAPS  H15X 8666   1.088   3.193   8.916 -0.3545  0.5044 -1.7748
   89SAPS  H15Y 8667   1.106   3.060   8.808 -0.4017 -0.3690  2.1566
   89SAPS  C316 8668   1.152   3.261   8.719  0.1581 -0.0893 -0.1461
   89SAPS  H16X 8669   1.049   3.287   8.685  0.2826 -0.4648 -0.8326
   89SAPS  H16Y 8670   1.200   3.208   8.634 -0.9674  1.5629 -1.8960
   89SAPS  C317 8671   1.234   3.389   8.744 -0.0693  0.8756 -0.0344
   89SAPS  H17X 8672   1.334   3.348   8.767 -0.7377  0.3366  2.1971
   89SAPS  H17Y 8673   1.191   3.439   8.834 -1.4968 -0.4032  0.0290
   89SAPS  C318 8674   1.242   3.490   8.623 -0.4827  0.0761 -0.3207
   89SAPS  H18X 8675   1.323   3.563   8.644 -1.6656  1.2257  0.3852
   89SAPS  H18Y 8676   1.141   3.538   8.618  0.0014  1.1291 -0.3996
   89SAPS  H18Z 8677   1.252   3.438   8.525 -2.0530 -2.0140  0.5483
   90SAPS     N 8678   4.528   1.680  10.681  0.4555  0.8837 -0.3658
   90SAPS   HN1 8679   4.616   1.633  10.709  1.7056  1.7764 -2.5612
   90SAPS   HN2 8680   4.549   1.745  10.603  0.6314  3.0077  1.3651
   90SAPS   HN3 8681   4.492   1.731  10.764 -2.3130 -1.6291  0.1628
   90SAPS   C12 8682   4.425   1.575  10.639 -0.3848  0.5878  0.0851
   90SAPS  H12A 8683   4.482   1.517  10.569 -0.6959  1.2784 -0.7494
   90SAPS   C13 8684   4.383   1.484  10.757  0.9586 -0.1590  0.0271
   90SAPS  O13A 8685   4.440   1.498  10.869  0.1937 -0.0768 -0.0611
   90SAPS  O13B 8686   4.293   1.394  10.745 -0.4082 -0.2916  0.0031
   90SAPS   C11 8687   4.298   1.647  10.592 -0.1132  1.1661 -0.2916
   90SAPS  H11A 8688   4.224   1.568  10.567 -1.0824  1.4829  1.4341
   90SAPS  H11B 8689   4.318   1.693  10.493 -0.9808  3.7815  0.6815
   90SAPS     P 8690   4.105   1.777  10.717 -0.5673  0.1368  0.0492
   90SAPS   O13 8691   4.052   1.703  10.830 -0.0660 -0.4885 -0.1447
   90SAPS   O14 8692   4.088   1.922  10.727 -0.1011 -0.4715  0.1418
   90SAPS   O12 8693   4.253   1.743  10.687 -0.9642 -1.1427 -0.6466
   90SAPS   O11 8694   4.037   1.742  10.587 -0.1976 -0.1831 -0.1518
   90SAPS    C1 8695   4.062   1.830  10.474 -0.2533  0.0289 -0.3804
   90SAPS    HA 8696   4.035   1.936  10.495  0.2645  0.3113 -1.1069
   90SAPS    HB 8697   4.170   1.824  10.447 -0.1922 -0.2484 -0.0839
   90SAPS    C2 8698   3.971   1.792  10.358 -0.5801 -0.0595  0.2555
   90SAPS    HS 8699   3.873   1.764  10.402  0.0803 -0.1627  1.7096
   90SAPS   O21 8700   4.037   1.683  10.287 -0.0843  0.3332  0.5075
   90SAPS   C21 8701   3.964   1.583  10.238  0.2046 -0.5868  1.0482
   90SAPS   O22 8702   3.840   1.581  10.236 -0.0841 -0.2187  0.7209
   90SAPS   C22 8703   4.059   1.483  10.163 -0.1126 -0.4277 -0.0258
   90SAPS   H2R 8704   4.037   1.384  10.208 -1.2113 -1.2596 -2.2130
   90SAPS   H2S 8705   4.040   1.482  10.053  2.9804  0.7067 -0.6932
   90SAPS    C3 8706   3.969   1.913  10.261  0.1451 -0.8820 -0.0075
   90SAPS    HX 8707   4.078   1.938  10.263 -0.4408  2.0580  0.4909
   90SAPS    HY 8708   3.914   2.002  10.299 -0.2406 -0.9127 -0.4812
   90SAPS   O31 8709   3.924   1.881  10.128 -0.5667 -0.2538 -1.1429
   90SAPS   C31 8710   3.792   1.869  10.120  0.5025  0.0288 -0.6229
   90SAPS   O32 8711   3.709   1.898  10.205 -0.5057 -0.1644  0.0112
   90SAPS   C32 8712   3.765   1.812   9.981  0.6250  0.2293  0.9579
   90SAPS   H2X 8713   3.807   1.710   9.969  0.5197  0.2077  0.7782
   90SAPS   H2Y 8714   3.796   1.878   9.897  0.6268 -1.8394 -0.7368
   90SAPS   C23 8715   4.213   1.513  10.172  0.3560  0.4052 -0.6527
   90SAPS   H3R 8716   4.265   1.417  10.153  0.6471  0.6306 -1.0160
   90SAPS   H3S 8717   4.241   1.532  10.278  0.5241 -1.3562 -0.3620
   90SAPS   C24 8718   4.257   1.622  10.083  0.6614 -0.3772 -0.1773
   90SAPS   H4R 8719   4.209   1.721  10.099  1.6921  0.2219 -0.7168
   90SAPS   H4S 8720   4.217   1.596   9.983  0.0738  1.2893 -0.4049
   90SAPS   C25 8721   4.405   1.634  10.095  0.1781 -0.0652  0.2822
   90SAPS   H5R 8722   4.448   1.622  10.195  1.1519  2.0908  0.1793
   90SAPS   C26 8723   4.496   1.640   9.995 -0.5718 -0.3728  0.3967
   90SAPS   H6R 8724   4.600   1.652  10.028  0.1409  1.7866 -2.3309
   90SAPS   C27 8725   4.468   1.649   9.845  0.2216 -0.2898 -0.1383
   90SAPS   H7R 8726   4.371   1.607   9.812  1.6045 -2.4342 -1.7974
   90SAPS   H7S 8727   4.544   1.582   9.799 -1.8203 -2.0669 -1.0777
   90SAPS   C28 8728   4.482   1.793   9.803  0.2171 -0.4588 -0.3990
   90SAPS   H8R 8729   4.445   1.869   9.873  0.4462  0.2018 -0.9894
   90SAPS   C29 8730   4.550   1.841   9.698 -1.2927 -0.1825 -0.1870
   90SAPS   H9R 8731   4.546   1.950   9.682 -0.6285 -0.2374 -0.7504
   90SAPS  C210 8732   4.621   1.765   9.585 -0.4350 -0.5813  0.4710
   90SAPS  H10R 8733   4.708   1.713   9.628 -0.2785 -0.0361  0.8299
   90SAPS  H10S 8734   4.681   1.831   9.519  0.1194 -1.5084  0.0405
   90SAPS  C211 8735   4.533   1.674   9.502  0.8258  0.6308 -0.3273
   90SAPS  H11R 8736   4.463   1.620   9.568  0.2963 -0.2372 -1.5623
   90SAPS  C212 8737   4.538   1.648   9.372  0.8464  0.0438  0.0963
   90SAPS  H12R 8738   4.473   1.568   9.334 -2.2839  1.6833  1.6041
   90SAPS  C213 8739   4.641   1.703   9.274  0.0697 -0.5061 -0.5502
   90SAPS  H13R 8740   4.732   1.740   9.325 -1.5914  1.3486  1.2270
   90SAPS  H13S 8741   4.611   1.800   9.229  1.0564  0.8273  1.5071
   90SAPS  C214 8742   4.670   1.592   9.166  0.1170  0.0084  0.2593
   90SAPS  H14R 8743   4.682   1.492   9.210 -4.7189  0.4487  3.2804
   90SAPS  C215 8744   4.689   1.601   9.033 -0.1403 -0.2585 -0.1870
   90SAPS  H15R 8745   4.714   1.510   8.976  0.3819  0.4942 -1.1877
   90SAPS  C216 8746   4.701   1.739   8.963 -0.6421 -0.5122 -0.0293
   90SAPS  H16R 8747   4.666   1.821   9.030  0.3605  0.8491 -1.0833
   90SAPS  H16S 8748   4.637   1.747   8.873 -0.6714  0.6596  0.0757
   90SAPS  C217 8749   4.846   1.772   8.918  0.0591 -0.2868 -1.0088
   90SAPS  H17R 8750   4.922   1.781   8.999 -1.0348  0.6383 -0.0462
   90SAPS  H17S 8751   4.849   1.869   8.863  0.5276  0.1013 -0.3095
   90SAPS  C218 8752   4.896   1.664   8.812  0.7938  0.1351  0.5690
   90SAPS  H18R 8753   4.810   1.623   8.756  0.0354 -0.5927  2.1993
   90SAPS  H18S 8754   4.921   1.578   8.878 -1.5248  0.7639  2.4033
   90SAPS  C219 8755   5.013   1.717   8.728  0.2307 -0.0683  0.0971
   90SAPS  H19R 8756   4.984   1.811   8.677 -2.5964 -1.2577 -0.6811
   90SAPS  H19S 8757   5.038   1.639   8.653 -0.6059 -0.9877  0.7471
   90SAPS  C220 8758   5.136   1.760   8.809  0.1294  0.7512 -0.0116
   90SAPS  H20R 8759   5.210   1.789   8.731 -0.0165 -0.8187 -0.7774
   90SAPS  H20S 8760   5.183   1.671   8.856 -1.1729 -0.8263 -1.5480
   90SAPS  H20T 8761   5.124   1.829   8.895  1.2475 -2.1824  2.6799
   90SAPS   C33 8762   3.611   1.807   9.971 -0.1861  0.4830 -0.6605
   90SAPS   H3X 8763   3.578   1.912   9.955  0.9057  0.6941 -1.6910
   90SAPS   H3Y 8764   3.575   1.767  10.069  1.4994 -1.9524 -0.9308
   90SAPS   C34 8765   3.558   1.727   9.850 -1.4520 -0.3866  0.3185
   90SAPS   H4X 8766   3.448   1.743   9.844 -1.0749  2.5053 -0.8009
   90SAPS   H4Y 8767   3.587   1.621   9.861  0.2930  0.1757  1.7879
   90SAPS   C35 8768   3.618   1.786   9.720  0.3961 -0.1566  0.6122
   90SAPS   H5X 8769   3.727   1.766   9.723  0.8709  2.0664  0.1549
   90SAPS   H5Y 8770   3.594   1.894   9.723  1.2003  0.0063  1.4735
   90SAPS   C36 8771   3.566   1.719   9.587 -0.8168 -0.1222  0.9051
   90SAPS   H6X 8772   3.459   1.750   9.581 -0.9568 -0.5152  1.3090
   90SAPS   H6Y 8773   3.551   1.610   9.605 -0.1808 -0.1455  1.3443
   90SAPS   C37 8774   3.662   1.742   9.467 -0.7228  0.1896 -0.2544
   90SAPS   H7X 8775   3.763   1.713   9.501 -0.6497  2.0214  1.2453
   90SAPS   H7Y 8776   3.657   1.844   9.422 -0.0233  0.4339  0.2105
   90SAPS   C38 8777   3.639   1.631   9.362  0.0396  0.0794  0.3441
   90SAPS   H8X 8778   3.534   1.632   9.325  0.1041 -1.1179  0.0978
   90SAPS   H8Y 8779   3.652   1.530   9.405 -0.2646 -1.0979 -2.1605
   90SAPS   C39 8780   3.720   1.634   9.231 -1.3021 -0.3231  0.7306
   90SAPS   H9X 8781   3.823   1.644   9.272 -0.6675 -1.1385 -0.5914
   90SAPS   H9Y 8782   3.694   1.728   9.179 -0.3281 -0.4508 -0.0088
   90SAPS  C310 8783   3.705   1.509   9.150 -0.0885 -0.3800 -0.0882
   90SAPS  H10X 8784   3.595   1.490   9.148 -1.1327  4.3570  0.9991
   90SAPS  H10Y 8785   3.763   1.436   9.210  0.2940  1.2536  1.5932
   90SAPS  C311 8786   3.758   1.526   9.007 -1.0337  0.2941 -0.6932
   90SAPS  H11X 8787   3.868   1.542   9.002 -1.0360  1.0605  1.1378
   90SAPS  H11Y 8788   3.699   1.614   8.972 -0.6793  1.2138  0.9202
   90SAPS  C312 8789   3.721   1.414   8.904  0.3139  0.1462  0.1478
   90SAPS  H12X 8790   3.713   1.467   8.806  0.1134 -0.3264 -0.0978
   90SAPS  H12Y 8791   3.614   1.394   8.926 -0.0230  1.5823 -0.0494
   90SAPS  C313 8792   3.814   1.300   8.884 -0.1297 -0.0084 -0.2452
   90SAPS  H13X 8793   3.868   1.260   8.973  2.3182 -1.1541 -2.1247
   90SAPS  H13Y 8794   3.895   1.337   8.818  0.1058 -0.2895 -0.1148
   90SAPS  C314 8795   3.738   1.190   8.830  0.6386  0.1266 -0.9825
   90SAPS  H14X 8796   3.692   1.227   8.736 -1.5574  0.2736  0.0847
   90SAPS  H14Y 8797   3.651   1.171   8.896  0.3555  3.5271 -0.2066
   90SAPS  C315 8798   3.829   1.066   8.812 -0.0688 -1.4945  0.3952
   90SAPS  H15X 8799   3.856   1.017   8.908  0.4906 -0.9556  0.5202
   90SAPS  H15Y 8800   3.929   1.088   8.770  1.0261 -3.2829  1.9302
   90SAPS  C316 8801   3.768   0.970   8.712  0.3856 -0.1710  0.0899
   90SAPS  H16X 8802   3.771   1.006   8.607  1.8665 -1.4075 -0.3122
   90SAPS  H16Y 8803   3.660   0.948   8.732  0.1208  1.2627  0.3709
   90SAPS  C317 8804   3.841   0.836   8.701  0.7842 -0.4168  0.2572
   90SAPS  H17X 8805   3.860   0.789   8.800 -0.7263 -1.0085  0.2826
   90SAPS  H17Y 8806   3.943   0.864   8.665  0.2983 -0.4446 -1.1886
   90SAPS  C318 8807   3.794   0.740   8.601 -0.0138 -0.3719  0.4717
   90SAPS  H18X 8808   3.856   0.649   8.615 -0.9404 -1.1080 -0.1108
   90SAPS  H18Y 8809   3.809   0.777   8.498 -0.3354 -0.1911  0.4859
   90SAPS  H18Z 8810   3.690   0.707   8.625  0.3770 -1.2737  0.9723
   91SAPS     N 8811   3.107   6.223   5.868 -0.1706  0.5788 -0.6994
   91SAPS   HN1 8812   3.145   6.156   5.798 -1.8677 -1.6349  0.3723
   91SAPS   HN2 8813   3.156   6.315   5.865 -1.9613  1.5792 -0.3654
   91SAPS   HN3 8814   3.126   6.186   5.963  1.3891  3.1732  0.1342
   91SAPS   C12 8815   2.957   6.243   5.848  0.0329 -0.1071 -0.7037
   91SAPS  H12A 8816   2.928   6.307   5.930 -0.0994 -2.3875  1.1334
   91SAPS   C13 8817   2.917   6.309   5.720  0.6659  0.1051 -0.4163
   91SAPS  O13A 8818   2.997   6.374   5.650 -0.0086 -0.6445  0.0764
   91SAPS  O13B 8819   2.790   6.327   5.710 -0.8519  0.2536 -0.2390
   91SAPS   C11 8820   2.876   6.111   5.873  0.2938 -0.8075 -0.1373
   91SAPS  H11A 8821   2.906   6.035   5.798 -0.2079  0.5926 -1.8345
   91SAPS  H11B 8822   2.766   6.129   5.874  0.4833  0.4478  1.0156
   91SAPS     P 8823   2.820   6.046   6.126  0.6147  0.2484  0.0025
   91SAPS   O13 8824   2.678   6.045   6.086 -0.6543 -0.5651  0.1986
   91SAPS   O14 8825   2.866   5.928   6.205 -0.2447  0.2351  0.0748
   91SAPS   O12 8826   2.918   6.056   6.000  0.4398  0.1059  0.0931
   91SAPS   O11 8827   2.860   6.185   6.189  0.0784 -0.2381 -0.1404
   91SAPS    C1 8828   2.988   6.229   6.218  0.5427 -0.1922  0.0780
   91SAPS    HA 8829   3.054   6.141   6.234  0.6633  0.3101  2.8338
   91SAPS    HB 8830   3.031   6.301   6.145 -1.9999  1.8334  0.4146
   91SAPS    C2 8831   2.990   6.297   6.355 -0.0272  0.5990 -0.2479
   91SAPS    HS 8832   2.976   6.213   6.426  1.4024  0.8431  0.3567
   91SAPS   O21 8833   2.888   6.394   6.359 -0.6929 -0.1328  0.0670
   91SAPS   C21 8834   2.788   6.360   6.443  0.1339  0.0223 -0.4101
   91SAPS   O22 8835   2.792   6.261   6.518  1.1775  0.6872 -0.6378
   91SAPS   C22 8836   2.669   6.451   6.430 -0.4067  0.2997  0.6672
   91SAPS   H2R 8837   2.695   6.558   6.442 -0.1737  0.4384 -0.8627
   91SAPS   H2S 8838   2.642   6.444   6.323 -1.1475 -1.3433  0.9310
   91SAPS    C3 8839   3.124   6.363   6.393 -0.1038  0.4413  0.0478
   91SAPS    HX 8840   3.100   6.444   6.465 -0.2954 -0.1432  0.6496
   91SAPS    HY 8841   3.177   6.413   6.309 -0.3773 -0.0009 -0.4021
   91SAPS   O31 8842   3.226   6.280   6.457 -0.1001 -0.0484  0.7312
   91SAPS   C31 8843   3.202   6.262   6.586 -0.4751 -0.2257 -0.4158
   91SAPS   O32 8844   3.100   6.295   6.644 -0.9032  0.1745  0.1242
   91SAPS   C32 8845   3.323   6.202   6.654 -0.5849  0.0807 -0.3242
   91SAPS   H2X 8846   3.406   6.275   6.638  1.4616 -1.9698  0.2673
   91SAPS   H2Y 8847   3.331   6.098   6.614  0.5316 -0.1683  0.4709
   91SAPS   C23 8848   2.540   6.404   6.499  0.1915  0.4167  0.4093
   91SAPS   H3R 8849   2.539   6.298   6.467  1.4328  0.5220 -0.0368
   91SAPS   H3S 8850   2.455   6.462   6.459 -0.9444 -1.2046  0.3648
   91SAPS   C24 8851   2.552   6.420   6.650  0.1521  0.8390 -0.9502
   91SAPS   H4R 8852   2.583   6.521   6.685  0.6342  0.1002  0.8598
   91SAPS   H4S 8853   2.639   6.360   6.685 -0.4918  0.3102 -0.2188
   91SAPS   C25 8854   2.422   6.379   6.715  0.1186  0.0576  0.1408
   91SAPS   H5R 8855   2.334   6.394   6.649 -0.2143  0.9678  0.7709
   91SAPS   C26 8856   2.398   6.341   6.840 -0.6816 -0.0934 -0.0071
   91SAPS   H6R 8857   2.298   6.314   6.877 -1.2606 -0.9103 -2.0511
   91SAPS   C27 8858   2.495   6.320   6.951  0.5010 -0.0639 -0.0892
   91SAPS   H7R 8859   2.438   6.310   7.046 -1.0858  0.2087 -0.9854
   91SAPS   H7S 8860   2.563   6.406   6.967  0.2111  0.2464 -0.5068
   91SAPS   C28 8861   2.583   6.198   6.945  0.6437 -0.8279 -0.0539
   91SAPS   H8R 8862   2.611   6.180   6.840  0.3896 -0.3187 -0.2134
   91SAPS   C29 8863   2.613   6.117   7.051  0.0499 -0.2261  0.0008
   91SAPS   H9R 8864   2.690   6.043   7.023  0.6812  0.0879  0.8481
   91SAPS  C210 8865   2.584   6.128   7.200  0.1809 -0.5167  0.1756
   91SAPS  H10R 8866   2.590   6.232   7.237  0.5492 -1.7809  4.1361
   91SAPS  H10S 8867   2.667   6.077   7.254 -0.0485  1.7793  2.8764
   91SAPS  C211 8868   2.456   6.059   7.237 -0.6149 -0.1473 -0.1584
   91SAPS  H11R 8869   2.414   6.003   7.153  0.4521 -1.5563  0.1959
   91SAPS  C212 8870   2.405   6.040   7.364 -0.0166  0.7114 -1.0872
   91SAPS  H12R 8871   2.316   5.978   7.382  0.6588 -0.0795 -0.3995
   91SAPS  C213 8872   2.458   6.090   7.497  0.0646  1.2904 -0.3442
   91SAPS  H13R 8873   2.527   6.170   7.463  0.3122  1.6919  1.0539
   91SAPS  H13S 8874   2.530   6.019   7.544 -0.4957 -0.2379 -1.7078
   91SAPS  C214 8875   2.349   6.144   7.591 -0.1043  0.3600  0.1520
   91SAPS  H14R 8876   2.278   6.215   7.547  1.4123  0.5922 -2.0939
   91SAPS  C215 8877   2.340   6.116   7.720  0.1067 -0.7443  0.0295
   91SAPS  H15R 8878   2.255   6.160   7.774 -1.3114 -2.1124 -1.0088
   91SAPS  C216 8879   2.424   6.031   7.819 -0.3121  0.0992 -0.5606
   91SAPS  H16R 8880   2.516   5.995   7.769 -0.4545 -0.6197 -0.3064
   91SAPS  H16S 8881   2.362   5.943   7.845  0.2853 -0.7480 -1.8850
   91SAPS  C217 8882   2.482   6.100   7.946 -0.0134  0.4365 -0.0546
   91SAPS  H17R 8883   2.542   6.020   7.995  0.0553 -1.8975 -3.5389
   91SAPS  H17S 8884   2.402   6.132   8.015  0.0326  0.1039  0.1551
   91SAPS  C218 8885   2.580   6.220   7.921 -0.2984  0.3447  0.2275
   91SAPS  H18R 8886   2.510   6.305   7.910  0.0974  0.5618 -0.6889
   91SAPS  H18S 8887   2.632   6.196   7.826  2.8643 -1.1195  2.1678
   91SAPS  C219 8888   2.682   6.237   8.031 -0.0491  0.4016 -0.2863
   91SAPS  H19R 8889   2.744   6.325   8.005 -1.3931  1.0897 -1.2681
   91SAPS  H19S 8890   2.740   6.142   8.033 -2.6809 -1.3195  0.0714
   91SAPS  C220 8891   2.633   6.250   8.169  0.0306 -0.4407 -0.6640
   91SAPS  H20R 8892   2.549   6.322   8.169  1.5632  1.4291 -1.1196
   91SAPS  H20S 8893   2.712   6.283   8.240  0.1017  0.0085 -0.9479
   91SAPS  H20T 8894   2.585   6.158   8.209 -4.0956  1.8792  0.2369
   91SAPS   C33 8895   3.300   6.208   6.813  0.1416  0.4687 -0.0765
   91SAPS   H3X 8896   3.236   6.128   6.854 -0.5419  2.9504  4.3735
   91SAPS   H3Y 8897   3.257   6.306   6.843 -0.8325  0.2413 -0.6903
   91SAPS   C34 8898   3.439   6.198   6.874  0.3356  0.1546  0.3508
   91SAPS   H4X 8899   3.482   6.288   6.826  1.2321 -1.6365 -2.4868
   91SAPS   H4Y 8900   3.490   6.110   6.828 -3.3512 -1.0766 -1.8978
   91SAPS   C35 8901   3.449   6.190   7.027  0.0398 -0.7000  0.4473
   91SAPS   H5X 8902   3.409   6.280   7.078  1.3438 -1.3824  2.8318
   91SAPS   H5Y 8903   3.557   6.198   7.053  0.1390  1.3838 -0.4330
   91SAPS   C36 8904   3.396   6.069   7.104  0.0075 -0.0531  0.6573
   91SAPS   H6X 8905   3.400   5.981   7.036 -3.5176  0.6755 -0.6847
   91SAPS   H6Y 8906   3.290   6.086   7.131 -0.1245  1.1985 -0.5356
   91SAPS   C37 8907   3.484   6.038   7.229 -0.1362 -0.3246  0.2570
   91SAPS   H7X 8908   3.591   6.032   7.197 -0.3115  0.0340 -0.4092
   91SAPS   H7Y 8909   3.443   5.939   7.258 -2.4067  0.3299 -0.5244
   91SAPS   C38 8910   3.481   6.145   7.338  0.3057  0.6315 -0.2110
   91SAPS   H8X 8911   3.372   6.159   7.354  0.0017 -0.9191 -0.7340
   91SAPS   H8Y 8912   3.529   6.236   7.298  0.0065  1.3722  1.0485
   91SAPS   C39 8913   3.550   6.103   7.469  0.3493 -0.2651  0.1060
   91SAPS   H9X 8914   3.654   6.073   7.445  0.3176 -0.0528 -0.3116
   91SAPS   H9Y 8915   3.493   6.021   7.517  0.3496 -0.9004 -0.9458
   91SAPS  C310 8916   3.551   6.228   7.566 -0.0222  0.0074  0.5969
   91SAPS  H10X 8917   3.450   6.253   7.604 -0.0705 -2.6371  2.4058
   91SAPS  H10Y 8918   3.579   6.317   7.505 -1.7707 -0.1498 -0.5169
   91SAPS  C311 8919   3.618   6.206   7.695 -0.3853  1.0588 -0.4116
   91SAPS  H11X 8920   3.717   6.156   7.689 -1.2232 -0.9123  1.0190
   91SAPS  H11Y 8921   3.565   6.134   7.762  2.3204  0.7551  1.6050
   91SAPS  C312 8922   3.635   6.331   7.779  0.5339 -0.1288 -0.9196
   91SAPS  H12X 8923   3.709   6.394   7.726  0.3486 -0.2769 -1.3654
   91SAPS  H12Y 8924   3.659   6.292   7.880  0.3652  1.6353 -0.1796
   91SAPS  C313 8925   3.505   6.421   7.808 -0.2015 -0.1702  0.5108
   91SAPS  H13X 8926   3.422   6.367   7.858  1.4095 -2.3105  1.0403
   91SAPS  H13Y 8927   3.473   6.462   7.710  0.6144 -1.6528 -0.4253
   91SAPS  C314 8928   3.538   6.544   7.892  0.0783  0.1805 -0.7749
   91SAPS  H14X 8929   3.481   6.637   7.869  0.9853  1.5129  2.0089
   91SAPS  H14Y 8930   3.645   6.574   7.885  0.1147 -0.0079 -1.0656
   91SAPS  C315 8931   3.503   6.515   8.040  0.0669  0.3489  0.6076
   91SAPS  H15X 8932   3.581   6.458   8.094  1.7241 -0.5673 -2.5586
   91SAPS  H15Y 8933   3.409   6.455   8.038  1.2054 -1.4781 -1.2663
   91SAPS  C316 8934   3.473   6.640   8.131  0.2763  1.1396  0.8001
   91SAPS  H16X 8935   3.415   6.717   8.077  0.3549  1.6100  1.3754
   91SAPS  H16Y 8936   3.571   6.684   8.161  1.6786 -3.0915  3.3999
   91SAPS  C317 8937   3.404   6.595   8.260 -0.5787  0.2062  0.3074
   91SAPS  H17X 8938   3.466   6.513   8.301 -0.1040  0.0135 -0.7484
   91SAPS  H17Y 8939   3.310   6.548   8.222 -1.3011  1.5638  0.3283
   91SAPS  C318 8940   3.374   6.707   8.356 -0.4939  0.1927  0.2901
   91SAPS  H18X 8941   3.478   6.746   8.358 -0.0513 -0.9495  0.2708
   91SAPS  H18Y 8942   3.333   6.661   8.449 -0.1636  4.0835  2.5873
   91SAPS  H18Z 8943   3.302   6.783   8.319 -1.6729 -0.6306  0.8299
   92SAPS     N 8944   3.434   3.501   6.226 -0.4739 -0.0165  0.1451
   92SAPS   HN1 8945   3.475   3.498   6.130 -1.5520  0.8622 -0.3730
   92SAPS   HN2 8946   3.353   3.566   6.224 -2.1233 -2.0090 -0.6096
   92SAPS   HN3 8947   3.508   3.546   6.284 -1.3993 -0.7892  1.9764
   92SAPS   C12 8948   3.415   3.364   6.279  0.1448  0.2234  0.6063
   92SAPS  H12A 8949   3.328   3.321   6.230 -1.3833  2.7054  0.9313
   92SAPS   C13 8950   3.529   3.271   6.242  0.0486  0.0941 -0.0988
   92SAPS  O13A 8951   3.616   3.299   6.159  0.0647 -0.6487 -0.0635
   92SAPS  O13B 8952   3.534   3.154   6.294 -0.1617 -0.3902 -0.3824
   92SAPS   C11 8953   3.386   3.371   6.428  0.0330 -0.1141  0.3247
   92SAPS  H11A 8954   3.479   3.410   6.474 -0.0921  1.6957 -0.8314
   92SAPS  H11B 8955   3.362   3.270   6.467 -2.2067  0.3694  0.3556
   92SAPS     P 8956   3.275   3.581   6.547  0.2832  0.3007 -0.1874
   92SAPS   O13 8957   3.353   3.685   6.477  0.0983 -0.3544 -0.5987
   92SAPS   O14 8958   3.140   3.623   6.573  0.4004 -0.0932 -0.0743
   92SAPS   O12 8959   3.272   3.451   6.458 -0.0367  0.1074 -0.1419
   92SAPS   O11 8960   3.356   3.531   6.672  0.1429 -0.9344  0.1086
   92SAPS    C1 8961   3.304   3.418   6.744 -1.0146 -0.2239 -0.9329
   92SAPS    HA 8962   3.243   3.343   6.689 -0.0163 -2.5460  0.9462
   92SAPS    HB 8963   3.381   3.351   6.787 -0.0610  0.4242 -1.6133
   92SAPS    C2 8964   3.224   3.462   6.869 -0.3230  0.3163  0.4043
   92SAPS    HS 8965   3.138   3.527   6.842 -0.0090 -0.0211 -1.5790
   92SAPS   O21 8966   3.304   3.537   6.956 -0.0279 -0.2519 -0.2551
   92SAPS   C21 8967   3.307   3.670   6.935 -0.0538  0.2236 -0.3407
   92SAPS   O22 8968   3.258   3.728   6.843  0.1812 -0.2865 -0.1381
   92SAPS   C22 8969   3.404   3.731   7.034  0.5266  0.4361  0.6620
   92SAPS   H2R 8970   3.434   3.650   7.104  2.5946 -0.9946 -1.6958
   92SAPS   H2S 8971   3.499   3.762   6.985  0.1897  1.0101  0.3629
   92SAPS    C3 8972   3.174   3.329   6.934  0.1491  0.5640  0.1867
   92SAPS    HX 8973   3.271   3.290   6.973  1.0987  2.4070 -0.2260
   92SAPS    HY 8974   3.131   3.263   6.855 -1.0177 -0.6185  1.7396
   92SAPS   O31 8975   3.081   3.362   7.037 -0.5525 -0.4821  0.0634
   92SAPS   C31 8976   3.094   3.287   7.152  0.0560  0.0681  0.0645
   92SAPS   O32 8977   3.180   3.213   7.184 -0.6143 -0.1183  0.8636
   92SAPS   C32 8978   2.974   3.317   7.249 -0.2767 -0.3424  0.9509
   92SAPS   H2X 8979   2.879   3.268   7.217 -0.0040 -0.3979  0.2117
   92SAPS   H2Y 8980   2.962   3.426   7.263 -1.3983 -0.3568  0.2329
   92SAPS   C23 8981   3.333   3.846   7.116 -0.1479  0.3409 -0.1335
   92SAPS   H3R 8982   3.316   3.933   7.049  0.4995 -0.4143 -1.3201
   92SAPS   H3S 8983   3.396   3.889   7.197  1.2642 -0.3112 -0.8461
   92SAPS   C24 8984   3.194   3.805   7.172  0.7418  0.4565 -0.2019
   92SAPS   H4R 8985   3.126   3.790   7.086  0.1968  0.8694  0.1570
   92SAPS   H4S 8986   3.146   3.885   7.231 -0.2838 -0.7125  0.6033
   92SAPS   C25 8987   3.194   3.683   7.261 -0.2944  0.4583  0.0005
   92SAPS   H5R 8988   3.197   3.580   7.223  0.8035 -0.2051  1.7482
   92SAPS   C26 8989   3.212   3.691   7.394 -0.3380  0.2833 -0.6212
   92SAPS   H6R 8990   3.207   3.593   7.445 -0.0187  0.1348 -0.8773
   92SAPS   C27 8991   3.238   3.816   7.474 -0.1264 -0.2818  0.5706
   92SAPS   H7R 8992   3.278   3.897   7.409 -0.8756 -0.4212 -0.0811
   92SAPS   H7S 8993   3.320   3.810   7.549 -1.9431  0.2875  2.6999
   92SAPS   C28 8994   3.107   3.869   7.540 -0.0101  0.6691 -0.4093
   92SAPS   H8R 8995   3.049   3.944   7.485 -2.1367 -1.1081 -0.7484
   92SAPS   C29 8996   3.060   3.819   7.655  0.0952 -0.1953  0.1837
   92SAPS   H9R 8997   2.956   3.834   7.688 -0.6158 -1.8866 -1.1490
   92SAPS  C210 8998   3.131   3.711   7.734  0.5315  0.9603 -0.2628
   92SAPS  H10R 8999   3.138   3.753   7.836  0.3766 -0.9115  0.5557
   92SAPS  H10S 9000   3.237   3.685   7.713  0.8218 -0.3994  2.4374
   92SAPS  C211 9001   3.050   3.590   7.743  0.0308  0.8179  0.8292
   92SAPS  H11R 9002   2.989   3.566   7.655  0.1680 -0.4608  1.0739
   92SAPS  C212 9003   3.032   3.522   7.852  0.1314  0.1280  0.1499
   92SAPS  H12R 9004   2.956   3.443   7.845 -1.9788  1.9509  1.4288
   92SAPS  C213 9005   3.090   3.554   7.992  0.6804  0.3154 -0.3304
   92SAPS  H13R 9006   3.172   3.628   7.986 -0.5729  1.7021 -1.4856
   92SAPS  H13S 9007   3.135   3.457   8.020 -1.4530 -0.8469 -0.7034
   92SAPS  C214 9008   2.972   3.598   8.079  0.4290 -0.2879 -0.6093
   92SAPS  H14R 9009   2.925   3.691   8.043 -1.8714 -1.4417 -0.7645
   92SAPS  C215 9010   2.925   3.530   8.188 -0.0405  0.0329  0.4298
   92SAPS  H15R 9011   2.834   3.571   8.233 -0.4278  2.0417 -1.9596
   92SAPS  C216 9012   2.976   3.401   8.250  0.5571  0.0912  0.4467
   92SAPS  H16R 9013   3.064   3.356   8.199 -0.1975 -1.4622  0.4586
   92SAPS  H16S 9014   2.898   3.322   8.258  0.1837  0.4711  0.5728
   92SAPS  C217 9015   3.032   3.446   8.386  0.1278  0.2232 -0.7125
   92SAPS  H17R 9016   3.111   3.523   8.371  1.8202 -1.0141  1.2565
   92SAPS  H17S 9017   3.085   3.357   8.427  1.1920  0.1306 -2.2285
   92SAPS  C218 9018   2.925   3.491   8.481 -0.2379 -0.0785  0.0896
   92SAPS  H18R 9019   2.849   3.410   8.481  1.9725 -2.3253 -2.1961
   92SAPS  H18S 9020   2.892   3.592   8.452 -0.2429 -0.2956 -0.6691
   92SAPS  C219 9021   2.977   3.492   8.624  0.5527 -0.2021  0.9020
   92SAPS  H19R 9022   3.053   3.573   8.630 -0.1234  0.3445  2.7158
   92SAPS  H19S 9023   3.016   3.391   8.649 -0.8580 -1.1763 -0.6102
   92SAPS  C220 9024   2.876   3.533   8.731 -0.8656 -0.2100  0.1873
   92SAPS  H20R 9025   2.835   3.632   8.701 -0.0751  0.2949  0.7318
   92SAPS  H20S 9026   2.929   3.555   8.827 -2.6396  0.0418  1.1587
   92SAPS  H20T 9027   2.810   3.446   8.751  1.1356 -1.6045  1.0269
   92SAPS   C33 9028   3.004   3.263   7.391  0.2840  0.3934  0.1536
   92SAPS   H3X 9029   3.091   3.316   7.435  0.7838  0.5598 -1.0096
   92SAPS   H3Y 9030   3.020   3.153   7.391 -1.7369  0.0648  0.8285
   92SAPS   C34 9031   2.877   3.283   7.484  0.4397  0.1803 -0.2200
   92SAPS   H4X 9032   2.792   3.244   7.424  0.8248  1.5512 -1.7234
   92SAPS   H4Y 9033   2.868   3.391   7.508  0.6624 -0.0070  0.7393
   92SAPS   C35 9034   2.883   3.204   7.613  0.6805 -0.5363  0.0498
   92SAPS   H5X 9035   2.983   3.227   7.656  0.1659  0.6681  0.6518
   92SAPS   H5Y 9036   2.868   3.099   7.579 -2.7322 -0.1515  0.0704
   92SAPS   C36 9037   2.780   3.233   7.722  0.5982  0.4408  0.0116
   92SAPS   H6X 9038   2.678   3.214   7.683  1.5147 -1.1958 -1.7721
   92SAPS   H6Y 9039   2.779   3.344   7.732  0.2247  0.4066  0.3366
   92SAPS   C37 9040   2.793   3.158   7.857 -0.7695  0.6766 -0.1488
   92SAPS   H7X 9041   2.898   3.139   7.885 -0.2230  1.5642 -1.4742
   92SAPS   H7Y 9042   2.749   3.058   7.840  0.3649  0.2829 -0.8921
   92SAPS   C38 9043   2.714   3.225   7.966  0.1941  0.0184 -0.1946
   92SAPS   H8X 9044   2.620   3.259   7.917 -0.2520  0.0202  0.6288
   92SAPS   H8Y 9045   2.765   3.316   8.005 -0.2126 -0.1329  0.7238
   92SAPS   C39 9046   2.678   3.138   8.093  0.1416  0.0600 -0.0284
   92SAPS   H9X 9047   2.773   3.105   8.139 -0.4005 -0.6961  0.5869
   92SAPS   H9Y 9048   2.619   3.048   8.064  1.2511 -0.8624  0.5309
   92SAPS  C310 9049   2.593   3.222   8.183 -0.5084  0.3435  0.7776
   92SAPS  H10X 9050   2.485   3.208   8.166  0.1869 -3.4335 -1.7560
   92SAPS  H10Y 9051   2.614   3.330   8.170 -0.6075  0.3977  1.0645
   92SAPS  C311 9052   2.607   3.182   8.324  0.2731 -0.6174  1.0327
   92SAPS  H11X 9053   2.710   3.140   8.335  1.7499  2.1186 -1.1197
   92SAPS  H11Y 9054   2.530   3.102   8.336 -1.7046  1.3258  1.9080
   92SAPS  C312 9055   2.572   3.299   8.415 -0.1148  0.1601 -0.7599
   92SAPS  H12X 9056   2.478   3.337   8.371  1.0798  2.3018 -1.6442
   92SAPS  H12Y 9057   2.652   3.377   8.408 -0.6620  0.8908  0.7686
   92SAPS  C313 9058   2.577   3.247   8.555 -0.3336 -0.3927  0.1322
   92SAPS  H13X 9059   2.679   3.215   8.587 -0.2072  0.2361  0.3698
   92SAPS  H13Y 9060   2.525   3.149   8.554 -1.9468  0.4350 -0.0094
   92SAPS  C314 9061   2.524   3.343   8.658  0.0525 -0.1905  0.6350
   92SAPS  H14X 9062   2.534   3.448   8.623  2.7082 -0.3178  0.8308
   92SAPS  H14Y 9063   2.590   3.337   8.747  0.3379  3.0535  0.7691
   92SAPS  C315 9064   2.384   3.329   8.717  0.6763 -0.1233  0.7486
   92SAPS  H15X 9065   2.381   3.399   8.802  3.0601  1.9180 -0.7256
   92SAPS  H15Y 9066   2.369   3.228   8.762 -1.9603 -0.6074 -0.9440
   92SAPS  C316 9067   2.273   3.353   8.613 -0.2934 -0.0484 -0.1596
   92SAPS  H16X 9068   2.280   3.271   8.537  0.1562 -1.5273  1.4101
   92SAPS  H16Y 9069   2.297   3.450   8.564  1.4999 -0.7507 -0.7718
   92SAPS  C317 9070   2.133   3.336   8.678 -0.1272 -0.5005  0.1127
   92SAPS  H17X 9071   2.126   3.229   8.708 -0.6347 -0.9226 -1.4312
   92SAPS  H17Y 9072   2.047   3.351   8.609  0.6109  1.0721 -0.5071
   92SAPS  C318 9073   2.111   3.416   8.809 -0.0264 -0.3483  0.5430
   92SAPS  H18X 9074   2.191   3.393   8.882  0.6186 -0.8028 -0.2916
   92SAPS  H18Y 9075   2.013   3.388   8.853  0.5536 -1.4483  1.1790
   92SAPS  H18Z 9076   2.106   3.526   8.794 -1.0805 -0.1760  1.9869
   93SAPS     N 9077   3.887   3.312   6.152 -0.5715  0.7757 -0.4528
   93SAPS   HN1 9078   3.785   3.298   6.168 -0.7485  0.5952 -1.6704
   93SAPS   HN2 9079   3.901   3.309   6.049 -1.3091  1.2307 -0.5729
   93SAPS   HN3 9080   3.939   3.233   6.196  2.6139  2.7244 -0.4576
   93SAPS   C12 9081   3.932   3.436   6.212  0.1656  0.4802 -0.3205
   93SAPS  H12A 9082   4.039   3.428   6.216 -0.0071 -2.3543  1.7386
   93SAPS   C13 9083   3.905   3.564   6.134 -0.6834  0.2635  0.2658
   93SAPS  O13A 9084   3.844   3.566   6.025  0.0235 -0.2356  0.5652
   93SAPS  O13B 9085   3.969   3.663   6.184  0.0006  0.7474 -0.2787
   93SAPS   C11 9086   3.866   3.446   6.356  1.1018 -1.0595  0.7582
   93SAPS  H11A 9087   3.756   3.447   6.347  1.0700 -0.8497  1.1801
   93SAPS  H11B 9088   3.901   3.543   6.399 -1.1939 -0.0602  0.5021
   93SAPS     P 9089   4.014   3.366   6.551 -0.3588  0.0671 -0.2188
   93SAPS   O13 9090   4.089   3.240   6.575  0.0070 -0.2707  0.1813
   93SAPS   O14 9091   4.097   3.483   6.508 -0.2101 -0.3872  0.3988
   93SAPS   O12 9092   3.903   3.340   6.441 -0.8357  0.4740  0.3632
   93SAPS   O11 9093   3.926   3.387   6.682  0.0193 -0.2186  0.2095
   93SAPS    C1 9094   3.858   3.515   6.697 -0.0845  0.5172  0.5411
   93SAPS    HA 9095   3.922   3.600   6.666 -0.0834 -0.4623 -2.5164
   93SAPS    HB 9096   3.771   3.529   6.629  0.2891 -1.2435 -0.3464
   93SAPS    C2 9097   3.807   3.551   6.840  0.1132  0.5109 -0.6318
   93SAPS    HS 9098   3.804   3.658   6.870  0.4177  0.0471  1.1727
   93SAPS   O21 9099   3.887   3.474   6.933 -0.0827 -0.6552 -0.1569
   93SAPS   C21 9100   3.999   3.542   6.960  0.2390 -0.0916 -0.0552
   93SAPS   O22 9101   4.027   3.656   6.927  0.3197 -0.6323  0.0978
   93SAPS   C22 9102   4.096   3.462   7.041  0.7454 -0.4796 -0.0461
   93SAPS   H2R 9103   4.057   3.358   7.051 -0.3364 -0.0311  0.6854
   93SAPS   H2S 9104   4.188   3.446   6.982 -0.0660  0.0654 -1.5212
   93SAPS    C3 9105   3.659   3.498   6.859 -0.5792 -0.1768  0.2927
   93SAPS    HX 9106   3.664   3.401   6.805  0.9539  0.4544 -0.8125
   93SAPS    HY 9107   3.584   3.557   6.803 -0.3857  1.4094  1.6448
   93SAPS   O31 9108   3.626   3.488   7.003 -0.1199 -0.5647 -0.0266
   93SAPS   C31 9109   3.601   3.362   7.044  0.9941  0.3718  0.5331
   93SAPS   O32 9110   3.633   3.258   6.985 -0.1004 -0.4426 -0.4835
   93SAPS   C32 9111   3.531   3.366   7.176 -0.1801 -0.1410  0.2157
   93SAPS   H2X 9112   3.430   3.408   7.159 -0.5139  0.2630  2.8105
   93SAPS   H2Y 9113   3.585   3.449   7.226 -0.0332  0.4140 -0.8368
   93SAPS   C23 9114   4.126   3.515   7.183  0.0746 -0.0378  0.9386
   93SAPS   H3R 9115   4.028   3.548   7.225 -0.7732  2.2446 -2.3304
   93SAPS   H3S 9116   4.172   3.616   7.176 -1.0579  0.4800  0.7180
   93SAPS   C24 9117   4.202   3.420   7.273 -0.4846  0.5932  0.0670
   93SAPS   H4R 9118   4.299   3.398   7.223  0.4745 -0.8456  2.4084
   93SAPS   H4S 9119   4.147   3.324   7.274  0.2886  0.1417  1.4149
   93SAPS   C25 9120   4.215   3.493   7.405  0.0765  1.0114 -0.2660
   93SAPS   H5R 9121   4.233   3.600   7.390  2.1070  0.6109 -0.9043
   93SAPS   C26 9122   4.196   3.444   7.528 -0.0832 -0.6702 -0.2439
   93SAPS   H6R 9123   4.228   3.507   7.613  1.5997 -1.3416 -0.3543
   93SAPS   C27 9124   4.162   3.306   7.561  0.1763  0.3684 -0.0813
   93SAPS   H7R 9125   4.234   3.280   7.641  0.9639  2.8243  0.1081
   93SAPS   H7S 9126   4.191   3.231   7.485  2.7867 -2.5744  3.4668
   93SAPS   C28 9127   4.016   3.277   7.600  0.6187  0.1489  0.6266
   93SAPS   H8R 9128   3.964   3.225   7.518  2.7827  0.6333 -1.1711
   93SAPS   C29 9129   3.965   3.309   7.723 -0.5108 -0.5198 -0.5831
   93SAPS   H9R 9130   3.857   3.301   7.745 -0.2800 -0.1507  0.7485
   93SAPS  C210 9131   4.046   3.388   7.828  0.0631 -0.1081  0.1113
   93SAPS  H10R 9132   4.156   3.386   7.816 -0.0157  0.7565 -0.8546
   93SAPS  H10S 9133   4.014   3.338   7.922 -1.8459 -0.3944 -0.6509
   93SAPS  C211 9134   3.998   3.530   7.822  0.8097 -0.3206 -0.7302
   93SAPS  H11R 9135   3.998   3.583   7.726 -0.8376  0.6787 -0.2186
   93SAPS  C212 9136   3.953   3.593   7.934 -0.7476  0.0981 -0.4466
   93SAPS  H12R 9137   3.947   3.703   7.931  3.2143  0.4766 -0.0819
   93SAPS  C213 9138   3.928   3.540   8.071 -0.0665  0.2234 -0.5544
   93SAPS  H13R 9139   3.901   3.432   8.066 -0.4094  0.3027 -0.4274
   93SAPS  H13S 9140   3.844   3.590   8.124  0.7493  0.7919  0.2198
   93SAPS  C214 9141   4.046   3.544   8.170  0.4123  0.0036  1.0091
   93SAPS  H14R 9142   4.144   3.554   8.121  0.3508  2.1889  1.2357
   93SAPS  C215 9143   4.039   3.562   8.307 -0.2234  0.5497 -0.3944
   93SAPS  H15R 9144   4.130   3.568   8.368  0.2294 -0.2773 -0.9723
   93SAPS  C216 9145   3.913   3.556   8.392  0.3134 -0.5919 -0.7457
   93SAPS  H16R 9146   3.828   3.531   8.325  1.0007  0.3209 -2.0234
   93SAPS  H16S 9147   3.889   3.654   8.439  0.5449 -0.1536 -1.5095
   93SAPS  C217 9148   3.921   3.444   8.499 -0.5156  0.3558  0.2359
   93SAPS  H17R 9149   3.952   3.347   8.455  0.2027  0.7840 -0.2230
   93SAPS  H17S 9150   3.815   3.431   8.530 -0.3087 -1.1064  0.4115
   93SAPS  C218 9151   4.011   3.475   8.617 -0.0541  0.3950  0.1276
   93SAPS  H18R 9152   4.009   3.586   8.619  0.7313  0.4068  1.6873
   93SAPS  H18S 9153   4.117   3.449   8.597 -0.6166 -1.0522 -1.1588
   93SAPS  C219 9154   3.966   3.425   8.754 -1.0470 -0.7813  0.4945
   93SAPS  H19R 9155   3.857   3.444   8.764 -1.0008 -0.4065  0.2688
   93SAPS  H19S 9156   4.021   3.483   8.831 -2.5538 -0.5139  1.4213
   93SAPS  C220 9157   3.981   3.273   8.760 -0.1915 -0.7483 -0.2283
   93SAPS  H20R 9158   3.915   3.218   8.690 -0.7141 -0.0972 -0.2622
   93SAPS  H20S 9159   3.944   3.236   8.858 -0.5125  1.5530  0.5971
   93SAPS  H20T 9160   4.087   3.247   8.740 -0.0974 -0.7047  0.1931
   93SAPS   C33 9161   3.526   3.236   7.254  0.1906 -0.3946 -1.4001
   93SAPS   H3X 9162   3.623   3.186   7.276 -0.4525 -1.7017 -1.4627
   93SAPS   H3Y 9163   3.461   3.165   7.198 -2.6698  1.1697 -0.2753
   93SAPS   C34 9164   3.458   3.255   7.393  0.4490  0.7318 -0.1748
   93SAPS   H4X 9165   3.437   3.158   7.443  0.7565  0.3831 -0.7101
   93SAPS   H4Y 9166   3.363   3.304   7.362  1.0219  2.1703  0.2577
   93SAPS   C35 9167   3.529   3.341   7.492  0.3269  0.2974 -0.4506
   93SAPS   H5X 9168   3.550   3.441   7.447 -1.2796  1.1917  0.6685
   93SAPS   H5Y 9169   3.618   3.276   7.504 -1.1839 -1.7337  0.1613
   93SAPS   C36 9170   3.454   3.367   7.620 -1.1084  1.0704  0.0939
   93SAPS   H6X 9171   3.351   3.396   7.591 -1.7590 -0.6611  0.5486
   93SAPS   H6Y 9172   3.494   3.456   7.672 -0.3127  1.7781 -1.6551
   93SAPS   C37 9173   3.442   3.245   7.724 -0.3663 -0.5067  0.0474
   93SAPS   H7X 9174   3.548   3.220   7.749 -0.5958  0.0626  1.7271
   93SAPS   H7Y 9175   3.389   3.157   7.684 -2.1173  0.7469 -0.4872
   93SAPS   C38 9176   3.379   3.284   7.859  0.3552  0.0048  0.2936
   93SAPS   H8X 9177   3.384   3.204   7.936 -3.0579  1.3227  2.1184
   93SAPS   H8Y 9178   3.269   3.286   7.840  0.5063  0.3722 -0.5971
   93SAPS   C39 9179   3.407   3.418   7.923 -0.7635 -0.3891 -0.0066
   93SAPS   H9X 9180   3.338   3.431   8.009  1.2079  1.1396  1.4538
   93SAPS   H9Y 9181   3.380   3.498   7.851 -0.6907 -1.3093 -1.0855
   93SAPS  C310 9182   3.549   3.440   7.982 -0.1728 -0.7409  0.7548
   93SAPS  H10X 9183   3.569   3.545   8.012  3.3247 -1.5140  1.5823
   93SAPS  H10Y 9184   3.622   3.412   7.903 -0.2482 -0.7083  0.6749
   93SAPS  C311 9185   3.576   3.357   8.107  0.4702  0.7195 -0.0882
   93SAPS  H11X 9186   3.686   3.370   8.123  0.5027 -1.2694  1.8997
   93SAPS  H11Y 9187   3.565   3.252   8.075  0.3498  0.3870  1.0078
   93SAPS  C312 9188   3.494   3.402   8.232  0.5796 -0.2278  0.0217
   93SAPS  H12X 9189   3.391   3.421   8.196  0.9672 -0.4579 -1.2877
   93SAPS  H12Y 9190   3.543   3.495   8.268  0.4354 -0.5929  1.2099
   93SAPS  C313 9191   3.503   3.303   8.350 -0.4865  0.1845  0.4625
   93SAPS  H13X 9192   3.603   3.255   8.340 -0.2392  0.7608  0.1827
   93SAPS  H13Y 9193   3.422   3.228   8.337  0.4473 -0.6721 -0.6018
   93SAPS  C314 9194   3.493   3.368   8.482 -0.8750  0.0481 -0.9857
   93SAPS  H14X 9195   3.392   3.414   8.489 -0.8455  0.0128 -0.2026
   93SAPS  H14Y 9196   3.575   3.442   8.491 -0.1825 -0.9349  1.7844
   93SAPS  C315 9197   3.503   3.278   8.603 -0.1472 -0.0111  0.0543
   93SAPS  H15X 9198   3.585   3.206   8.585 -1.6885 -1.6260 -0.9084
   93SAPS  H15Y 9199   3.412   3.214   8.601 -1.1357  1.3293 -2.3840
   93SAPS  C316 9200   3.522   3.355   8.737 -1.1378  0.1532  0.0057
   93SAPS  H16X 9201   3.599   3.434   8.732  0.6330 -1.4870  0.0432
   93SAPS  H16Y 9202   3.567   3.284   8.810  0.9197 -0.6502 -1.9520
   93SAPS  C317 9203   3.384   3.402   8.793  0.2835  0.1842 -0.3765
   93SAPS  H17X 9204   3.323   3.453   8.715 -0.8935  0.1663  0.4952
   93SAPS  H17Y 9205   3.415   3.481   8.866 -1.1786  3.3668 -2.9466
   93SAPS  C318 9206   3.292   3.301   8.861 -0.9622  0.5988 -0.7731
   93SAPS  H18X 9207   3.342   3.253   8.948  0.9100  1.3147 -1.3985
   93SAPS  H18Y 9208   3.257   3.221   8.793 -0.5969 -2.0189  1.8899
   93SAPS  H18Z 9209   3.199   3.344   8.905 -2.0396  0.2134 -2.5608
   94SAPS     N 9210   3.095   6.703   5.624 -0.8112  0.2377  0.3458
   94SAPS   HN1 9211   3.017   6.646   5.664 -0.0557 -2.1651 -1.3660
   94SAPS   HN2 9212   3.059   6.798   5.602  2.8331  1.3570 -1.7881
   94SAPS   HN3 9213   3.119   6.659   5.533 -3.4009  0.8236 -0.7137
   94SAPS   C12 9214   3.207   6.720   5.715  0.1733  0.4344  0.3919
   94SAPS  H12A 9215   3.243   6.623   5.745 -1.8001 -0.2611  0.6717
   94SAPS   C13 9216   3.326   6.814   5.656 -0.1949  0.5704  0.4344
   94SAPS  O13A 9217   3.311   6.859   5.538 -0.4187 -0.3698 -0.1327
   94SAPS  O13B 9218   3.426   6.844   5.726  0.2138 -0.0277  0.0187
   94SAPS   C11 9219   3.155   6.790   5.839  0.7071 -0.5416  0.4399
   94SAPS  H11A 9220   3.112   6.886   5.801  1.4168  0.0878  1.1909
   94SAPS  H11B 9221   3.232   6.815   5.915 -0.9688 -0.4144  2.2083
   94SAPS     P 9222   3.045   6.608   6.000  0.5013 -0.2768  0.2185
   94SAPS   O13 9223   2.904   6.565   6.026 -0.1837  0.0634 -0.0419
   94SAPS   O14 9224   3.136   6.505   5.954 -0.3813  0.1087  0.1307
   94SAPS   O12 9225   3.041   6.721   5.894 -0.4097  0.3176 -0.2227
   94SAPS   O11 9226   3.103   6.682   6.126  0.9720 -0.3136  0.3126
   94SAPS    C1 9227   3.007   6.697   6.240 -1.2940 -0.5118  0.1670
   94SAPS    HA 9228   2.908   6.735   6.208 -0.9060  2.6358  2.2334
   94SAPS    HB 9229   2.985   6.602   6.292  0.6823 -0.4530  1.2249
   94SAPS    C2 9230   3.049   6.804   6.338 -0.2803  0.7531 -0.4027
   94SAPS    HS 9231   3.072   6.897   6.282 -0.6681  1.1470  0.0798
   94SAPS   O21 9232   3.165   6.757   6.413  0.2207 -0.3346  0.4953
   94SAPS   C21 9233   3.245   6.845   6.460 -0.0125 -1.2524  0.3073
   94SAPS   O22 9234   3.225   6.965   6.467  0.2206 -0.3291  0.8055
   94SAPS   C22 9235   3.361   6.771   6.526  0.0822  0.1824 -0.2713
   94SAPS   H2R 9236   3.324   6.670   6.553  0.9561 -0.1795 -0.3744
   94SAPS   H2S 9237   3.437   6.748   6.447 -2.2825 -1.3686 -2.2421
   94SAPS    C3 9238   2.934   6.846   6.439 -0.6575 -0.5793  0.1618
   94SAPS    HX 9239   2.857   6.889   6.372 -1.4079 -3.0063 -0.6329
   94SAPS    HY 9240   2.974   6.928   6.502 -1.3184 -1.0236  1.1815
   94SAPS   O31 9241   2.881   6.734   6.510  0.1159 -0.4458 -0.1259
   94SAPS   C31 9242   2.923   6.727   6.642  0.0151 -0.7701  0.1069
   94SAPS   O32 9243   3.001   6.804   6.695 -0.1148  0.6030 -0.3317
   94SAPS   C32 9244   2.862   6.605   6.707  0.8984 -0.5131 -0.3491
   94SAPS   H2X 9245   2.901   6.510   6.664  2.6257 -0.1172  0.2393
   94SAPS   H2Y 9246   2.752   6.613   6.720  0.9212  1.3553 -1.0029
   94SAPS   C23 9247   3.413   6.825   6.661 -0.1249 -0.0427 -0.0920
   94SAPS   H3R 9248   3.412   6.935   6.646  2.0654  0.0566  0.1586
   94SAPS   H3S 9249   3.515   6.788   6.686  0.3530  0.0819 -1.7357
   94SAPS   C24 9250   3.328   6.798   6.788 -0.1326  0.2088  0.5806
   94SAPS   H4R 9251   3.231   6.850   6.772  1.5607  3.0941 -1.2222
   94SAPS   H4S 9252   3.369   6.862   6.869 -1.8282  2.4643 -0.2416
   94SAPS   C25 9253   3.317   6.646   6.824  0.5385 -0.0275  0.4890
   94SAPS   H5R 9254   3.249   6.593   6.756 -0.1670  0.5406  0.7390
   94SAPS   C26 9255   3.383   6.592   6.937 -0.0481  0.1839  0.3332
   94SAPS   H6R 9256   3.367   6.486   6.963  1.0675  0.7004  3.6206
   94SAPS   C27 9257   3.471   6.675   7.032 -0.1793  0.4969  1.1036
   94SAPS   H7R 9258   3.416   6.765   7.065  0.3598  1.7551 -1.2241
   94SAPS   H7S 9259   3.551   6.718   6.968 -1.9202 -0.3535 -1.8059
   94SAPS   C28 9260   3.518   6.590   7.150 -0.1208  0.0035 -0.5402
   94SAPS   H8R 9261   3.591   6.511   7.126  0.3473 -0.2834  1.5867
   94SAPS   C29 9262   3.472   6.595   7.277 -1.0140 -0.2030  0.3909
   94SAPS   H9R 9263   3.502   6.513   7.343 -1.7016 -0.1700  0.7423
   94SAPS  C210 9264   3.374   6.691   7.337  0.1189 -0.0067 -0.6465
   94SAPS  H10R 9265   3.353   6.766   7.258  0.1384 -1.3962 -2.0046
   94SAPS  H10S 9266   3.410   6.750   7.424  1.3718 -2.4991  0.6447
   94SAPS  C211 9267   3.238   6.642   7.381 -0.9339 -0.1728  0.2761
   94SAPS  H11R 9268   3.175   6.599   7.302 -0.3387 -0.8683  0.1628
   94SAPS  C212 9269   3.185   6.647   7.501 -0.5595 -0.4930  0.2548
   94SAPS  H12R 9270   3.088   6.594   7.505  1.0034 -3.6534 -0.3223
   94SAPS  C213 9271   3.243   6.701   7.623 -0.7056 -0.9358  0.2740
   94SAPS  H13R 9272   3.200   6.800   7.648  0.3281 -0.4367  0.1191
   94SAPS  H13S 9273   3.353   6.715   7.619 -0.6725 -1.4565 -2.3950
   94SAPS  C214 9274   3.227   6.609   7.740  0.2504  0.5096 -0.1016
   94SAPS  H14R 9275   3.269   6.511   7.715 -4.4990 -1.6167 -0.7468
   94SAPS  C215 9276   3.176   6.633   7.864  0.4087  0.2993 -0.2363
   94SAPS  H15R 9277   3.177   6.547   7.933  1.7340 -0.6229 -1.3691
   94SAPS  C216 9278   3.114   6.764   7.914  0.2407  0.1937  0.0777
   94SAPS  H16R 9279   3.027   6.813   7.866 -1.1293  1.3595  3.4333
   94SAPS  H16S 9280   3.196   6.839   7.919 -0.5512  1.1882 -1.3508
   94SAPS  C217 9281   3.072   6.747   8.064 -0.4130 -0.2128  0.1007
   94SAPS  H17R 9282   3.157   6.703   8.119  0.6705  0.3543 -1.0438
   94SAPS  H17S 9283   2.979   6.687   8.068 -1.0715  0.8277  0.7345
   94SAPS  C218 9284   3.029   6.886   8.130  0.4814  0.2753 -0.1621
   94SAPS  H18R 9285   2.944   6.931   8.073  1.1097 -1.3552 -2.5627
   94SAPS  H18S 9286   3.118   6.950   8.145  0.5341 -0.1874  1.6490
   94SAPS  C219 9287   2.985   6.850   8.272  0.6718 -0.0675  0.9813
   94SAPS  H19R 9288   3.059   6.812   8.345  0.1629  1.7633  2.5364
   94SAPS  H19S 9289   2.899   6.779   8.279  0.0694  0.7567  2.5688
   94SAPS  C220 9290   2.905   6.968   8.335 -0.0550  0.0064  0.3044
   94SAPS  H20R 9291   2.807   6.985   8.285 -0.2487 -0.1068  0.6426
   94SAPS  H20S 9292   2.963   7.061   8.317 -1.7658  0.7703 -1.7974
   94SAPS  H20T 9293   2.893   6.944   8.442 -2.4950 -0.0120  0.0687
   94SAPS   C33 9294   2.933   6.597   6.845  0.0400  0.1163  0.4932
   94SAPS   H3X 9295   2.894   6.677   6.911 -0.6923 -1.7087  2.4079
   94SAPS   H3Y 9296   3.042   6.594   6.825  0.0411 -4.1621  0.2338
   94SAPS   C34 9297   2.890   6.479   6.929  0.1664  0.0288  0.7086
   94SAPS   H4X 9298   2.920   6.387   6.874  0.8230  0.2373  0.7037
   94SAPS   H4Y 9299   2.780   6.485   6.940 -0.1430  0.3211 -1.7979
   94SAPS   C35 9300   2.964   6.472   7.056 -0.5046 -0.0459  0.0277
   94SAPS   H5X 9301   2.941   6.561   7.119 -0.4728  0.0896 -0.1523
   94SAPS   H5Y 9302   3.075   6.468   7.047 -0.4056 -0.7513  1.2779
   94SAPS   C36 9303   2.921   6.351   7.136 -0.5255  0.0830 -0.0067
   94SAPS   H6X 9304   2.992   6.268   7.113  1.8845  2.0751 -0.1102
   94SAPS   H6Y 9305   2.814   6.327   7.117 -0.1384  0.3925 -3.2108
   94SAPS   C37 9306   2.938   6.374   7.284  0.3247 -0.0525  0.4376
   94SAPS   H7X 9307   2.865   6.448   7.324  1.4260  0.5893  1.2937
   94SAPS   H7Y 9308   3.045   6.395   7.303  0.0435  2.2006 -0.1550
   94SAPS   C38 9309   2.918   6.243   7.365  0.2912 -0.3034  0.1939
   94SAPS   H8X 9310   2.984   6.161   7.331  0.5399 -0.5215  1.1882
   94SAPS   H8Y 9311   2.811   6.215   7.353  0.2529  0.5375 -2.0496
   94SAPS   C39 9312   2.930   6.252   7.527 -0.3947 -0.0037  1.0381
   94SAPS   H9X 9313   2.872   6.167   7.569 -1.9085 -0.4058 -1.6321
   94SAPS   H9Y 9314   2.881   6.350   7.544  2.1230  1.9000 -1.6389
   94SAPS  C310 9315   3.079   6.258   7.577  0.2746 -0.4242  0.6153
   94SAPS  H10X 9316   3.134   6.328   7.511 -0.5756 -0.3314 -0.0068
   94SAPS  H10Y 9317   3.117   6.158   7.549 -1.4260 -0.4819 -1.8149
   94SAPS  C311 9318   3.094   6.306   7.727 -0.1033  0.5151 -0.5495
   94SAPS  H11X 9319   3.041   6.404   7.722  0.7247  1.0045 -0.0896
   94SAPS  H11Y 9320   3.201   6.321   7.752  0.6025  0.9595 -3.4636
   94SAPS  C312 9321   3.025   6.216   7.830 -0.0617 -0.0147  0.5179
   94SAPS  H12X 9322   3.055   6.110   7.812 -0.9666 -0.1976  0.0328
   94SAPS  H12Y 9323   2.916   6.217   7.809  0.3112 -1.5786 -1.9924
   94SAPS  C313 9324   3.034   6.271   7.975  0.2540 -0.4366  0.2646
   94SAPS  H13X 9325   2.949   6.223   8.029 -0.5805 -2.7613 -2.8353
   94SAPS  H13Y 9326   3.015   6.380   7.969 -0.6748 -0.6182 -0.2906
   94SAPS  C314 9327   3.163   6.227   8.046  0.1778 -0.7317  0.0789
   94SAPS  H14X 9328   3.250   6.266   7.989 -1.2145  0.6319 -1.2108
   94SAPS  H14Y 9329   3.166   6.118   8.022  0.7528 -0.1835 -2.5944
   94SAPS  C315 9330   3.177   6.259   8.194 -0.5403  0.5526 -0.8620
   94SAPS  H15X 9331   3.272   6.314   8.214  0.0655  0.0565 -2.2482
   94SAPS  H15Y 9332   3.186   6.170   8.259  1.0891  0.5594 -1.0270
   94SAPS  C316 9333   3.067   6.354   8.249  0.4577  0.5114  0.6172
   94SAPS  H16X 9334   2.970   6.305   8.226  0.0885 -0.1680  3.3302
   94SAPS  H16Y 9335   3.081   6.448   8.192  1.6941 -1.1512 -2.0696
   94SAPS  C317 9336   3.085   6.395   8.401 -0.7157 -0.0852  0.7786
   94SAPS  H17X 9337   3.003   6.462   8.434 -0.8808 -0.6456  1.5494
   94SAPS  H17Y 9338   3.173   6.461   8.414  0.1281 -0.8219 -0.9429
   94SAPS  C318 9339   3.093   6.280   8.495  0.2939  0.6428 -0.1632
   94SAPS  H18X 9340   3.053   6.304   8.596 -1.4053 -0.1418 -0.6117
   94SAPS  H18Y 9341   3.193   6.232   8.508  0.3716  0.5895 -0.9089
   94SAPS  H18Z 9342   3.021   6.201   8.465 -0.2673  1.5138 -1.1611
   95SAPS     N 9343   0.381   4.301   6.552  0.3802  0.2867  0.3726
   95SAPS   HN1 9344   0.364   4.234   6.629 -0.4839  0.4950  0.3675
   95SAPS   HN2 9345   0.480   4.324   6.529  0.0710  0.8680 -0.4645
   95SAPS   HN3 9346   0.328   4.389   6.566  1.8580  1.6560 -1.9584
   95SAPS   C12 9347   0.313   4.233   6.436 -0.0560 -0.0614  0.1053
   95SAPS  H12A 9348   0.385   4.185   6.372 -2.1701  0.1520 -2.6391
   95SAPS   C13 9349   0.227   4.110   6.480  0.7665  0.5277 -0.3806
   95SAPS  O13A 9350   0.243   4.073   6.599 -0.5071 -0.5606 -0.8376
   95SAPS  O13B 9351   0.175   4.033   6.391  0.3394  0.1783 -0.3983
   95SAPS   C11 9352   0.227   4.335   6.354  0.0515  0.7885  0.3407
   95SAPS  H11A 9353   0.123   4.343   6.394 -0.5740 -0.5735 -0.8937
   95SAPS  H11B 9354   0.207   4.288   6.256 -0.2033 -0.0264  0.7707
   95SAPS     P 9355   0.227   4.583   6.396  0.2545 -0.3240 -0.3851
   95SAPS   O13 9356   0.292   4.706   6.358  0.2333  0.3013  0.2138
   95SAPS   O14 9357   0.083   4.575   6.369  0.2162 -0.0587 -0.0568
   95SAPS   O12 9358   0.291   4.458   6.321 -0.0719  0.4702 -0.2404
   95SAPS   O11 9359   0.261   4.547   6.544  0.9486  0.1542 -0.1878
   95SAPS    C1 9360   0.191   4.616   6.646 -0.5758  0.5209 -0.3482
   95SAPS    HA 9361   0.244   4.709   6.678  1.4348  0.1493 -2.3619
   95SAPS    HB 9362   0.093   4.651   6.607  0.0743  1.5283 -1.1348
   95SAPS    C2 9363   0.154   4.532   6.773  0.0467  0.7068  0.0325
   95SAPS    HS 9364   0.115   4.600   6.851  1.2202 -0.2892  1.5410
   95SAPS   O21 9365   0.276   4.468   6.830  0.6771  0.1675  0.2800
   95SAPS   C21 9366   0.358   4.552   6.883  0.3148 -0.4341 -0.3617
   95SAPS   O22 9367   0.348   4.671   6.880 -0.2606 -0.1786 -0.3066
   95SAPS   C22 9368   0.468   4.485   6.953  0.3319 -0.2837  0.3474
   95SAPS   H2R 9369   0.544   4.562   6.976  2.4037 -1.1702 -2.7860
   95SAPS   H2S 9370   0.421   4.433   7.039 -2.1434 -0.7870 -1.2021
   95SAPS    C3 9371   0.046   4.417   6.747 -0.4695 -0.4525 -0.0254
   95SAPS    HX 9372   0.091   4.325   6.704  4.0533  1.9681 -1.1047
   95SAPS    HY 9373  -0.018   4.470   6.675 -0.5136  1.2540  1.1992
   95SAPS   O31 9374  -0.011   4.396   6.877 -0.0887  0.2585 -0.1760
   95SAPS   C31 9375  -0.138   4.435   6.896  0.8526  0.1593 -0.7407
   95SAPS   O32 9376  -0.203   4.512   6.826 -0.2835 -0.2879 -0.5030
   95SAPS   C32 9377  -0.205   4.379   7.022 -0.2465 -0.6493  0.5723
   95SAPS   H2X 9378  -0.147   4.286   7.039  2.4423  1.1805  2.0402
   95SAPS   H2Y 9379  -0.312   4.352   7.007  0.1870 -1.7262 -0.7711
   95SAPS   C23 9380   0.543   4.395   6.859 -0.1399 -0.1553 -0.2552
   95SAPS   H3R 9381   0.551   4.433   6.755  0.8803 -0.0245 -0.1400
   95SAPS   H3S 9382   0.477   4.308   6.840 -0.8764  0.6650 -1.6974
   95SAPS   C24 9383   0.677   4.343   6.907 -0.4250  0.4387  0.3720
   95SAPS   H4R 9384   0.735   4.309   6.818 -1.6350 -0.0577 -0.2470
   95SAPS   H4S 9385   0.659   4.261   6.980  1.0303  0.9528  1.3612
   95SAPS   C25 9386   0.772   4.445   6.967 -0.0028 -0.1324 -0.3246
   95SAPS   H5R 9387   0.819   4.517   6.898  4.5700 -0.7709  1.7716
   95SAPS   C26 9388   0.824   4.450   7.095  0.3352 -0.7090  0.9732
   95SAPS   H6R 9389   0.879   4.540   7.124 -0.8798  0.7936 -1.1330
   95SAPS   C27 9390   0.790   4.351   7.210  0.4184 -0.2134 -0.5936
   95SAPS   H7R 9391   0.862   4.357   7.294  2.2576  1.3671 -2.1819
   95SAPS   H7S 9392   0.812   4.250   7.171  1.5577 -1.3626  2.7371
   95SAPS   C28 9393   0.642   4.361   7.243 -0.5441 -0.3827 -0.5648
   95SAPS   H8R 9394   0.584   4.412   7.165  0.8636  1.2678 -0.5920
   95SAPS   C29 9395   0.588   4.334   7.363 -0.6275  0.1004  0.3654
   95SAPS   H9R 9396   0.488   4.377   7.380 -0.6075 -0.0577  0.9260
   95SAPS  C210 9397   0.663   4.277   7.483  0.1318 -0.0652  0.1513
   95SAPS  H10R 9398   0.756   4.226   7.453 -0.4352 -0.8129 -0.3635
   95SAPS  H10S 9399   0.591   4.201   7.521 -0.1846 -0.4715 -1.2148
   95SAPS  C211 9400   0.693   4.388   7.592  0.2295  0.2682  0.3231
   95SAPS  H11R 9401   0.695   4.493   7.558  2.2771 -0.3215 -1.6264
   95SAPS  C212 9402   0.726   4.363   7.720 -0.0917 -0.9816  0.3694
   95SAPS  H12R 9403   0.758   4.450   7.781 -0.6131  1.5806 -2.7398
   95SAPS  C213 9404   0.741   4.234   7.790  0.0614 -0.1865 -1.1295
   95SAPS  H13R 9405   0.824   4.178   7.741 -0.2446 -1.2285 -0.4689
   95SAPS  H13S 9406   0.649   4.174   7.794  0.1000 -0.1807 -0.0255
   95SAPS  C214 9407   0.797   4.249   7.927  0.2118  0.1080  0.4612
   95SAPS  H14R 9408   0.907   4.249   7.923  0.3372  3.1319  1.1695
   95SAPS  C215 9409   0.743   4.291   8.042 -0.6134  0.4015 -0.2773
   95SAPS  H15R 9410   0.808   4.315   8.127  1.6334  0.0905 -1.8212
   95SAPS  C216 9411   0.591   4.318   8.070  0.4590 -0.3551 -0.1111
   95SAPS  H16R 9412   0.566   4.260   8.161  1.8358 -0.2367  0.3615
   95SAPS  H16S 9413   0.524   4.284   7.988 -0.1620  2.9069 -1.1118
   95SAPS  C217 9414   0.572   4.468   8.104  0.9768 -0.0983 -0.2474
   95SAPS  H17R 9415   0.464   4.486   8.125  0.5752 -2.3666 -0.1095
   95SAPS  H17S 9416   0.592   4.540   8.022  1.7780  1.5766  1.3161
   95SAPS  C218 9417   0.648   4.509   8.228 -0.1054 -0.0930  0.2435
   95SAPS  H18R 9418   0.746   4.556   8.205 -0.5519  0.3767 -0.7436
   95SAPS  H18S 9419   0.659   4.416   8.287  1.5775  0.5042  0.9192
   95SAPS  C219 9420   0.572   4.609   8.322  0.5515  0.1426 -0.2680
   95SAPS  H19R 9421   0.602   4.613   8.429  0.8948 -0.6175 -0.3246
   95SAPS  H19S 9422   0.467   4.574   8.314  0.6544 -0.5893  1.2174
   95SAPS  C220 9423   0.568   4.751   8.272  0.0513 -0.2599 -0.6691
   95SAPS  H20R 9424   0.516   4.810   8.351  0.6370 -1.8447  1.0025
   95SAPS  H20S 9425   0.520   4.756   8.173 -1.6692  1.1954  0.1914
   95SAPS  H20T 9426   0.669   4.797   8.266  0.2553 -0.3359  1.3622
   95SAPS   C33 9427  -0.196   4.467   7.147 -0.7574  1.0376  0.5425
   95SAPS   H3X 9428  -0.257   4.560   7.144 -1.7173  0.4130  0.2464
   95SAPS   H3Y 9429  -0.091   4.500   7.163 -0.2732 -0.5773  0.8892
   95SAPS   C34 9430  -0.241   4.388   7.275 -0.0801  0.4134 -0.8586
   95SAPS   H4X 9431  -0.189   4.291   7.262 -1.2614 -0.1455 -1.6354
   95SAPS   H4Y 9432  -0.348   4.358   7.271  0.0493  0.0717 -2.4110
   95SAPS   C35 9433  -0.198   4.460   7.401  0.2532  0.3052  0.1821
   95SAPS   H5X 9434  -0.236   4.565   7.398 -0.4809  0.0303 -1.0951
   95SAPS   H5Y 9435  -0.089   4.458   7.385  0.0814 -2.5480 -1.1422
   95SAPS   C36 9436  -0.226   4.389   7.539  0.3215 -0.5316  0.4058
   95SAPS   H6X 9437  -0.205   4.280   7.527 -3.2955 -1.6607  2.5231
   95SAPS   H6Y 9438  -0.330   4.418   7.565  1.3369  2.1599  1.7920
   95SAPS   C37 9439  -0.135   4.434   7.656  0.6020  0.2353  0.5208
   95SAPS   H7X 9440  -0.152   4.542   7.677  2.3407  0.4532  1.0211
   95SAPS   H7Y 9441  -0.032   4.412   7.621 -0.1399 -1.3201 -0.7811
   95SAPS   C38 9442  -0.174   4.372   7.794 -0.4920 -0.0642 -0.6377
   95SAPS   H8X 9443  -0.158   4.262   7.795  0.1178 -0.0376 -2.7781
   95SAPS   H8Y 9444  -0.284   4.374   7.810 -0.6371 -1.2362 -1.4024
   95SAPS   C39 9445  -0.100   4.430   7.917 -0.8458 -0.2960 -0.0364
   95SAPS   H9X 9446  -0.086   4.539   7.901  0.4088 -0.4179  0.1584
   95SAPS   H9Y 9447   0.002   4.387   7.924 -0.3056  0.7068 -1.3242
   95SAPS  C310 9448  -0.168   4.385   8.044 -0.1364  0.2592 -0.3372
   95SAPS  H10X 9449  -0.145   4.276   8.049  2.9897  0.7765 -1.3576
   95SAPS  H10Y 9450  -0.276   4.405   8.028  0.0560  2.2526  0.5806
   95SAPS  C311 9451  -0.131   4.468   8.167 -0.4415 -0.0305 -0.2652
   95SAPS  H11X 9452  -0.148   4.576   8.146 -1.3665 -0.4996 -2.0803
   95SAPS  H11Y 9453  -0.024   4.453   8.191 -0.2908  0.0068 -0.8943
   95SAPS  C312 9454  -0.210   4.438   8.292  0.6337 -0.1287 -0.1356
   95SAPS  H12X 9455  -0.192   4.333   8.321 -1.1045 -0.3588  0.2434
   95SAPS  H12Y 9456  -0.319   4.451   8.272  0.2457 -0.7038  1.4786
   95SAPS  C313 9457  -0.172   4.526   8.404  0.4247 -0.4077  0.1205
   95SAPS  H13X 9458  -0.258   4.531   8.474 -0.6333  1.6187 -1.2136
   95SAPS  H13Y 9459  -0.163   4.632   8.371 -0.3361  0.0802  1.4332
   95SAPS  C314 9460  -0.042   4.481   8.476 -0.8762 -0.8411 -0.0435
   95SAPS  H14X 9461   0.042   4.487   8.405 -2.1126  1.5672 -1.4385
   95SAPS  H14Y 9462  -0.058   4.374   8.504 -1.7355 -1.1758 -1.6789
   95SAPS  C315 9463  -0.008   4.569   8.597  0.6132 -0.1376 -0.0622
   95SAPS  H15X 9464   0.021   4.672   8.568  1.1435  0.6235  2.8357
   95SAPS  H15Y 9465   0.077   4.524   8.652 -0.2416 -3.3643 -1.1188
   95SAPS  C316 9466  -0.113   4.574   8.706 -0.3179 -0.4784 -0.4554
   95SAPS  H16X 9467  -0.137   4.472   8.743  0.2800  0.0907  1.6849
   95SAPS  H16Y 9468  -0.213   4.618   8.684 -1.7266 -2.1320  2.1704
   95SAPS  C317 9469  -0.040   4.634   8.832  0.3314  0.1982  0.6170
   95SAPS  H17X 9470   0.010   4.732   8.812 -0.1607  0.4422  0.5671
   95SAPS  H17Y 9471   0.039   4.565   8.868 -0.5414 -0.7272  0.7739
   95SAPS  C318 9472  -0.130   4.662   8.952  0.3726 -0.0761 -0.3133
   95SAPS  H18X 9473  -0.223   4.602   8.943 -1.0694  2.1620 -1.3458
   95SAPS  H18Y 9474  -0.156   4.770   8.949 -1.2863 -0.4203  0.1939
   95SAPS  H18Z 9475  -0.090   4.635   9.052 -0.8863  1.4649  0.6587
   96SAPS     N 9476   1.216   6.167   6.305  0.3807 -0.0515  0.7849
   96SAPS   HN1 9477   1.270   6.254   6.288 -0.3155  0.1005 -0.9001
   96SAPS   HN2 9478   1.136   6.202   6.361 -2.2932  0.7706 -3.1453
   96SAPS   HN3 9479   1.274   6.105   6.365  1.2689  1.1276  1.1758
   96SAPS   C12 9480   1.167   6.111   6.168 -0.4568 -0.2957 -0.0322
   96SAPS  H12A 9481   1.111   6.188   6.119 -0.1386 -0.4800 -0.6919
   96SAPS   C13 9482   1.280   6.061   6.074 -0.2365 -0.6078  0.6520
   96SAPS  O13A 9483   1.395   6.104   6.091 -0.3404  0.0381 -0.5884
   96SAPS  O13B 9484   1.253   6.006   5.965  0.3846 -0.2959 -0.5541
   96SAPS   C11 9485   1.085   5.979   6.190 -0.7199 -0.3963 -0.4502
   96SAPS  H11A 9486   1.150   5.909   6.245 -0.0657 -0.9332 -1.8542
   96SAPS  H11B 9487   1.054   5.935   6.093 -0.5032 -1.5512 -0.0085
   96SAPS     P 9488   0.887   5.894   6.330  0.4754  0.0762  0.3259
   96SAPS   O13 9489   0.744   5.936   6.334 -0.5149 -0.2031 -0.6878
   96SAPS   O14 9490   0.918   5.767   6.269  0.1372  1.0913 -0.4754
   96SAPS   O12 9491   0.967   6.012   6.262 -0.0131 -0.0930  0.1692
   96SAPS   O11 9492   0.954   5.905   6.472 -0.0940 -0.4101  0.2198
   96SAPS    C1 9493   0.950   6.022   6.554  0.7854  0.0536 -0.4314
   96SAPS    HA 9494   1.050   6.064   6.578  0.1608  1.5326 -0.3381
   96SAPS    HB 9495   0.916   6.111   6.497  2.6299  0.8773 -0.3303
   96SAPS    C2 9496   0.867   6.005   6.677  0.2362  0.1340  0.4862
   96SAPS    HS 9497   0.762   5.993   6.643  0.3915 -0.0851  0.0812
   96SAPS   O21 9498   0.888   6.118   6.763  0.3198 -0.1026 -0.0512
   96SAPS   C21 9499   0.784   6.184   6.805  0.3036  0.2912  0.0317
   96SAPS   O22 9500   0.670   6.147   6.792 -0.2770  0.0063 -0.2397
   96SAPS   C22 9501   0.821   6.298   6.894 -0.6791 -0.7018  0.2492
   96SAPS   H2R 9502   0.890   6.361   6.833  0.6979 -2.1727  0.2216
   96SAPS   H2S 9503   0.727   6.355   6.907  0.7426  1.8530  0.1836
   96SAPS    C3 9504   0.905   5.870   6.748 -0.2864 -0.3089 -0.5456
   96SAPS    HX 9505   1.010   5.866   6.782 -1.1187  0.9179  2.5030
   96SAPS    HY 9506   0.885   5.788   6.676 -2.8553  0.4413 -0.8144
   96SAPS   O31 9507   0.832   5.856   6.872 -0.2154 -0.1839 -0.0692
   96SAPS   C31 9508   0.703   5.818   6.863 -0.1852  0.3519  0.4709
   96SAPS   O32 9509   0.643   5.800   6.757  0.3057  0.2751 -0.9128
   96SAPS   C32 9510   0.642   5.792   7.001  0.1372  0.3410 -0.1282
   96SAPS   H2X 9511   0.719   5.812   7.079 -0.8430  0.1299  0.9042
   96SAPS   H2Y 9512   0.611   5.686   7.003  0.6955  0.1550 -0.7819
   96SAPS   C23 9513   0.888   6.267   7.030 -0.1759  0.8401 -0.2831
   96SAPS   H3R 9514   0.993   6.234   7.011 -0.2825  0.5117 -0.2952
   96SAPS   H3S 9515   0.837   6.188   7.088  0.2822  1.1813  0.6049
   96SAPS   C24 9516   0.894   6.385   7.130 -0.6036 -0.5556 -0.2381
   96SAPS   H4R 9517   0.923   6.341   7.228 -1.5587 -0.4863  0.0830
   96SAPS   H4S 9518   0.797   6.438   7.137  0.2194  1.0671 -0.5640
   96SAPS   C25 9519   0.992   6.487   7.086 -0.1151 -0.1139  0.0831
   96SAPS   H5R 9520   0.978   6.526   6.984 -2.4558 -1.3817 -0.1540
   96SAPS   C26 9521   1.094   6.542   7.153  0.7567  0.2152  0.3415
   96SAPS   H6R 9522   1.168   6.601   7.097  0.3389  0.2457 -0.1862
   96SAPS   C27 9523   1.127   6.502   7.295 -0.1136  0.3270  0.2886
   96SAPS   H7R 9524   1.041   6.482   7.362 -0.2456  0.6109  0.2078
   96SAPS   H7S 9525   1.169   6.587   7.354 -0.7590 -0.5631  2.1298
   96SAPS   C28 9526   1.226   6.384   7.304  0.1407  0.9071  0.3801
   96SAPS   H8R 9527   1.272   6.362   7.207 -2.0355  0.7911 -0.6890
   96SAPS   C29 9528   1.232   6.293   7.405  0.2442  0.3115 -0.8435
   96SAPS   H9R 9529   1.293   6.203   7.389 -1.0976 -0.8438  0.2197
   96SAPS  C210 9530   1.142   6.301   7.533  0.1785  0.0986 -0.5218
   96SAPS  H10R 9531   1.039   6.325   7.499 -0.7539 -2.4394  0.3512
   96SAPS  H10S 9532   1.177   6.384   7.599  0.8827  0.6497 -1.5526
   96SAPS  C211 9533   1.128   6.170   7.610 -0.5393 -0.0438  0.5206
   96SAPS  H11R 9534   1.154   6.083   7.548 -0.8294 -1.1105  1.8607
   96SAPS  C212 9535   1.110   6.167   7.739 -0.4318  0.3048 -0.5678
   96SAPS  H12R 9536   1.078   6.071   7.782  0.4952 -0.2759 -1.1340
   96SAPS  C213 9537   1.101   6.282   7.824  0.4594 -0.7333 -0.5311
   96SAPS  H13R 9538   1.042   6.358   7.770  1.1918  0.7714  0.7266
   96SAPS  H13S 9539   1.200   6.329   7.841  0.7853 -2.1826  2.1955
   96SAPS  C214 9540   1.035   6.265   7.957  0.3218  0.2851 -0.0582
   96SAPS  H14R 9541   0.947   6.199   7.953 -1.0053  1.9921 -0.5309
   96SAPS  C215 9542   1.070   6.332   8.073  0.6482  0.3123 -0.1741
   96SAPS  H15R 9543   1.005   6.314   8.160  1.1726 -1.6261 -0.1309
   96SAPS  C216 9544   1.178   6.429   8.089 -0.8594 -0.1117  0.3831
   96SAPS  H16R 9545   1.199   6.476   7.990  0.9964  2.2336  1.8041
   96SAPS  H16S 9546   1.284   6.405   8.108 -0.5587  0.5501 -0.3869
   96SAPS  C217 9547   1.152   6.552   8.178  0.2807  0.3232  0.3432
   96SAPS  H17R 9548   1.067   6.615   8.143  0.8664  0.2263 -1.3649
   96SAPS  H17S 9549   1.234   6.624   8.156 -0.5701  2.1999  2.8567
   96SAPS  C218 9550   1.154   6.526   8.327  0.1622 -0.0365  0.3216
   96SAPS  H18R 9551   1.257   6.522   8.367 -0.3634  1.0367  1.9273
   96SAPS  H18S 9552   1.112   6.424   8.336 -0.3998  0.0300 -1.3201
   96SAPS  C219 9553   1.069   6.614   8.424  0.8460  0.1416  0.3485
   96SAPS  H19R 9554   0.961   6.610   8.396  1.2620 -2.2356 -1.0811
   96SAPS  H19S 9555   1.100   6.720   8.409 -0.4398  0.2134 -2.2035
   96SAPS  C220 9556   1.066   6.571   8.571 -0.1302  0.3837  0.0499
   96SAPS  H20R 9557   0.991   6.635   8.621 -3.1103 -3.4332  0.9536
   96SAPS  H20S 9558   1.171   6.587   8.604  0.9687 -0.5803 -2.6815
   96SAPS  H20T 9559   1.028   6.469   8.595 -0.4479  0.4155 -0.3183
   96SAPS   C33 9560   0.520   5.878   7.027 -0.5034  0.5118 -0.2505
   96SAPS   H3X 9561   0.457   5.884   6.936  2.5051 -0.0733 -2.5488
   96SAPS   H3Y 9562   0.548   5.983   7.051 -0.0306  0.6327 -1.2991
   96SAPS   C34 9563   0.428   5.831   7.142  0.6545  0.0837 -0.1262
   96SAPS   H4X 9564   0.384   5.733   7.113 -0.0668 -0.2118  1.7999
   96SAPS   H4Y 9565   0.336   5.892   7.156  0.7174  0.1703 -0.0895
   96SAPS   C35 9566   0.499   5.802   7.276 -0.6863 -0.2549 -0.1240
   96SAPS   H5X 9567   0.539   5.893   7.325  1.1123 -0.6495 -0.8064
   96SAPS   H5Y 9568   0.589   5.742   7.250  1.5166  2.2996  1.0998
   96SAPS   C36 9569   0.413   5.730   7.382 -0.3132 -0.2422  0.2155
   96SAPS   H6X 9570   0.423   5.621   7.361 -1.1510 -0.4590  0.9027
   96SAPS   H6Y 9571   0.304   5.750   7.387 -0.3198 -0.1396 -0.2632
   96SAPS   C37 9572   0.471   5.749   7.521 -0.8171  0.0361  0.0105
   96SAPS   H7X 9573   0.451   5.853   7.552 -0.9953  0.1215 -0.3875
   96SAPS   H7Y 9574   0.582   5.750   7.524 -0.7725  2.4575 -1.0099
   96SAPS   C38 9575   0.415   5.641   7.617  0.2580 -0.2467  0.1796
   96SAPS   H8X 9576   0.459   5.541   7.596 -1.7576 -0.9691 -0.8702
   96SAPS   H8Y 9577   0.305   5.639   7.598  0.1929 -0.4761  0.5698
   96SAPS   C39 9578   0.429   5.683   7.763  0.1785 -0.6141 -0.0577
   96SAPS   H9X 9579   0.400   5.791   7.767  2.2224 -0.0399  0.8212
   96SAPS   H9Y 9580   0.537   5.682   7.788  0.4118 -1.8432 -0.9997
   96SAPS  C310 9581   0.362   5.584   7.863 -0.3654  0.1269 -0.4318
   96SAPS  H10X 9582   0.383   5.480   7.829 -1.6947 -0.2300 -0.1997
   96SAPS  H10Y 9583   0.251   5.586   7.864 -0.4174 -1.2655 -0.8561
   96SAPS  C311 9584   0.412   5.598   8.007  0.7260  0.3279 -0.2950
   96SAPS  H11X 9585   0.517   5.633   8.005  2.2320 -3.4951  2.1376
   96SAPS  H11Y 9586   0.407   5.504   8.065 -1.8528  1.1977  1.0671
   96SAPS  C312 9587   0.321   5.689   8.090 -0.2975 -0.0060  0.4209
   96SAPS  H12X 9588   0.218   5.647   8.097  0.6480 -2.2728  1.9003
   96SAPS  H12Y 9589   0.311   5.789   8.043  3.5296  1.2837  1.9498
   96SAPS  C313 9590   0.382   5.717   8.220 -0.1862 -0.0574 -0.0471
   96SAPS  H13X 9591   0.468   5.785   8.204 -0.2805 -0.0063 -0.3491
   96SAPS  H13Y 9592   0.428   5.625   8.262 -0.2598  0.2560  0.7422
   96SAPS  C314 9593   0.287   5.798   8.307  0.2887 -0.3367 -0.6053
   96SAPS  H14X 9594   0.215   5.728   8.355  0.7834  1.0282  2.3423
   96SAPS  H14Y 9595   0.226   5.872   8.250  1.9734  0.7299 -1.0893
   96SAPS  C315 9596   0.354   5.855   8.430  0.4938 -0.1762  0.0719
   96SAPS  H15X 9597   0.274   5.902   8.491 -1.1751 -2.8907  0.1358
   96SAPS  H15Y 9598   0.422   5.938   8.399  0.5992  0.7658  2.5843
   96SAPS  C316 9599   0.435   5.750   8.515 -0.0193 -0.4328 -0.2545
   96SAPS  H16X 9600   0.520   5.703   8.463  1.3716 -0.3008  1.7854
   96SAPS  H16Y 9601   0.362   5.667   8.532 -0.2880 -0.1376  0.0736
   96SAPS  C317 9602   0.471   5.790   8.651 -0.4608 -0.4749  0.0263
   96SAPS  H17X 9603   0.386   5.830   8.711 -0.0663  1.0872 -0.4030
   96SAPS  H17Y 9604   0.533   5.882   8.657 -0.2905 -0.5313 -0.7707
   96SAPS  C318 9605   0.534   5.679   8.743 -1.0364  0.9663 -0.5775
   96SAPS  H18X 9606   0.584   5.724   8.832  1.5122 -1.9149 -0.3598
   96SAPS  H18Y 9607   0.616   5.627   8.689 -0.2252  1.9335 -0.3099
   96SAPS  H18Z 9608   0.454   5.607   8.771 -0.2477  0.3139  0.0664
   97SAPS     N 9609   2.716   4.654   6.418 -0.2220 -0.3534 -0.8075
   97SAPS   HN1 9610   2.772   4.617   6.497  1.5662  1.1641 -1.2935
   97SAPS   HN2 9611   2.760   4.746   6.397 -1.1047  0.6001  1.1593
   97SAPS   HN3 9612   2.620   4.682   6.449 -0.5932 -1.2030 -1.1566
   97SAPS   C12 9613   2.714   4.575   6.297  0.5250  0.2921  0.2576
   97SAPS  H12A 9614   2.613   4.585   6.258  1.6547  0.5787 -2.9092
   97SAPS   C13 9615   2.802   4.631   6.176 -0.3681  0.2079  0.3927
   97SAPS  O13A 9616   2.868   4.735   6.194 -0.0693  0.1766  0.2176
   97SAPS  O13B 9617   2.800   4.558   6.071 -0.5545  0.3195  0.7497
   97SAPS   C11 9618   2.753   4.418   6.315 -0.4531  0.2817 -0.1476
   97SAPS  H11A 9619   2.861   4.417   6.343 -0.4647 -0.1273 -0.1101
   97SAPS  H11B 9620   2.732   4.363   6.221  1.3578 -0.9815  0.1259
   97SAPS     P 9621   2.541   4.289   6.407 -0.0436  0.0736 -0.1502
   97SAPS   O13 9622   2.444   4.399   6.394 -0.1336 -0.6718  0.5763
   97SAPS   O14 9623   2.545   4.175   6.308  0.0334 -0.7194 -0.5085
   97SAPS   O12 9624   2.682   4.358   6.426  0.1078 -0.1480  0.2014
   97SAPS   O11 9625   2.520   4.227   6.553 -0.1839  0.0292  0.2687
   97SAPS    C1 9626   2.521   4.297   6.677 -0.4091 -0.2595  0.0258
   97SAPS    HA 9627   2.505   4.404   6.654 -1.5201 -0.8157 -2.0564
   97SAPS    HB 9628   2.440   4.266   6.746 -1.2324  1.1977 -0.2389
   97SAPS    C2 9629   2.655   4.288   6.750  0.3744  0.4595 -0.6790
   97SAPS    HS 9630   2.738   4.308   6.680  1.4701  0.8233  0.6705
   97SAPS   O21 9631   2.674   4.160   6.827  0.2163 -1.2372  1.4120
   97SAPS   C21 9632   2.704   4.059   6.747 -0.4942 -0.3053  0.3032
   97SAPS   O22 9633   2.718   4.064   6.625  0.1759  0.1125  0.0584
   97SAPS   C22 9634   2.722   3.927   6.825  0.3568 -0.5101 -0.3698
   97SAPS   H2R 9635   2.827   3.931   6.863  0.4236 -1.5769 -0.4248
   97SAPS   H2S 9636   2.659   3.933   6.916  0.2476  0.6805 -0.5062
   97SAPS    C3 9637   2.664   4.408   6.843 -0.3645  0.0750 -0.0389
   97SAPS    HX 9638   2.674   4.501   6.782 -0.2835  0.4141  0.4820
   97SAPS    HY 9639   2.761   4.385   6.893 -0.2302  1.9027  0.6402
   97SAPS   O31 9640   2.563   4.418   6.949  0.1178  0.4080  0.0657
   97SAPS   C31 9641   2.551   4.538   6.994  0.3867 -0.2419 -0.2531
   97SAPS   O32 9642   2.634   4.625   6.980  0.0676 -0.2764 -0.3869
   97SAPS   C32 9643   2.436   4.557   7.096 -0.1163  0.4812  0.5730
   97SAPS   H2X 9644   2.355   4.615   7.046  2.3775  2.0991 -1.8913
   97SAPS   H2Y 9645   2.484   4.613   7.179  1.3403  1.1740 -0.6870
   97SAPS   C23 9646   2.704   3.795   6.751  0.8131 -0.3491  0.3549
   97SAPS   H3R 9647   2.776   3.795   6.667  0.2761  0.0186 -0.1197
   97SAPS   H3S 9648   2.601   3.793   6.709  0.1606 -1.3487  1.9186
   97SAPS   C24 9649   2.728   3.674   6.842 -0.3781 -0.4403  0.5875
   97SAPS   H4R 9650   2.707   3.588   6.774  1.3172 -1.8696  1.7712
   97SAPS   H4S 9651   2.640   3.681   6.910 -0.7951  1.4507 -0.0839
   97SAPS   C25 9652   2.853   3.664   6.923 -0.2367 -0.0392 -0.4452
   97SAPS   H5R 9653   2.938   3.646   6.856 -0.6247 -0.8617 -0.7368
   97SAPS   C26 9654   2.871   3.659   7.052  0.1170  0.5166  0.1204
   97SAPS   H6R 9655   2.974   3.660   7.090  0.1543 -0.1602  0.0494
   97SAPS   C27 9656   2.769   3.674   7.158 -0.5625 -0.6472 -0.2724
   97SAPS   H7R 9657   2.688   3.745   7.132  1.0198  0.8495 -1.3140
   97SAPS   H7S 9658   2.827   3.710   7.246 -0.2360 -1.8165  0.0059
   97SAPS   C28 9659   2.705   3.542   7.207  0.4796 -0.3748  0.1357
   97SAPS   H8R 9660   2.711   3.457   7.137  1.2321 -0.8149  0.7334
   97SAPS   C29 9661   2.660   3.522   7.334 -0.6067 -0.6011  1.1315
   97SAPS   H9R 9662   2.604   3.428   7.347 -0.4028 -0.9835 -0.5455
   97SAPS  C210 9663   2.652   3.616   7.454 -0.1490  0.4675 -0.4633
   97SAPS  H10R 9664   2.667   3.724   7.433 -0.8036  0.5786 -0.3728
   97SAPS  H10S 9665   2.746   3.576   7.499 -0.1143  1.2163  0.1592
   97SAPS  C211 9666   2.532   3.577   7.541 -0.6053 -0.5677 -0.3452
   97SAPS  H11R 9667   2.438   3.577   7.484 -1.5914 -0.5510  1.2199
   97SAPS  C212 9668   2.524   3.556   7.672  0.0841  0.2314  0.0875
   97SAPS  H12R 9669   2.428   3.531   7.719 -0.1717 -0.0179 -0.5597
   97SAPS  C213 9670   2.648   3.573   7.763  0.2193  0.1556  0.6481
   97SAPS  H13R 9671   2.740   3.562   7.701 -0.3313 -1.5567  0.0479
   97SAPS  H13S 9672   2.654   3.489   7.836  0.1590 -0.3442  0.0912
   97SAPS  C214 9673   2.654   3.693   7.841 -0.0160 -0.2309  0.0380
   97SAPS  H14R 9674   2.723   3.768   7.799 -3.5590  2.0211 -2.3210
   97SAPS  C215 9675   2.585   3.698   7.956  0.7199  0.9726 -0.3459
   97SAPS  H15R 9676   2.604   3.776   8.030  1.7299 -0.2208  0.6906
   97SAPS  C216 9677   2.482   3.599   8.016  0.1573 -0.2402  0.6938
   97SAPS  H16R 9678   2.496   3.501   7.966 -1.0154  0.4764 -1.1264
   97SAPS  H16S 9679   2.383   3.647   8.003  0.5801  0.2023 -1.0994
   97SAPS  C217 9680   2.516   3.567   8.164  0.5359  0.0324  0.6103
   97SAPS  H17R 9681   2.624   3.541   8.164  0.6197  0.1110 -1.7641
   97SAPS  H17S 9682   2.454   3.485   8.207  0.6114  0.2669  1.1738
   97SAPS  C218 9683   2.486   3.683   8.254 -0.1387  0.8205  0.5666
   97SAPS  H18R 9684   2.375   3.691   8.257 -0.0378  1.9632  2.1792
   97SAPS  H18S 9685   2.525   3.777   8.209  1.7158  0.6742  1.7592
   97SAPS  C219 9686   2.541   3.677   8.398  0.1018 -0.8546 -0.0929
   97SAPS  H19R 9687   2.651   3.659   8.400  0.2996  0.2906  0.4602
   97SAPS  H19S 9688   2.499   3.590   8.454  2.2012 -0.7489  1.7995
   97SAPS  C220 9689   2.523   3.812   8.470  0.3407 -0.0786  0.2631
   97SAPS  H20R 9690   2.559   3.806   8.575 -0.7745  1.4594  0.7656
   97SAPS  H20S 9691   2.413   3.820   8.473 -0.1283 -1.8943 -4.0363
   97SAPS  H20T 9692   2.559   3.902   8.416 -0.4071 -0.0836 -0.2549
   97SAPS   C33 9693   2.373   4.429   7.157  0.5658 -0.4884 -0.1424
   97SAPS   H3X 9694   2.438   4.367   7.222 -0.0452  0.5062  1.4951
   97SAPS   H3Y 9695   2.330   4.368   7.075  0.3860 -0.4400 -0.0838
   97SAPS   C34 9696   2.253   4.463   7.248 -0.2574  0.4547  0.6545
   97SAPS   H4X 9697   2.185   4.375   7.254  0.2891  0.0910  1.9795
   97SAPS   H4Y 9698   2.197   4.548   7.204 -1.2176 -0.8116 -0.6478
   97SAPS   C35 9699   2.292   4.488   7.394 -0.7002 -0.0832 -0.5725
   97SAPS   H5X 9700   2.209   4.542   7.443 -0.8946 -1.1396  0.2820
   97SAPS   H5Y 9701   2.379   4.555   7.374 -2.6607  2.0871 -2.3881
   97SAPS   C36 9702   2.333   4.372   7.487  0.2464 -0.1624  0.6434
   97SAPS   H6X 9703   2.420   4.322   7.438 -1.8257  0.2716 -3.9729
   97SAPS   H6Y 9704   2.242   4.308   7.485  0.6689 -0.7836  0.9784
   97SAPS   C37 9705   2.355   4.422   7.633 -0.6686 -0.0605  0.7759
   97SAPS   H7X 9706   2.252   4.451   7.664 -0.2232  5.1695 -1.5985
   97SAPS   H7Y 9707   2.409   4.519   7.627  0.9687 -0.9093  1.1904
   97SAPS   C38 9708   2.427   4.331   7.732  0.3189 -0.0546  0.1428
   97SAPS   H8X 9709   2.517   4.291   7.681  0.5763 -0.6758  1.0616
   97SAPS   H8Y 9710   2.366   4.243   7.760  4.3080 -3.0106  0.3088
   97SAPS   C39 9711   2.477   4.403   7.863 -0.2778  0.4135  0.6962
   97SAPS   H9X 9712   2.405   4.487   7.871 -2.3858 -0.9194 -2.3750
   97SAPS   H9Y 9713   2.577   4.441   7.833 -1.2673  0.3953 -3.1282
   97SAPS  C310 9714   2.473   4.317   7.984  0.5960 -0.5193  0.1648
   97SAPS  H10X 9715   2.552   4.239   7.994  1.3213  0.0283 -1.0563
   97SAPS  H10Y 9716   2.373   4.268   7.983 -0.8440  2.1892 -2.1844
   97SAPS  C311 9717   2.521   4.394   8.116  0.5377  0.1435 -0.5992
   97SAPS  H11X 9718   2.462   4.488   8.119 -1.6901 -1.1118 -2.1423
   97SAPS  H11Y 9719   2.627   4.426   8.105  0.0255  3.3999  2.2539
   97SAPS  C312 9720   2.505   4.312   8.241  0.1012  0.3434  0.4220
   97SAPS  H12X 9721   2.568   4.221   8.227 -0.6054 -0.1122  0.1058
   97SAPS  H12Y 9722   2.396   4.296   8.253  0.5798 -3.2211  1.1269
   97SAPS  C313 9723   2.554   4.393   8.368 -0.0679  0.9476  0.0015
   97SAPS  H13X 9724   2.495   4.487   8.357  0.3357  1.1354 -0.6329
   97SAPS  H13Y 9725   2.663   4.409   8.353 -0.0392 -0.8193 -2.1145
   97SAPS  C314 9726   2.521   4.311   8.496 -0.5669 -0.4845  0.0277
   97SAPS  H14X 9727   2.568   4.210   8.498 -0.1804 -0.3157 -0.2473
   97SAPS  H14Y 9728   2.410   4.301   8.501 -0.7105  0.5097 -0.7451
   97SAPS  C315 9729   2.556   4.373   8.634  0.1841 -0.4756 -0.4541
   97SAPS  H15X 9730   2.492   4.328   8.713  1.2240 -0.3016  0.5106
   97SAPS  H15Y 9731   2.528   4.480   8.641  1.7036 -0.0378 -0.8110
   97SAPS  C316 9732   2.702   4.355   8.667  0.3505  0.1454 -0.4486
   97SAPS  H16X 9733   2.760   4.396   8.582 -0.4294 -0.0916 -1.1185
   97SAPS  H16Y 9734   2.727   4.246   8.663  0.1250  0.0988 -0.6571
   97SAPS  C317 9735   2.732   4.417   8.806  0.1960  1.1580 -0.7294
   97SAPS  H17X 9736   2.669   4.367   8.883 -1.2837  1.1089 -1.9024
   97SAPS  H17Y 9737   2.693   4.520   8.793  0.1579  1.1323 -0.8217
   97SAPS  C318 9738   2.876   4.410   8.850 -0.0665 -0.4326  0.0719
   97SAPS  H18X 9739   2.952   4.450   8.781  0.3747 -1.7722 -0.2534
   97SAPS  H18Y 9740   2.910   4.306   8.868 -1.9144 -1.3645 -1.4229
   97SAPS  H18Z 9741   2.907   4.466   8.940  1.7075  1.5898 -1.6952
   98SAPS     N 9742   5.912   4.224   6.105 -0.1236 -0.1584  0.1446
   98SAPS   HN1 9743   5.950   4.316   6.135  0.0649  0.1298 -0.9653
   98SAPS   HN2 9744   5.853   4.194   6.186 -1.0028 -1.0360 -0.7983
   98SAPS   HN3 9745   5.991   4.157   6.094 -0.6639 -0.5474 -1.7097
   98SAPS   C12 9746   5.831   4.235   5.972 -0.5695  0.4278  0.6983
   98SAPS  H12A 9747   5.767   4.322   5.976 -1.1614  0.3743 -3.6152
   98SAPS   C13 9748   5.911   4.245   5.838 -0.4055 -0.0993  0.1433
   98SAPS  O13A 9749   6.033   4.279   5.852 -0.0904  0.4908 -0.1431
   98SAPS  O13B 9750   5.851   4.249   5.726  0.2660 -0.3284 -0.9755
   98SAPS   C11 9751   5.747   4.098   5.971  0.3525  0.5923 -0.9088
   98SAPS  H11A 9752   5.813   4.009   5.959 -2.7677 -1.7152 -2.4229
   98SAPS  H11B 9753   5.680   4.113   5.884  0.4446  0.5458 -0.9869
   98SAPS     P 9754   5.585   3.962   6.127 -0.7722 -0.0655  0.1080
   98SAPS   O13 9755   5.460   4.007   6.190 -0.0377  0.0836 -0.1163
   98SAPS   O14 9756   5.579   3.873   6.008  0.8044 -0.4707 -0.6345
   98SAPS   O12 9757   5.672   4.089   6.089 -0.0882 -0.3550 -0.6299
   98SAPS   O11 9758   5.687   3.909   6.236  0.2131 -0.0225 -0.1089
   98SAPS    C1 9759   5.638   3.882   6.369 -0.2206  0.4832  0.4551
   98SAPS    HA 9760   5.554   3.810   6.364  0.5089 -0.4889  1.6951
   98SAPS    HB 9761   5.710   3.815   6.420 -1.2866 -2.4265 -1.5666
   98SAPS    C2 9762   5.605   4.008   6.452 -0.3445 -0.6185 -0.6435
   98SAPS    HS 9763   5.562   4.089   6.389  2.1596  0.7479 -0.7577
   98SAPS   O21 9764   5.722   4.057   6.519 -0.0772 -0.0907  0.3673
   98SAPS   C21 9765   5.797   4.143   6.457 -0.0222  0.4708  0.0255
   98SAPS   O22 9766   5.771   4.188   6.346  0.0369 -0.2394  0.2240
   98SAPS   C22 9767   5.929   4.161   6.535  0.0344 -0.1960 -0.3364
   98SAPS   H2R 9768   6.001   4.226   6.482  0.1758 -0.7839 -0.8836
   98SAPS   H2S 9769   5.907   4.213   6.631  1.5492 -0.1704  0.0116
   98SAPS    C3 9770   5.503   3.977   6.564  0.5117  0.6313 -0.2499
   98SAPS    HX 9771   5.568   3.917   6.632 -0.5809  0.1093  0.3550
   98SAPS    HY 9772   5.425   3.914   6.517  0.6914 -0.3506  0.6985
   98SAPS   O31 9773   5.443   4.092   6.620  0.0868  0.0358  0.1066
   98SAPS   C31 9774   5.406   4.064   6.747  0.4749  0.7894 -0.5794
   98SAPS   O32 9775   5.389   3.945   6.782  0.7895 -0.3519  0.0656
   98SAPS   C32 9776   5.366   4.191   6.831  0.2518  0.2258  0.3274
   98SAPS   H2X 9777   5.261   4.211   6.802  0.3456 -2.0908 -1.8945
   98SAPS   H2Y 9778   5.433   4.275   6.803  0.2394  0.5337  1.1769
   98SAPS   C23 9779   6.009   4.029   6.581  0.1414  0.0823  0.5286
   98SAPS   H3R 9780   6.050   3.998   6.483  0.3184 -0.6857  0.8347
   98SAPS   H3S 9781   5.940   3.953   6.626  0.3105 -0.9389 -0.8661
   98SAPS   C24 9782   6.123   4.054   6.678 -1.1173  0.1473 -0.6342
   98SAPS   H4R 9783   6.082   4.099   6.772 -1.0456 -0.4741 -0.2977
   98SAPS   H4S 9784   6.192   4.126   6.629 -2.0684  1.1132 -0.5876
   98SAPS   C25 9785   6.193   3.925   6.719 -0.5021 -0.7857 -0.5936
   98SAPS   H5R 9786   6.214   3.871   6.625  0.1354  1.4671 -1.8318
   98SAPS   C26 9787   6.235   3.882   6.843  0.7937  0.3942 -0.2925
   98SAPS   H6R 9788   6.291   3.787   6.843  3.2425  1.7576 -1.0043
   98SAPS   C27 9789   6.210   3.940   6.979 -0.6835 -0.6902  0.3004
   98SAPS   H7R 9790   6.148   3.869   7.039 -0.0682 -0.5604  1.1125
   98SAPS   H7S 9791   6.145   4.027   6.955  1.1099  0.9509  1.1942
   98SAPS   C28 9792   6.324   3.994   7.060 -0.8520 -0.1431 -0.6230
   98SAPS   H8R 9793   6.417   4.016   7.004  0.3172 -0.5456  1.0928
   98SAPS   C29 9794   6.336   3.997   7.195 -0.3451 -0.0844 -0.3844
   98SAPS   H9R 9795   6.433   4.026   7.238 -0.9965 -0.1360  1.1586
   98SAPS  C210 9796   6.237   3.955   7.298  0.6901  0.2886 -0.3587
   98SAPS  H10R 9797   6.167   3.871   7.277  1.6353 -0.4130 -0.8338
   98SAPS  H10S 9798   6.173   4.041   7.325 -1.7954 -1.3082 -0.8958
   98SAPS  C211 9799   6.306   3.901   7.421 -0.1372 -0.5903 -0.2812
   98SAPS  H11R 9800   6.366   3.813   7.397  0.4080 -0.4727  0.6003
   98SAPS  C212 9801   6.307   3.932   7.552 -0.5237 -0.9840  0.1894
   98SAPS  H12R 9802   6.371   3.867   7.613 -0.8519 -0.8275  0.7128
   98SAPS  C213 9803   6.234   4.029   7.638 -0.2763 -0.8544  0.4910
   98SAPS  H13R 9804   6.146   3.980   7.685  0.1011 -0.8337  1.2332
   98SAPS  H13S 9805   6.184   4.101   7.569 -0.3870 -1.3355  0.0680
   98SAPS  C214 9806   6.331   4.111   7.720 -0.7983 -0.3177 -0.2308
   98SAPS  H14R 9807   6.393   4.178   7.657 -0.3726 -1.1480 -0.7210
   98SAPS  C215 9808   6.354   4.097   7.851  0.4049 -0.6192  0.6012
   98SAPS  H15R 9809   6.426   4.166   7.896  1.2760  1.0034 -2.9361
   98SAPS  C216 9810   6.282   4.005   7.945 -0.1564  0.1989 -0.5579
   98SAPS  H16R 9811   6.351   3.939   8.001 -1.1772 -1.0351 -0.7012
   98SAPS  H16S 9812   6.228   3.925   7.890  2.2535 -0.4571 -2.1235
   98SAPS  C217 9813   6.179   4.065   8.043  0.2783  0.3038  0.2506
   98SAPS  H17R 9814   6.145   3.979   8.105  1.7551 -1.2717 -1.0449
   98SAPS  H17S 9815   6.091   4.107   7.991 -0.6314  0.7945  2.0878
   98SAPS  C218 9816   6.226   4.168   8.140 -0.4255  0.2255 -0.2935
   98SAPS  H18R 9817   6.133   4.196   8.193 -0.7803 -2.1556  0.4748
   98SAPS  H18S 9818   6.261   4.260   8.088  1.2396 -1.4792 -2.3897
   98SAPS  C219 9819   6.314   4.121   8.257 -0.0894  0.0501 -0.3753
   98SAPS  H19R 9820   6.390   4.195   8.290 -0.6824  1.0369 -1.1666
   98SAPS  H19S 9821   6.365   4.034   8.211  0.3192  1.1809 -2.1596
   98SAPS  C220 9822   6.228   4.090   8.380 -0.2861  0.4691  0.1454
   98SAPS  H20R 9823   6.297   4.045   8.455 -0.0764 -1.2487 -1.0263
   98SAPS  H20S 9824   6.148   4.015   8.360 -0.4321  0.6196  0.1570
   98SAPS  H20T 9825   6.172   4.179   8.416 -0.3778  0.4581  0.0297
   98SAPS   C33 9826   5.379   4.178   6.983 -0.0847  0.3872  0.2159
   98SAPS   H3X 9827   5.463   4.108   6.999 -0.8714 -0.3725  1.1733
   98SAPS   H3Y 9828   5.285   4.143   7.031  0.3835  0.6038  1.3277
   98SAPS   C34 9829   5.432   4.318   7.029 -0.1548 -0.1673  0.2230
   98SAPS   H4X 9830   5.383   4.405   6.981 -0.3528  0.4627  1.5288
   98SAPS   H4Y 9831   5.537   4.326   6.994 -0.2718 -3.2166 -1.1020
   98SAPS   C35 9832   5.418   4.340   7.179 -0.2604  0.2147  0.1118
   98SAPS   H5X 9833   5.318   4.316   7.220  1.2337 -3.0192  2.2140
   98SAPS   H5Y 9834   5.459   4.440   7.206  1.3584 -0.1891 -0.7196
   98SAPS   C36 9835   5.525   4.254   7.255 -0.3389 -0.5403  0.5838
   98SAPS   H6X 9836   5.621   4.289   7.212  0.0551 -0.5013  1.4674
   98SAPS   H6Y 9837   5.507   4.148   7.229  2.4391 -0.9085 -0.1864
   98SAPS   C37 9838   5.516   4.263   7.405  0.5019 -0.1730  0.1972
   98SAPS   H7X 9839   5.545   4.365   7.438  2.8413 -0.9068  0.6326
   98SAPS   H7Y 9840   5.604   4.210   7.449  1.2935  1.5877  0.8436
   98SAPS   C38 9841   5.383   4.222   7.464 -1.1991  0.4993  0.2263
   98SAPS   H8X 9842   5.357   4.127   7.411 -1.4812  1.8346 -2.1685
   98SAPS   H8Y 9843   5.310   4.298   7.429 -2.3737 -0.2064  1.0657
   98SAPS   C39 9844   5.383   4.225   7.611 -0.5616 -0.3785 -0.1514
   98SAPS   H9X 9845   5.444   4.140   7.649  2.8714  1.3591 -1.3026
   98SAPS   H9Y 9846   5.281   4.194   7.641 -0.6106 -1.2126 -1.1174
   98SAPS  C310 9847   5.423   4.363   7.668 -0.7870 -0.1374  0.4350
   98SAPS  H10X 9848   5.379   4.445   7.607  0.1262  0.7887  0.9945
   98SAPS  H10Y 9849   5.532   4.370   7.650 -0.6685 -1.8995  0.2845
   98SAPS  C311 9850   5.403   4.371   7.814 -0.1154  0.4001  0.2557
   98SAPS  H11X 9851   5.465   4.302   7.876  1.5230  1.6033  0.0380
   98SAPS  H11Y 9852   5.297   4.347   7.833 -0.3186  1.4458  0.5001
   98SAPS  C312 9853   5.421   4.518   7.878  0.4284 -0.1323  0.0724
   98SAPS  H12X 9854   5.368   4.584   7.805 -1.0479 -1.8765 -0.5123
   98SAPS  H12Y 9855   5.528   4.549   7.868  0.4775  0.1027  1.2298
   98SAPS  C313 9856   5.372   4.535   8.018  0.2055  0.3785  0.0847
   98SAPS  H13X 9857   5.412   4.448   8.074  0.5223  0.7866  0.5073
   98SAPS  H13Y 9858   5.262   4.520   8.014 -0.1877  2.9832 -0.7655
   98SAPS  C314 9859   5.408   4.667   8.072 -0.2789 -0.3357  0.0001
   98SAPS  H14X 9860   5.354   4.746   8.015 -0.7004 -1.0471 -0.6102
   98SAPS  H14Y 9861   5.518   4.679   8.064 -0.0832 -0.3060  2.1279
   98SAPS  C315 9862   5.368   4.684   8.221 -0.1911  0.3531  0.7987
   98SAPS  H15X 9863   5.414   4.783   8.242  1.3838 -0.0298 -0.6135
   98SAPS  H15Y 9864   5.419   4.601   8.276  0.5922 -0.8417 -1.5757
   98SAPS  C316 9865   5.215   4.690   8.244  0.3782  0.4415  0.8009
   98SAPS  H16X 9866   5.173   4.588   8.253 -0.9417  0.8665 -0.3404
   98SAPS  H16Y 9867   5.166   4.737   8.157 -0.4506 -1.8344 -0.0442
   98SAPS  C317 9868   5.191   4.767   8.377  0.0676  0.5646  0.0327
   98SAPS  H17X 9869   5.210   4.872   8.347  1.0733  0.2178 -0.6068
   98SAPS  H17Y 9870   5.257   4.740   8.462  0.5926 -0.0778 -0.5653
   98SAPS  C318 9871   5.051   4.741   8.440  0.4956  0.2897  0.1803
   98SAPS  H18X 9872   4.968   4.786   8.381  0.0866  0.5042  0.9149
   98SAPS  H18Y 9873   5.047   4.781   8.543  1.0793 -0.3173  0.4431
   98SAPS  H18Z 9874   5.039   4.632   8.453  2.0156  0.1818  0.9190
   99SAPS     N 9875   6.282   2.586   5.971 -0.5545  0.7855 -0.2045
   99SAPS   HN1 9876   6.370   2.557   6.020  0.8984  0.9042 -2.5732
   99SAPS   HN2 9877   6.200   2.526   5.991 -1.0585  1.6259  0.2924
   99SAPS   HN3 9878   6.300   2.563   5.872 -2.9436  1.0852 -0.7651
   99SAPS   C12 9879   6.248   2.727   6.007 -0.1341 -0.6926  0.3687
   99SAPS  H12A 9880   6.316   2.791   5.954 -2.5469 -0.3767 -2.5856
   99SAPS   C13 9881   6.106   2.761   5.970  0.5843 -0.4087 -0.2782
   99SAPS  O13A 9882   6.034   2.670   5.918  0.3037 -0.8917 -0.0754
   99SAPS  O13B 9883   6.048   2.873   6.006 -0.0660 -0.1225  0.0416
   99SAPS   C11 9884   6.260   2.750   6.166  0.9035 -0.1199  0.1407
   99SAPS  H11A 9885   6.170   2.695   6.200 -0.5230  2.7701  1.3623
   99SAPS  H11B 9886   6.248   2.859   6.183  0.0086  0.1217 -1.7713
   99SAPS     P 9887   6.398   2.696   6.368  0.1326  0.1807  0.0549
   99SAPS   O13 9888   6.496   2.800   6.396  0.4219 -0.6956  0.4716
   99SAPS   O14 9889   6.265   2.706   6.430 -0.0936 -0.4097 -0.1944
   99SAPS   O12 9890   6.383   2.689   6.212  0.2882  0.6305 -0.2468
   99SAPS   O11 9891   6.471   2.563   6.410 -0.0902 -0.1253  0.0269
   99SAPS    C1 9892   6.433   2.436   6.361 -0.0685 -0.0813 -0.4578
   99SAPS    HA 9893   6.420   2.438   6.251 -0.3485  1.3388 -0.4192
   99SAPS    HB 9894   6.511   2.363   6.393  0.3749  0.9236  0.8587
   99SAPS    C2 9895   6.304   2.381   6.425  0.2413  0.3570  0.2891
   99SAPS    HS 9896   6.225   2.427   6.362 -0.7829 -1.6034  0.0689
   99SAPS   O21 9897   6.285   2.429   6.559  0.0416  0.1904  0.0059
   99SAPS   C21 9898   6.164   2.406   6.611 -0.2217  0.0655  0.4610
   99SAPS   O22 9899   6.066   2.372   6.551  0.1062 -0.2455 -0.4837
   99SAPS   C22 9900   6.169   2.433   6.760  0.2300 -0.3286 -0.2594
   99SAPS   H2R 9901   6.179   2.336   6.813  0.3607  0.7845  1.8418
   99SAPS   H2S 9902   6.252   2.502   6.788 -0.1198 -0.2109  0.5021
   99SAPS    C3 9903   6.297   2.226   6.413  0.0147 -0.7531 -0.3912
   99SAPS    HX 9904   6.306   2.203   6.305  0.8854 -2.5663  0.0296
   99SAPS    HY 9905   6.200   2.188   6.451  0.0770  0.6147  1.2383
   99SAPS   O31 9906   6.407   2.161   6.474 -0.5353 -0.0801 -0.5976
   99SAPS   C31 9907   6.392   2.129   6.603  0.1259 -0.0505 -0.1468
   99SAPS   O32 9908   6.288   2.147   6.666  0.0906  0.3329  0.3134
   99SAPS   C32 9909   6.520   2.069   6.660 -0.0799 -0.0483  0.6557
   99SAPS   H2X 9910   6.597   2.147   6.643 -0.0674 -0.5683 -2.0396
   99SAPS   H2Y 9911   6.546   1.981   6.598  1.1619  1.4882 -1.1105
   99SAPS   C23 9912   6.040   2.513   6.816 -0.5467  0.2687  0.2950
   99SAPS   H3R 9913   5.942   2.467   6.792 -0.5302 -0.1730  1.0464
   99SAPS   H3S 9914   6.034   2.615   6.772  1.6658  0.7918  1.0663
   99SAPS   C24 9915   6.031   2.528   6.970  0.5069 -0.4292 -0.6828
   99SAPS   H4R 9916   6.119   2.589   7.001  0.8298 -0.3194 -1.7650
   99SAPS   H4S 9917   6.046   2.424   7.006  1.2970  0.3189  1.2987
   99SAPS   C25 9918   5.907   2.589   7.021 -0.0697  0.5140  0.5559
   99SAPS   H5R 9919   5.843   2.630   6.941 -0.0602 -0.4031  0.0731
   99SAPS   C26 9920   5.856   2.583   7.146  0.4630  0.3700 -0.7024
   99SAPS   H6R 9921   5.759   2.628   7.169  0.7287  2.9263 -3.8214
   99SAPS   C27 9922   5.929   2.517   7.257 -0.6434  0.1473 -0.3238
   99SAPS   H7R 9923   5.978   2.603   7.308  0.0417  0.5275 -1.5789
   99SAPS   H7S 9924   6.012   2.453   7.220  0.8675  0.1567  2.7416
   99SAPS   C28 9925   5.842   2.427   7.341  0.1501 -0.2413 -0.0084
   99SAPS   H8R 9926   5.792   2.345   7.288 -0.0914 -0.6991  0.8946
   99SAPS   C29 9927   5.824   2.434   7.475 -0.7343  0.2123 -0.4796
   99SAPS   H9R 9928   5.761   2.360   7.527  1.4288 -2.6118 -1.6062
   99SAPS  C210 9929   5.891   2.531   7.564 -0.1699 -0.1562 -0.2466
   99SAPS  H10R 9930   5.929   2.618   7.506  0.4381  0.8265  1.5501
   99SAPS  H10S 9931   5.987   2.487   7.600 -0.6775 -0.4468  0.7840
   99SAPS  C211 9932   5.804   2.592   7.667 -0.9964  0.2906 -0.0124
   99SAPS  H11R 9933   5.708   2.634   7.634 -1.5728 -1.3615 -0.5410
   99SAPS  C212 9934   5.836   2.608   7.793  0.4412  0.3812  0.2038
   99SAPS  H12R 9935   5.757   2.656   7.854  0.2350  0.6335 -0.2569
   99SAPS  C213 9936   5.958   2.558   7.869  0.7172  0.1738  0.3566
   99SAPS  H13R 9937   6.043   2.628   7.855  1.8775 -1.1176  0.7140
   99SAPS  H13S 9938   6.009   2.472   7.821  3.7657  0.7737  2.2593
   99SAPS  C214 9939   5.962   2.553   8.017 -0.1744 -0.1885  0.1554
   99SAPS  H14R 9940   6.047   2.610   8.059  0.7342  0.9195 -2.9008
   99SAPS  C215 9941   5.867   2.514   8.106  0.1428  1.0760 -0.4538
   99SAPS  H15R 9942   5.886   2.523   8.214 -0.8416 -0.3893 -0.1270
   99SAPS  C216 9943   5.733   2.454   8.067 -0.3648  0.1561  0.0749
   99SAPS  H16R 9944   5.706   2.363   8.125 -0.8349 -0.9868 -1.8314
   99SAPS  H16S 9945   5.733   2.426   7.959  0.2717  1.0434 -0.1719
   99SAPS  C217 9946   5.611   2.554   8.087 -0.0763  0.6089  0.0031
   99SAPS  H17R 9947   5.640   2.654   8.050 -1.0748  1.0165  0.2817
   99SAPS  H17S 9948   5.576   2.562   8.192  0.4238 -0.0616  0.2308
   99SAPS  C218 9949   5.490   2.494   8.015 -0.0256  0.2355 -0.1587
   99SAPS  H18R 9950   5.452   2.403   8.066 -1.5003  0.4455 -0.8286
   99SAPS  H18S 9951   5.512   2.471   7.908  1.2760  0.2881  0.0916
   99SAPS  C219 9952   5.373   2.592   7.998  0.0072 -0.5384  0.2202
   99SAPS  H19R 9953   5.414   2.689   7.962 -2.3627  0.5632  0.2476
   99SAPS  H19S 9954   5.325   2.606   8.098  3.1077 -2.5464  2.1876
   99SAPS  C220 9955   5.272   2.547   7.893  0.1360 -0.1112 -0.4065
   99SAPS  H20R 9956   5.247   2.441   7.913 -1.0028 -0.6824 -4.0675
   99SAPS  H20S 9957   5.316   2.547   7.790 -0.4757 -0.3779 -0.6702
   99SAPS  H20T 9958   5.179   2.605   7.906 -0.9030 -2.1059  1.7492
   99SAPS   C33 9959   6.501   2.024   6.805 -0.1340 -0.2357 -0.6160
   99SAPS   H3X 9960   6.433   2.091   6.862 -0.5056  2.0304 -3.4962
   99SAPS   H3Y 9961   6.596   2.015   6.862 -1.3533 -0.1343  1.5171
   99SAPS   C34 9962   6.450   1.867   6.806 -0.2332  0.1645 -0.0538
   99SAPS   H4X 9963   6.527   1.797   6.768 -1.1936 -0.5674 -0.6906
   99SAPS   H4Y 9964   6.363   1.878   6.738 -1.1634  2.5029  1.3657
   99SAPS   C35 9965   6.418   1.817   6.947  0.0301  0.5511  0.5498
   99SAPS   H5X 9966   6.344   1.893   6.981  0.2187  1.3432 -0.7523
   99SAPS   H5Y 9967   6.502   1.821   7.019 -0.4731  0.5880  1.1472
   99SAPS   C36 9968   6.360   1.677   6.944 -0.5043  0.3205 -0.3561
   99SAPS   H6X 9969   6.443   1.607   6.920  0.4775  2.2748 -3.1110
   99SAPS   H6Y 9970   6.286   1.659   6.864 -1.0882 -2.3469  0.6860
   99SAPS   C37 9971   6.313   1.639   7.085  0.2487  0.2877 -0.1852
   99SAPS   H7X 9972   6.246   1.550   7.078  1.2903 -0.5193 -0.1058
   99SAPS   H7Y 9973   6.255   1.726   7.121  0.7409  0.5208  0.0465
   99SAPS   C38 9974   6.421   1.610   7.194  0.3109 -0.2844  0.0243
   99SAPS   H8X 9975   6.516   1.665   7.175 -0.7170  1.9817  1.0434
   99SAPS   H8Y 9976   6.448   1.503   7.185 -0.8035 -0.6341  0.6852
   99SAPS   C39 9977   6.368   1.639   7.336 -0.0153  0.0473 -0.3149
   99SAPS   H9X 9978   6.270   1.586   7.342  0.6482 -1.3688 -1.4785
   99SAPS   H9Y 9979   6.363   1.750   7.341  1.4473  0.0649  1.3886
   99SAPS  C310 9980   6.463   1.583   7.441  0.0972 -0.0113  0.4645
   99SAPS  H10X 9981   6.537   1.661   7.469  1.1414  0.3900 -2.9960
   99SAPS  H10Y 9982   6.527   1.502   7.400  1.8823  1.7726 -0.4528
   99SAPS  C311 9983   6.384   1.533   7.567 -0.4794  0.7019  0.8584
   99SAPS  H11X 9984   6.302   1.469   7.528  1.7126 -1.0559 -1.1615
   99SAPS  H11Y 9985   6.342   1.617   7.627  1.5276  1.7922  0.8192
   99SAPS  C312 9986   6.473   1.435   7.644 -0.3630  0.2441  0.3789
   99SAPS  H12X 9987   6.550   1.395   7.575  0.2076  0.1936  1.0265
   99SAPS  H12Y 9988   6.415   1.346   7.678  1.9740 -1.7005 -0.3763
   99SAPS  C313 9989   6.532   1.493   7.771  0.7391  0.1248  0.2595
   99SAPS  H13X 9990   6.436   1.527   7.815  0.8946 -0.7448  1.3163
   99SAPS  H13Y 9991   6.602   1.573   7.742  2.4800 -1.5765 -0.4400
   99SAPS  C314 9992   6.603   1.390   7.865  0.0877 -0.0394  0.6107
   99SAPS  H14X 9993   6.692   1.343   7.819  1.0000  1.6663  0.5697
   99SAPS  H14Y 9994   6.526   1.313   7.889 -1.0456  0.7976 -0.2114
   99SAPS  C315 9995   6.654   1.463   7.987 -0.5178  0.9496  1.0400
   99SAPS  H15X 9996   6.572   1.482   8.061 -1.5139  1.6964 -0.2204
   99SAPS  H15Y 9997   6.702   1.554   7.946  4.8759 -2.4283 -1.2731
   99SAPS  C316 9998   6.766   1.385   8.068  0.3424  0.1997  0.1617
   99SAPS  H16X 9999   6.842   1.351   7.994 -0.3653 -1.2021  0.0482
   99SAPS  H16Y10000   6.721   1.296   8.118  0.3381 -0.6493 -1.2983
   99SAPS  C31710001   6.825   1.475   8.176  0.8902 -0.6990 -0.0093
   99SAPS  H17X10002   6.747   1.540   8.221  0.0608 -0.8004 -1.2690
   99SAPS  H17Y10003   6.893   1.542   8.119 -3.1871 -0.6020 -5.5684
   99SAPS  C31810004   6.890   1.394   8.295 -0.0609 -0.0218  0.0491
   99SAPS  H18X10005   6.814   1.338   8.355 -1.8758  3.5836  1.4270
   99SAPS  H18Y10006   6.941   1.461   8.368  2.4484  1.3085 -2.7149
   99SAPS  H18Z10007   6.966   1.321   8.263 -0.1636 -1.2044  2.2713
  100SAPS     N10008   1.398   2.875   6.108  0.2078 -0.1912  0.3323
  100SAPS   HN110009   1.465   2.796   6.124  0.7485  0.2178  0.0986
  100SAPS   HN210010   1.330   2.902   6.181  1.0331  0.9409  0.7056
  100SAPS   HN310011   1.333   2.857   6.029 -0.2651  0.3399  0.5928
  100SAPS   C1210012   1.479   2.994   6.068 -0.0183 -0.6150  0.3254
  100SAPS  H12A10013   1.565   2.963   6.010 -0.5197  1.3661 -1.6183
  100SAPS   C1310014   1.402   3.094   5.977  0.0856 -0.0238  0.7016
  100SAPS  O13A10015   1.276   3.073   5.950 -0.2919 -0.0272  0.1773
  100SAPS  O13B10016   1.463   3.199   5.938 -0.4542  0.1549 -0.4869
  100SAPS   C1110017   1.521   3.082   6.197 -0.2099  0.5531 -0.0520
  100SAPS  H11A10018   1.431   3.126   6.244 -0.3446  0.5531 -0.3107
  100SAPS  H11B10019   1.586   3.165   6.162  0.1102  0.2211 -0.2599
  100SAPS     P10020   1.595   3.012   6.442  0.7235 -0.0380  0.2630
  100SAPS   O1310021   1.554   2.878   6.475 -0.3413 -0.2713  0.8084
  100SAPS   O1410022   1.717   3.065   6.491 -0.2968 -0.1209 -0.5032
  100SAPS   O1210023   1.595   2.999   6.284 -0.0316  0.2644  0.0555
  100SAPS   O1110024   1.472   3.111   6.468 -0.1615 -0.2768 -0.3535
  100SAPS    C110025   1.349   3.075   6.531 -0.4141  0.2149 -0.1413
  100SAPS    HA10026   1.267   3.114   6.467  0.3126  0.8454 -0.7000
  100SAPS    HB10027   1.331   2.968   6.556 -1.4194  0.3864 -0.0835
  100SAPS    C210028   1.333   3.145   6.670 -0.8771 -0.7547 -0.7366
  100SAPS    HS10029   1.361   3.250   6.650  2.0323 -1.2773  0.2200
  100SAPS   O2110030   1.422   3.089   6.766 -0.0141  0.1187  0.9108
  100SAPS   C2110031   1.496   3.171   6.829 -0.3261 -0.3802 -0.5186
  100SAPS   O2210032   1.482   3.293   6.835 -0.3586 -0.0040  0.2296
  100SAPS   C2210033   1.614   3.093   6.899 -0.2400  0.6302  0.5516
  100SAPS   H2R10034   1.657   3.027   6.821 -0.4770  1.5051 -0.3409
  100SAPS   H2S10035   1.687   3.175   6.917  1.4315 -1.1041  2.0834
  100SAPS    C310036   1.185   3.142   6.717 -0.7728  0.0615 -0.1237
  100SAPS    HX10037   1.132   3.045   6.721  1.1885 -1.0554 -0.2994
  100SAPS    HY10038   1.137   3.200   6.634 -1.2071  1.8502  1.3016
  100SAPS   O3110039   1.161   3.213   6.840  0.1401 -0.2360  0.2295
  100SAPS   C3110040   1.200   3.152   6.948  0.0380  0.9102  0.2311
  100SAPS   O3210041   1.233   3.034   6.956 -0.9520 -0.2100  0.4130
  100SAPS   C3210042   1.187   3.252   7.060 -0.4160 -0.4765 -0.5332
  100SAPS   H2X10043   1.085   3.235   7.102 -0.3705  1.9205  0.7402
  100SAPS   H2Y10044   1.170   3.356   7.024 -1.3010 -0.5305 -0.3018
  100SAPS   C2310045   1.584   2.995   7.019  0.1500  0.0357  0.5652
  100SAPS   H3R10046   1.527   2.906   6.984 -0.6790  0.2745  1.2615
  100SAPS   H3S10047   1.515   3.051   7.087  1.0337  1.7136  0.1270
  100SAPS   C2410048   1.710   2.957   7.093  0.4408 -0.0598 -0.6060
  100SAPS   H4R10049   1.673   2.921   7.191 -1.4517  0.0923 -1.2234
  100SAPS   H4S10050   1.765   3.050   7.121 -1.3612  0.3148  2.0637
  100SAPS   C2510051   1.799   2.858   7.028  0.2254  0.4466  0.2879
  100SAPS   H5R10052   1.822   2.867   6.921  0.5893 -2.9713 -0.0583
  100SAPS   C2610053   1.847   2.751   7.096  0.2446 -0.8540  0.9094
  100SAPS   H6R10054   1.909   2.678   7.043 -0.0331 -0.3505 -0.1380
  100SAPS   C2710055   1.822   2.717   7.239 -0.4170 -0.8242 -0.2192
  100SAPS   H7R10056   1.831   2.801   7.312 -0.0417 -0.2452 -0.9123
  100SAPS   H7S10057   1.894   2.643   7.278 -0.4870 -1.1529 -0.7068
  100SAPS   C2810058   1.683   2.653   7.266 -0.7728 -0.3177 -0.4508
  100SAPS   H8R10059   1.649   2.581   7.190 -1.4371 -0.6983  0.1940
  100SAPS   C2910060   1.597   2.681   7.366 -0.0925  0.4587  0.1586
  100SAPS   H9R10061   1.499   2.632   7.373  0.1631  0.1587  2.8642
  100SAPS  C21010062   1.613   2.791   7.470 -0.3017  0.1508  0.1592
  100SAPS  H10R10063   1.514   2.826   7.505 -0.8401 -0.1253 -1.0111
  100SAPS  H10S10064   1.662   2.884   7.432  0.5829  0.3050  1.6207
  100SAPS  C21110065   1.708   2.759   7.585  0.4786  0.5391  0.8372
  100SAPS  H11R10066   1.813   2.740   7.558 -0.1490 -4.7585  1.0529
  100SAPS  C21210067   1.670   2.705   7.702 -0.4358  0.2734 -0.0279
  100SAPS  H12R10068   1.746   2.695   7.780 -1.2876  2.9500  1.2621
  100SAPS  C21310069   1.531   2.670   7.752 -0.0935 -0.2460  0.5478
  100SAPS  H13R10070   1.456   2.739   7.707  0.7922 -0.1916 -0.9118
  100SAPS  H13S10071   1.529   2.689   7.862  1.2959 -1.4991  0.8154
  100SAPS  C21410072   1.475   2.535   7.719 -0.6709 -0.3616  0.6062
  100SAPS  H14R10073   1.557   2.466   7.695  0.5299  1.1660  0.1344
  100SAPS  C21510074   1.344   2.493   7.707 -0.2487 -0.2048  0.6818
  100SAPS  H15R10075   1.328   2.393   7.663  1.4839  0.4618 -1.6685
  100SAPS  C21610076   1.224   2.578   7.733 -0.1983 -0.4614  0.3490
  100SAPS  H16R10077   1.155   2.572   7.647 -0.6785 -0.9858  0.7656
  100SAPS  H16S10078   1.251   2.685   7.742  0.6318 -0.5000 -1.2530
  100SAPS  C21710079   1.149   2.531   7.856 -0.4068  0.6772  0.4935
  100SAPS  H17R10080   1.123   2.424   7.840 -0.6346  0.9016 -0.7143
  100SAPS  H17S10081   1.049   2.580   7.857 -1.7962 -1.8665 -1.3902
  100SAPS  C21810082   1.220   2.563   7.990  0.1656 -0.3725  0.1717
  100SAPS  H18R10083   1.230   2.674   7.997  1.5721 -0.5534  1.8297
  100SAPS  H18S10084   1.325   2.526   7.990  1.1868  2.1152 -2.3128
  100SAPS  C21910085   1.138   2.521   8.105  0.2293  0.3028  0.3217
  100SAPS  H19R10086   1.191   2.513   8.203  0.9875 -1.0428 -0.1729
  100SAPS  H19S10087   1.104   2.418   8.082  1.4039 -0.1925  0.7062
  100SAPS  C22010088   1.008   2.598   8.122 -0.0745 -0.3144 -0.2021
  100SAPS  H20R10089   1.023   2.704   8.154  1.0166 -0.4812 -0.1338
  100SAPS  H20S10090   0.960   2.551   8.211  2.3105 -0.8470  0.8870
  100SAPS  H20T10091   0.941   2.595   8.033  0.6403  1.2494 -0.8252
  100SAPS   C3310092   1.308   3.245   7.164 -0.2173  0.0173 -0.1543
  100SAPS   H3X10093   1.400   3.291   7.122 -1.0401  0.1002 -1.9348
  100SAPS   H3Y10094   1.327   3.136   7.176 -1.7692 -0.2304  0.2598
  100SAPS   C3410095   1.253   3.316   7.293 -0.5370  0.3101 -0.5946
  100SAPS   H4X10096   1.309   3.285   7.384 -2.1600 -1.2105 -0.0635
  100SAPS   H4Y10097   1.144   3.299   7.305  0.1037 -2.3778  2.9945
  100SAPS   C3510098   1.262   3.468   7.299 -0.7190  0.7307 -0.0725
  100SAPS   H5X10099   1.177   3.509   7.240 -1.5400 -2.4516 -1.3475
  100SAPS   H5Y10100   1.360   3.489   7.250 -0.1985 -2.3045 -0.5382
  100SAPS   C3610101   1.273   3.512   7.450  0.7279  0.1716  0.4767
  100SAPS   H6X10102   1.269   3.623   7.453  0.6312  0.2286 -1.0314
  100SAPS   H6Y10103   1.374   3.485   7.488  0.8123  1.1870  1.0094
  100SAPS   C3710104   1.166   3.456   7.537  0.0399  0.1954  0.2967
  100SAPS   H7X10105   1.154   3.346   7.525 -0.3740  0.1667  0.9312
  100SAPS   H7Y10106   1.072   3.490   7.488  0.9795 -0.4415 -2.0805
  100SAPS   C3810107   1.172   3.497   7.682  0.4364  0.3262 -0.1351
  100SAPS   H8X10108   1.178   3.608   7.682 -0.8858  0.4491 -1.8075
  100SAPS   H8Y10109   1.255   3.448   7.737  0.0049  0.0134  0.2545
  100SAPS   C3910110   1.052   3.446   7.761  0.4083 -0.8662 -0.8215
  100SAPS   H9X10111   1.023   3.341   7.736 -2.9413 -0.2668  0.1581
  100SAPS   H9Y10112   0.965   3.510   7.736  1.9026  0.8824 -1.7640
  100SAPS  C31010113   1.066   3.470   7.915  0.3189 -0.1500 -0.8074
  100SAPS  H10X10114   1.128   3.560   7.933 -3.6054  2.4102  1.6224
  100SAPS  H10Y10115   1.105   3.374   7.954  1.1329  0.1150 -0.9618
  100SAPS  C31110116   0.928   3.498   7.989  0.1324  1.0745  0.7464
  100SAPS  H11X10117   0.869   3.407   7.965  0.5522  0.5024  1.7991
  100SAPS  H11Y10118   0.875   3.586   7.947  1.9598  1.0953 -1.7568
  100SAPS  C31210119   0.947   3.511   8.135 -0.0444 -0.5468 -0.7341
  100SAPS  H12X10120   1.015   3.595   8.162 -1.1452 -0.4747  2.1058
  100SAPS  H12Y10121   1.002   3.425   8.179  1.0032  0.4328 -0.0774
  100SAPS  C31310122   0.811   3.513   8.201 -0.1009  0.4248 -0.7582
  100SAPS  H13X10123   0.763   3.414   8.183 -1.0989 -0.1470  3.7197
  100SAPS  H13Y10124   0.755   3.593   8.149  1.1774  1.3660 -0.7361
  100SAPS  C31410125   0.818   3.557   8.348  0.5471  0.3695 -0.2793
  100SAPS  H14X10126   0.828   3.668   8.357  0.2284  0.4599 -0.9959
  100SAPS  H14Y10127   0.908   3.513   8.395  2.9659  3.0030 -2.1110
  100SAPS  C31510128   0.693   3.519   8.437  0.0347  0.2860 -0.0831
  100SAPS  H15X10129   0.662   3.413   8.428 -2.3940  1.0252 -1.2244
  100SAPS  H15Y10130   0.606   3.569   8.390  1.4930  2.6543 -0.4820
  100SAPS  C31610131   0.700   3.564   8.585  0.0614  0.0322 -0.2244
  100SAPS  H16X10132   0.622   3.498   8.629  0.2958 -2.0188 -2.5902
  100SAPS  H16Y10133   0.676   3.672   8.593 -1.1003 -0.1918 -0.4818
  100SAPS  C31710134   0.832   3.545   8.649  0.2561 -0.0288  0.0664
  100SAPS  H17X10135   0.888   3.640   8.634  0.8931 -0.3849  0.1279
  100SAPS  H17Y10136   0.888   3.466   8.595  0.2299  0.3185 -0.4651
  100SAPS  C31810137   0.839   3.510   8.794 -0.6455 -0.8385 -0.8799
  100SAPS  H18X10138   0.807   3.406   8.817  0.4656 -0.6239  2.0605
  100SAPS  H18Y10139   0.783   3.590   8.847  0.3689  0.1993 -1.3342
  100SAPS  H18Z10140   0.944   3.512   8.829 -0.9676  1.5308  0.1279
  101OSM      N10141   6.076   3.575  10.947  0.2387  0.0431 -0.5019
  101OSM    C1510142   5.958   3.524  11.018  0.6599  0.4530 -0.4373
  101OSM   H15A10143   5.915   3.606  11.074  1.2113 -0.6356  1.7000
  101OSM   H15B10144   5.986   3.453  11.094  0.7459  1.2337  0.2791
  101OSM   H15C10145   5.886   3.484  10.948  0.6816  0.5717 -0.5281
  101OSM    C1410146   6.158   3.619  11.066  0.5089  0.2037 -0.2555
  101OSM   H14A10147   6.171   3.549  11.147  3.9399  1.5844  0.5519
  101OSM   H14B10148   6.125   3.715  11.102  0.6212 -0.1551  0.8325
  101OSM   H14C10149   6.262   3.618  11.036  1.3856 -0.9850  2.5337
  101OSM    C1310150   6.147   3.470  10.880  0.0648  0.6191  1.1562
  101OSM   H13A10151   6.118   3.449  10.778 -1.1990 -1.0283  1.8056
  101OSM   H13B10152   6.140   3.375  10.930  0.6989  0.6543  1.3223
  101OSM   H13C10153   6.250   3.504  10.882  0.3506  0.7145 -3.3936
  101OSM    C1210154   6.045   3.698  10.858 -0.0030  0.0121 -0.5496
  101OSM   H12A10155   6.143   3.729  10.826  0.6173 -0.5384  0.7514
  101OSM   H12B10156   6.011   3.781  10.918 -0.6896 -0.3819 -0.3760
  101OSM    C1110157   5.945   3.667  10.739 -0.6462  0.1373 -0.6154
  101OSM   H11A10158   5.972   3.575  10.682 -0.1908 -0.3385  0.3422
  101OSM   H11B10159   5.928   3.748  10.665 -1.1432  0.5650 -0.0446
  101OSM      P10160   5.693   3.714  10.819 -0.0288  0.0093  0.2679
  101OSM    O1310161   5.584   3.621  10.857 -0.6282  0.8089  0.7203
  101OSM    O1410162   5.725   3.823  10.913  0.2458 -0.5367 -0.0630
  101OSM    O1110163   5.669   3.770  10.671  0.1055 -0.3795  0.2071
  101OSM    O1210164   5.816   3.624  10.792  0.5307  0.0009 -0.2947
  101OSM    C1S10165   5.580   3.706  10.588 -0.0035  0.5297  0.1468
  101OSM    H1S10166   5.478   3.708  10.632 -0.5617  0.0900 -1.0794
  101OSM    H1T10167   5.612   3.603  10.560  1.2260  1.0614 -0.4874
  101OSM     NF10168   5.462   3.726  10.374  0.4970 -0.0969 -0.5630
  101OSM    HNF10169   5.487   3.664  10.300  3.4434 -1.1313  1.0887
  101OSM    C2S10170   5.565   3.790  10.459  0.5894 -0.1874 -0.0058
  101OSM    H2S10171   5.526   3.889  10.490  0.4427  0.0840 -0.9933
  101OSM    C3S10172   5.698   3.813  10.388 -0.2540 -0.2337 -0.2846
  101OSM    H3S10173   5.754   3.719  10.372  2.0003  1.3119 -2.2305
  101OSM     O310174   5.794   3.875  10.476  0.5105 -0.4130  0.3428
  101OSM    HO310175   5.764   3.839  10.559 -2.8915 -2.3750 -1.5459
  101OSM    C4S10176   5.672   3.876  10.252 -0.5519 -0.2793 -0.5124
  101OSM    H4S10177   5.668   3.802  10.171  0.3943  1.0415 -1.8288
  101OSM    C5S10178   5.659   4.010  10.232 -0.6335 -0.6077 -0.1334
  101OSM    H5S10179   5.676   4.084  10.311  0.4346  0.4016 -1.2684
  101OSM    C6S10180   5.636   4.078  10.108 -0.0517  1.0061  0.2772
  101OSM    H6S10181   5.661   4.017  10.018 -1.8593  3.2306 -1.8738
  101OSM    H6T10182   5.707   4.162  10.096  1.4408 -0.3663 -0.9907
  101OSM    C7S10183   5.494   4.126  10.074  0.4905  0.1890 -0.5168
  101OSM    H7S10184   5.475   4.213  10.141 -1.5252 -1.1294  0.7046
  101OSM    H7T10185   5.421   4.045  10.096  1.0835 -0.2579 -0.1457
  101OSM    C8S10186   5.469   4.182   9.929 -0.3719 -0.0555 -0.0935
  101OSM    H8S10187   5.545   4.257   9.899 -1.3682  1.4280  0.9410
  101OSM    H8T10188   5.368   4.226   9.916 -0.1680  0.1344 -1.1037
  101OSM    C9S10189   5.458   4.065   9.838  0.1838  0.2075  0.7039
  101OSM    H9S10190   5.369   4.001   9.856  1.0398 -2.3512 -3.0673
  101OSM    H9T10191   5.555   4.011   9.847  0.7161  1.1476  0.8068
  101OSM   C10S10192   5.447   4.125   9.692  0.0942  0.3486  0.2952
  101OSM   H10S10193   5.544   4.174   9.670  0.8641  0.3574  3.2921
  101OSM   H10T10194   5.366   4.202   9.688  0.8598  1.2068  0.9011
  101OSM   C11S10195   5.433   4.027   9.581 -0.0109 -0.6928  1.0827
  101OSM   H11S10196   5.332   3.981   9.581  0.1315 -1.1109  3.4814
  101OSM   H11T10197   5.516   3.954   9.585  0.6559  0.0696  1.6095
  101OSM   C12S10198   5.460   4.109   9.448 -0.8264  0.4917 -0.1914
  101OSM   H12S10199   5.557   4.164   9.449 -1.1097  1.1350 -2.5936
  101OSM   H12T10200   5.388   4.192   9.461 -0.3654  1.1881 -1.8429
  101OSM   C13S10201   5.460   4.023   9.321 -0.8336 -0.4397 -0.4951
  101OSM   H13S10202   5.531   3.940   9.342 -0.1626  0.4854  1.0379
  101OSM   H13T10203   5.495   4.090   9.239 -0.4481  0.5147  0.4289
  101OSM   C14S10204   5.318   3.973   9.289  0.1580 -0.4317 -0.5889
  101OSM   H14S10205   5.262   4.068   9.276  0.9188  0.0338 -0.5332
  101OSM   H14T10206   5.274   3.920   9.377 -0.2249  1.0936  0.1750
  101OSM   C15S10207   5.316   3.870   9.169  0.2996  0.5232  0.3150
  101OSM   H15S10208   5.212   3.832   9.159  0.3521  0.4496  0.0440
  101OSM   H15T10209   5.379   3.785   9.200 -0.5221 -0.4841 -0.6881
  101OSM   C16S10210   5.361   3.922   9.035  0.0226 -0.2197  0.5976
  101OSM   H16S10211   5.392   3.839   8.968 -2.2905 -0.5251 -0.2029
  101OSM   H16T10212   5.456   3.975   9.055  0.9193 -0.8530 -1.6354
  101OSM   C17S10213   5.249   4.011   8.970 -0.5929  0.5615  0.3978
  101OSM   H17S10214   5.231   4.098   9.036  1.2524  2.7810 -1.8541
  101OSM   H17T10215   5.152   3.960   8.954  0.0083 -0.5123  0.0548
  101OSM   C18S10216   5.294   4.062   8.835  0.2239 -0.0335  0.3598
  101OSM   H18S10217   5.204   4.093   8.778  1.9121  0.0801 -2.4535
  101OSM   H18T10218   5.348   3.983   8.778 -1.8841 -2.2103  1.2301
  101OSM   H18U10219   5.359   4.151   8.832 -1.5304  1.2932 -1.6478
  101OSM    C1F10220   5.332   3.736  10.409  0.6905  0.4129  0.9027
  101OSM     OF10221   5.296   3.784  10.514 -0.2723  0.1802  0.9076
  101OSM    C2F10222   5.230   3.666  10.315  0.2759  0.0456 -0.7315
  101OSM    H2F10223   5.203   3.570  10.364  1.6124  0.0741  0.1087
  101OSM    H2G10224   5.279   3.649  10.217  1.9479  1.6913 -0.2481
  101OSM    C3F10225   5.113   3.760  10.281  0.2827 -0.1186 -0.3369
  101OSM    H3F10226   5.149   3.837  10.209 -1.3398  0.0205 -1.0492
  101OSM    H3G10227   5.069   3.807  10.372  2.5299  0.8745  0.2932
  101OSM    C4F10228   4.998   3.691  10.203 -0.1154 -0.4571 -0.0274
  101OSM    H4F10229   4.902   3.747  10.205 -0.1217 -0.4472 -0.5499
  101OSM    H4G10230   4.965   3.598  10.254  1.3064 -0.7836  0.3558
  101OSM    C5F10231   5.046   3.646  10.064  0.6102  0.1696 -0.0933
  101OSM    H5F10232   5.093   3.546  10.063 -1.5158 -0.8661 -0.3191
  101OSM    H5G10233   5.107   3.727  10.017 -0.6286 -0.4488 -2.9405
  101OSM    C6F10234   4.924   3.626   9.978  0.5798 -0.2906 -0.9333
  101OSM    H6F10235   4.859   3.715   9.963 -0.1768 -0.4727  0.9475
  101OSM    H6G10236   4.871   3.545  10.032  1.4171 -1.9556 -2.5169
  101OSM    C7F10237   4.963   3.571   9.842  0.5829 -0.4707 -0.4536
  101OSM    H7F10238   5.032   3.487   9.862  0.7112 -0.2311  0.1542
  101OSM    H7G10239   5.019   3.656   9.796  2.4664 -1.5743 -0.3021
  101OSM    C8F10240   4.850   3.539   9.743  0.3665  0.5245  0.0836
  101OSM    H8F10241   4.898   3.550   9.643  1.5699 -0.5545  0.5069
  101OSM    H8G10242   4.760   3.603   9.749  0.7535  0.9738  1.5542
  101OSM    C9F10243   4.807   3.403   9.774  0.0335  0.7845 -0.5727
  101OSM    H9F10244   4.756   3.379   9.869 -0.1981 -0.1488 -0.9124
  101OSM   C10F10245   4.825   3.303   9.692 -0.8372  0.8895 -0.4755
  101OSM   H10F10246   4.780   3.204   9.705  1.4540  0.0974  2.5058
  101OSM   C11F10247   4.894   3.310   9.556  0.5585 -0.9967 -1.2143
  101OSM   H11F10248   4.981   3.241   9.559 -0.4392 -2.2780  0.4070
  101OSM   H11G10249   4.937   3.406   9.521  1.9541 -1.3259 -0.4716
  101OSM   C12F10250   4.803   3.245   9.451  0.3629 -0.4206  0.8121
  101OSM   H12F10251   4.721   3.314   9.423  2.5239  2.9264  2.1311
  101OSM   H12G10252   4.754   3.155   9.494  0.7645 -0.7441  0.6064
  101OSM   C13F10253   4.884   3.204   9.330 -0.2588 -0.1085 -0.0209
  101OSM   H13F10254   4.985   3.180   9.370 -0.2520  1.7966  1.2082
  101OSM   H13G10255   4.903   3.296   9.270 -0.0421  1.5331  2.4346
  101OSM   C14F10256   4.813   3.094   9.258 -0.1816  0.1420  0.6105
  101OSM   H14F10257   4.791   3.005   9.322  1.2729 -1.2385 -0.7187
  101OSM   H14G10258   4.884   3.060   9.180 -1.6519 -3.0714  0.5000
  101OSM   C15F10259   4.689   3.145   9.185 -0.1728  0.5609  0.2040
  101OSM   H15F10260   4.718   3.242   9.138 -0.1907  0.8574  0.7946
  101OSM   H15G10261   4.608   3.178   9.253 -0.0043 -0.9681  1.1947
  101OSM   C16F10262   4.635   3.058   9.069  0.1801  0.0560 -0.4271
  101OSM   H16F10263   4.567   2.982   9.112 -0.5285 -0.4124 -2.2916
  101OSM   H16G10264   4.723   3.013   9.017  1.3138  1.2463  0.3877
  101OSM   C17F10265   4.547   3.132   8.968  0.3412 -0.7635  0.2735
  101OSM   H17F10266   4.618   3.208   8.928  2.7441 -2.1228  1.7101
  101OSM   H17G10267   4.470   3.190   9.023  1.0977  1.0623 -0.5068
  101OSM   C18F10268   4.506   3.041   8.853  0.5027  0.2048 -0.6938
  101OSM   H18F10269   4.597   3.007   8.797  0.6270  0.1231 -0.4454
  101OSM   H18G10270   4.433   3.088   8.785 -0.5194 -1.1562 -0.5714
  101OSM   H18H10271   4.455   2.948   8.885  0.3586  0.7979  0.8557
  102OSM      N10272   5.841   2.859  11.264  0.5456 -0.5931 -0.9377
  102OSM    C1510273   5.740   2.934  11.191 -0.0738  0.3436  0.5402
  102OSM   H15A10274   5.644   2.921  11.237  0.0196 -1.0165  0.3910
  102OSM   H15B10275   5.734   2.904  11.087 -0.3832  1.1764  0.3066
  102OSM   H15C10276   5.756   3.041  11.192 -1.8236  0.6810 -0.9038
  102OSM    C1410277   5.812   2.872  11.410 -0.6339  0.5271  0.4235
  102OSM   H14A10278   5.728   2.813  11.444  0.4302 -1.3996 -0.1526
  102OSM   H14B10279   5.780   2.974  11.428 -2.8596 -0.1835  0.9009
  102OSM   H14C10280   5.897   2.845  11.470  0.2264  2.2294  0.0323
  102OSM    C1310281   5.831   2.712  11.236  0.6425  0.1721 -0.7609
  102OSM   H13A10282   5.733   2.670  11.253 -0.7465  2.6417 -2.0585
  102OSM   H13B10283   5.897   2.657  11.301 -1.6752 -0.6750  1.0193
  102OSM   H13C10284   5.855   2.680  11.136 -1.2507 -2.4927 -0.4714
  102OSM    C1210285   5.975   2.914  11.236  0.3288  0.6421  0.3325
  102OSM   H12A10286   6.048   2.873  11.304  0.0098 -3.3067 -1.4251
  102OSM   H12B10287   5.980   3.021  11.251 -1.2287  0.7458  0.2885
  102OSM    C1110288   6.025   2.893  11.085 -0.5142  0.1133 -0.7393
  102OSM   H11A10289   6.036   2.785  11.063 -2.0501 -0.4285  0.8961
  102OSM   H11B10290   6.128   2.932  11.080 -0.1891 -0.6087  0.1603
  102OSM      P10291   5.958   3.108  10.955  0.3240  0.0195  0.2545
  102OSM    O1310292   5.826   3.162  10.918 -0.3615 -0.0165  0.0750
  102OSM    O1410293   6.034   3.170  11.058 -0.2513  0.2003 -0.2590
  102OSM    O1110294   6.040   3.100  10.821 -0.8058 -0.1629  0.2894
  102OSM    O1210295   5.941   2.954  10.984  0.3262  0.0674 -0.2810
  102OSM    C1S10296   6.000   3.025  10.704  0.1218 -0.1822 -0.0262
  102OSM    H1S10297   5.907   2.968  10.725  0.4815 -0.5424  0.6036
  102OSM    H1T10298   6.082   2.953  10.683 -0.5502 -0.6466 -1.1478
  102OSM     NF10299   5.907   3.004  10.478  0.9543  0.6868 -0.7074
  102OSM    HNF10300   5.978   2.968  10.419  1.8065  0.7210  0.2729
  102OSM    C2S10301   5.957   3.100  10.572  0.0556 -0.3960  0.4217
  102OSM    H2S10302   5.870   3.167  10.586 -0.1440 -0.2935 -1.1386
  102OSM    C3S10303   6.081   3.188  10.524 -0.2060  0.0158 -0.2603
  102OSM    H3S10304   6.159   3.118  10.486 -0.6914 -0.2458 -0.7823
  102OSM     O310305   6.141   3.256  10.628 -0.3222  0.4847  0.2876
  102OSM    HO310306   6.094   3.219  10.703  1.1989 -0.0821  1.0055
  102OSM    C4S10307   6.035   3.278  10.410 -0.1827 -0.2267  0.1480
  102OSM    H4S10308   6.082   3.253  10.314 -1.9976 -0.3148 -0.7711
  102OSM    C5S10309   5.973   3.405  10.432 -0.0037  0.0567  0.6249
  102OSM    H5S10310   5.967   3.442  10.536 -1.2975  0.1167  0.5422
  102OSM    C6S10311   5.925   3.498  10.320 -0.4816 -0.1966 -0.6026
  102OSM    H6S10312   5.974   3.596  10.339 -0.9590 -0.3205  1.5152
  102OSM    H6T10313   5.816   3.513  10.337 -0.2883  1.6666 -0.7818
  102OSM    C7S10314   5.945   3.462  10.177 -0.0825  0.7010  0.2485
  102OSM    H7S10315   6.044   3.410  10.174 -0.6400 -0.3650 -2.2743
  102OSM    H7T10316   5.939   3.557  10.120 -0.1609  0.8339  0.4763
  102OSM    C8S10317   5.859   3.351  10.120  0.8866 -0.0458 -0.5124
  102OSM    H8S10318   5.762   3.392  10.084  0.5653 -1.2277 -1.0407
  102OSM    H8T10319   5.830   3.296  10.213 -1.4904  0.4978 -0.8528
  102OSM    C9S10320   5.907   3.257  10.016 -0.1681  1.0776  0.3019
  102OSM    H9S10321   5.845   3.165  10.026  2.8906 -1.0950  0.7832
  102OSM    H9T10322   6.010   3.227  10.043 -1.1995 -0.1400  3.4052
  102OSM   C10S10323   5.877   3.308   9.873 -0.3979 -0.1078 -0.4340
  102OSM   H10S10324   5.923   3.408   9.858 -2.9771  1.3378  0.5146
  102OSM   H10T10325   5.767   3.319   9.863 -0.4993 -1.1698 -0.5566
  102OSM   C11S10326   5.914   3.206   9.763  0.1056 -0.0614  0.1091
  102OSM   H11S10327   5.889   3.100   9.787  0.2426 -0.2678 -0.6285
  102OSM   H11T10328   6.023   3.205   9.746 -0.1306 -0.7936 -1.5318
  102OSM   C12S10329   5.849   3.248   9.624 -0.0334 -0.0018  0.4577
  102OSM   H12S10330   5.895   3.344   9.594  0.3446 -0.8972 -2.0936
  102OSM   H12T10331   5.741   3.273   9.624  0.1919  0.9825  0.2086
  102OSM   C13S10332   5.872   3.141   9.514  0.0819 -0.1606 -0.5142
  102OSM   H13S10333   5.820   3.044   9.529 -0.9600  0.3331 -0.7748
  102OSM   H13T10334   5.981   3.125   9.504  0.1029  0.1198 -0.7473
  102OSM   C14S10335   5.850   3.207   9.381  0.0414  0.1654  0.5190
  102OSM   H14S10336   5.933   3.279   9.369  1.0031 -0.8882  0.7014
  102OSM   H14T10337   5.751   3.259   9.378  0.0574  0.2169  0.8017
  102OSM   C15S10338   5.865   3.105   9.268  0.9384 -0.2764 -0.0553
  102OSM   H15S10339   5.826   3.003   9.287 -0.3468 -0.0051 -1.1091
  102OSM   H15T10340   5.974   3.082   9.265  0.9092 -0.3474 -0.7049
  102OSM   C16S10341   5.824   3.145   9.128  0.6048 -0.0358 -0.0900
  102OSM   H16S10342   5.883   3.238   9.115  0.3309  0.0438 -0.7795
  102OSM   H16T10343   5.714   3.160   9.115  0.6971  0.3211 -0.4546
  102OSM   C17S10344   5.877   3.041   9.023  0.2258 -0.3006 -0.4889
  102OSM   H17S10345   5.985   3.022   9.041  0.3742  0.9587  0.0185
  102OSM   H17T10346   5.863   3.083   8.922 -2.1816 -1.1188 -0.5502
  102OSM   C18S10347   5.814   2.902   9.025  0.0765 -0.4989 -0.2879
  102OSM   H18S10348   5.707   2.913   8.997  0.4543 -1.4601 -2.3376
  102OSM   H18T10349   5.823   2.838   9.116 -2.1915 -1.8968 -0.9583
  102OSM   H18U10350   5.850   2.841   8.939  0.7079 -1.0408  0.3527
  102OSM    C1F10351   5.790   2.938  10.499 -0.3607  0.0599 -0.5451
  102OSM     OF10352   5.708   2.980  10.580 -0.2331  0.3020 -0.7008
  102OSM    C2F10353   5.763   2.813  10.417  0.2481 -0.3279 -0.3374
  102OSM    H2F10354   5.748   2.725  10.484 -1.4669 -1.2395 -1.7918
  102OSM    H2G10355   5.855   2.784  10.362 -0.9804 -0.3739 -2.4789
  102OSM    C3F10356   5.649   2.841  10.312 -0.9657 -0.3825  0.2517
  102OSM    H3F10357   5.554   2.865  10.365 -0.0935  1.6663  0.9891
  102OSM    H3G10358   5.647   2.754  10.243  2.3782  0.6873 -1.4282
  102OSM    C4F10359   5.675   2.973  10.231 -0.2567 -0.4011  0.1355
  102OSM    H4F10360   5.781   2.980  10.197 -0.1907  1.2670  0.5946
  102OSM    H4G10361   5.657   3.057  10.301  0.0173  1.4619 -1.9302
  102OSM    C5F10362   5.592   3.008  10.099  0.2366 -0.1930 -0.1487
  102OSM    H5F10363   5.614   3.113  10.072 -0.0030 -0.4388 -1.3670
  102OSM    H5G10364   5.486   3.008  10.134 -0.1743 -1.7959 -1.2480
  102OSM    C6F10365   5.604   2.903   9.995 -0.5390  0.5206 -0.1179
  102OSM    H6F10366   5.610   2.802  10.041  0.5558  0.0114 -1.3136
  102OSM    H6G10367   5.704   2.916   9.949  0.4236 -1.1765  1.3789
  102OSM    C7F10368   5.500   2.911   9.883  0.1269  0.1715  0.0377
  102OSM    H7F10369   5.491   3.017   9.853  0.1223 -0.1425 -1.0920
  102OSM    H7G10370   5.405   2.871   9.924 -0.0719 -1.3502 -1.7812
  102OSM    C8F10371   5.525   2.825   9.756 -0.1449  0.8171 -0.4199
  102OSM    H8F10372   5.426   2.826   9.706 -0.6659  0.5282  0.5827
  102OSM    H8G10373   5.536   2.724   9.801  2.3972  1.3280  0.2933
  102OSM    C9F10374   5.644   2.861   9.671 -0.4375 -0.2491 -0.4091
  102OSM    H9F10375   5.695   2.953   9.702 -3.8412  1.3916  0.9183
  102OSM   C10F10376   5.670   2.796   9.559  0.0423 -0.6439  0.1866
  102OSM   H10F10377   5.764   2.814   9.503  0.9288 -1.5540  1.3344
  102OSM   C11F10378   5.592   2.677   9.507 -0.4363 -0.1407  0.6852
  102OSM   H11F10379   5.566   2.600   9.583 -0.3945  0.3206  1.1739
  102OSM   H11G10380   5.663   2.610   9.453 -0.6604 -0.8426  1.2446
  102OSM   C12F10381   5.466   2.693   9.421 -0.2027 -0.0203  0.5367
  102OSM   H12F10382   5.383   2.753   9.465 -0.1532  0.9017 -0.5662
  102OSM   H12G10383   5.425   2.591   9.403 -0.4769  0.2511 -0.4746
  102OSM   C13F10384   5.496   2.755   9.281 -0.6268  0.0101 -0.4474
  102OSM   H13F10385   5.546   2.674   9.224  0.6052  0.0249  0.5593
  102OSM   H13G10386   5.559   2.845   9.293 -2.4318  1.4164 -1.1248
  102OSM   C14F10387   5.367   2.800   9.205 -0.3008 -0.2415 -0.7878
  102OSM   H14F10388   5.293   2.854   9.269 -2.5991 -0.9556 -2.6745
  102OSM   H14G10389   5.312   2.706   9.183  3.0058 -2.6925  0.6008
  102OSM   C15F10390   5.399   2.875   9.079 -0.7805 -0.4938 -0.3520
  102OSM   H15F10391   5.466   2.805   9.025  0.1191 -0.7171  0.9983
  102OSM   H15G10392   5.450   2.972   9.100  0.4430 -1.0920 -0.4895
  102OSM   C16F10393   5.281   2.903   8.986  0.0807  0.0869 -0.0789
  102OSM   H16F10394   5.315   2.982   8.915 -0.6465  1.2372  0.8171
  102OSM   H16G10395   5.196   2.943   9.045 -1.3871 -0.2249 -1.8776
  102OSM   C17F10396   5.228   2.785   8.898 -0.2669  0.2349  0.7963
  102OSM   H17F10397   5.195   2.702   8.964  0.3173 -0.2771  0.4541
  102OSM   H17G10398   5.310   2.749   8.832 -0.5697 -1.7889  1.4648
  102OSM   C18F10399   5.116   2.830   8.809  0.4974 -0.8470  0.3784
  102OSM   H18F10400   5.156   2.871   8.714 -1.9176 -1.7854 -1.1546
  102OSM   H18G10401   5.047   2.906   8.850  0.2714 -0.3784 -0.8273
  102OSM   H18H10402   5.066   2.733   8.788  1.4055 -1.6322  1.6899
  103OSM      N10403   1.830   6.569  11.190  0.1519  0.4808  0.0258
  103OSM    C1510404   1.970   6.593  11.223 -1.1490 -0.0660 -0.5844
  103OSM   H15A10405   2.034   6.516  11.181  0.3780  2.2224 -2.7596
  103OSM   H15B10406   1.988   6.605  11.329  2.2558 -2.4383 -0.7328
  103OSM   H15C10407   1.998   6.690  11.185 -0.7552  0.2752  0.5236
  103OSM    C1410408   1.770   6.465  11.291 -0.3469 -0.2331  0.1219
  103OSM   H14A10409   1.796   6.486  11.393 -1.1260 -1.7808  0.6808
  103OSM   H14B10410   1.812   6.368  11.268 -0.0110  0.0787 -0.6033
  103OSM   H14C10411   1.663   6.450  11.282 -0.2110 -2.0142  1.0659
  103OSM    C1310412   1.753   6.699  11.195  0.1564 -0.4733 -0.8294
  103OSM   H13A10413   1.757   6.754  11.288 -1.0245  1.9689 -2.1506
  103OSM   H13B10414   1.652   6.691  11.160 -0.2391  1.3429 -0.2044
  103OSM   H13C10415   1.797   6.764  11.121 -0.4238  1.3285  0.3364
  103OSM    C1210416   1.822   6.510  11.046  0.1198  0.2398 -0.6847
  103OSM   H12A10417   1.855   6.407  11.049 -0.0679  0.1940 -0.0962
  103OSM   H12B10418   1.890   6.567  10.985  0.6558  1.6597  1.1367
  103OSM    C1110419   1.678   6.498  10.981  0.3084  0.6266  0.4209
  103OSM   H11A10420   1.687   6.432  10.891 -1.1210 -0.4457  1.0191
  103OSM   H11B10421   1.669   6.602  10.942  0.3487  0.7341  0.7027
  103OSM      P10422   1.442   6.517  11.085  0.0764  0.3900 -0.0872
  103OSM    O1310423   1.369   6.465  11.200 -0.2888 -0.3114 -0.1667
  103OSM    O1410424   1.464   6.665  11.087  0.0744 -0.1154 -0.2178
  103OSM    O1110425   1.356   6.473  10.955  0.1548 -0.1889 -0.1909
  103OSM    O1210426   1.582   6.440  11.073  0.6967  0.1024  0.0968
  103OSM    C1S10427   1.397   6.348  10.887  0.2470 -0.3458  0.3288
  103OSM    H1S10428   1.361   6.255  10.936  0.6431 -0.6688  0.0114
  103OSM    H1T10429   1.506   6.329  10.882  0.0493 -2.1863  1.7550
  103OSM     NF10430   1.380   6.221  10.675 -0.2862 -0.1554  0.0091
  103OSM    HNF10431   1.450   6.215  10.604 -3.0702  2.9399 -3.4385
  103OSM    C2S10432   1.358   6.354  10.737  0.0577  0.0669  0.8891
  103OSM    H2S10433   1.249   6.375  10.738  0.4071  2.0606  1.3004
  103OSM    C3S10434   1.432   6.474  10.668 -0.3053  0.1334 -0.0925
  103OSM    H3S10435   1.540   6.450  10.676 -0.5465 -0.4650  2.2105
  103OSM     O310436   1.422   6.604  10.722  0.0621  0.2505 -0.2770
  103OSM    HO310437   1.393   6.594  10.813  1.3085  0.0803  0.1189
  103OSM    C4S10438   1.380   6.485  10.527 -0.5932  0.0912 -0.0771
  103OSM    H4S10439   1.436   6.429  10.451 -0.4584  1.2824 -0.9040
  103OSM    C5S10440   1.281   6.566  10.482 -0.1574  0.0607 -0.0097
  103OSM    H5S10441   1.242   6.640  10.554  1.4695 -0.8112  1.8427
  103OSM    C6S10442   1.222   6.589  10.340 -0.1299 -0.1201 -0.4088
  103OSM    H6S10443   1.204   6.698  10.330  2.6913  0.3979 -0.5548
  103OSM    H6T10444   1.126   6.534  10.343 -1.3272  1.8274  3.2341
  103OSM    C7S10445   1.308   6.533  10.225 -0.2276 -0.0030 -0.1645
  103OSM    H7S10446   1.342   6.428  10.234 -2.6960 -0.8915 -0.2432
  103OSM    H7T10447   1.386   6.609  10.208 -1.6081  0.8737 -3.3320
  103OSM    C8S10448   1.236   6.541  10.095 -0.2397  0.6551 -0.1272
  103OSM    H8S10449   1.153   6.466  10.098  1.8124 -1.7304  1.0312
  103OSM    H8T10450   1.303   6.503  10.015  1.7593  0.0010  1.7744
  103OSM    C9S10451   1.191   6.683  10.062 -0.2934  0.0158  0.3450
  103OSM    H9S10452   1.278   6.751  10.079  0.7891  0.0469 -4.0840
  103OSM    H9T10453   1.112   6.716  10.133 -0.3332  3.3401 -1.0547
  103OSM   C10S10454   1.128   6.713   9.923 -0.0281  0.8974  0.0243
  103OSM   H10S10455   1.032   6.766   9.940 -0.6896 -1.0414  3.2470
  103OSM   H10T10456   1.095   6.618   9.875 -3.2913  1.1041  1.6163
  103OSM   C11S10457   1.227   6.784   9.829  0.4235  0.0450  0.5408
  103OSM   H11S10458   1.247   6.886   9.869 -1.2147  0.0377  1.4758
  103OSM   H11T10459   1.181   6.798   9.729 -2.2894  3.4884  2.0179
  103OSM   C12S10460   1.359   6.713   9.805 -0.6175  0.4572 -0.5378
  103OSM   H12S10461   1.338   6.605   9.790 -1.1297  0.2945  1.1400
  103OSM   H12T10462   1.423   6.703   9.896 -0.8155 -0.6865 -0.5048
  103OSM   C13S10463   1.446   6.765   9.686  0.3651 -0.1147  0.1206
  103OSM   H13S10464   1.553   6.741   9.701  1.1954 -0.6739 -4.8857
  103OSM   H13T10465   1.440   6.876   9.687 -1.5903 -0.1708 -0.4602
  103OSM   C14S10466   1.398   6.715   9.551  0.6937 -0.3267  0.2911
  103OSM   H14S10467   1.288   6.721   9.539  0.8309 -0.7298 -1.2548
  103OSM   H14T10468   1.428   6.609   9.542  0.1591 -0.2613 -4.9233
  103OSM   C15S10469   1.449   6.788   9.430 -0.8252  0.0355 -0.5402
  103OSM   H15S10470   1.443   6.898   9.448 -1.0983  0.1456 -1.2832
  103OSM   H15T10471   1.378   6.747   9.356  0.4136 -1.5995 -0.8811
  103OSM   C16S10472   1.591   6.740   9.376 -0.2372 -0.2897 -0.4512
  103OSM   H16S10473   1.598   6.630   9.389  2.0523 -0.2032 -0.5908
  103OSM   H16T10474   1.669   6.788   9.438 -0.7321  1.0118 -0.8059
  103OSM   C17S10475   1.604   6.778   9.234 -0.3170  0.2287  0.4349
  103OSM   H17S10476   1.518   6.727   9.186 -0.1802  0.8256 -0.4916
  103OSM   H17T10477   1.685   6.734   9.172 -0.8950  2.7524 -2.3559
  103OSM   C18S10478   1.606   6.930   9.212 -0.5922 -0.5974 -0.1473
  103OSM   H18S10479   1.694   6.984   9.252 -1.9145  2.0941 -0.6007
  103OSM   H18T10480   1.510   6.972   9.250 -1.4954 -0.5907 -2.2743
  103OSM   H18U10481   1.598   6.960   9.105 -3.3031  1.2808  0.4603
  103OSM    C1F10482   1.312   6.111  10.702  0.6827 -0.2600  0.5271
  103OSM     OF10483   1.232   6.111  10.792  0.8050 -0.0988 -0.1049
  103OSM    C2F10484   1.341   5.987  10.626  0.1895 -0.3062  0.9250
  103OSM    H2F10485   1.345   5.907  10.703 -1.2042 -0.9274  0.3981
  103OSM    H2G10486   1.442   5.982  10.582  0.2793 -3.6008  1.2675
  103OSM    C3F10487   1.228   5.941  10.529  0.5972 -0.5992  0.6260
  103OSM    H3F10488   1.132   5.939  10.585  0.8960 -0.2382  1.1627
  103OSM    H3G10489   1.254   5.841  10.489 -0.0041 -0.4099 -0.2675
  103OSM    C4F10490   1.218   6.053  10.423  0.4465 -0.4130  0.3727
  103OSM    H4F10491   1.313   6.091  10.379 -0.3650  2.4583  0.8374
  103OSM    H4G10492   1.170   6.140  10.473  0.4071 -0.2714  0.0936
  103OSM    C5F10493   1.126   6.015  10.302 -0.0008  0.3525  0.1930
  103OSM    H5F10494   1.017   6.014  10.325 -0.5243 -0.4982 -2.0202
  103OSM    H5G10495   1.153   5.910  10.278  2.1178  1.2019 -1.6024
  103OSM    C6F10496   1.152   6.105  10.173 -0.3334  0.9078 -0.7120
  103OSM    H6F10497   1.259   6.083  10.152 -0.5599  0.1123 -1.0640
  103OSM    H6G10498   1.138   6.213  10.195 -0.5552  0.8842 -0.7358
  103OSM    C7F10499   1.059   6.063  10.063 -0.3894  0.9283  0.6394
  103OSM    H7F10500   0.956   6.100  10.086 -1.3342 -0.6956 -0.7598
  103OSM    H7G10501   1.054   5.953  10.052  0.7201  0.9682 -0.4885
  103OSM    C8F10502   1.090   6.125   9.928  0.3006 -0.3166  0.4385
  103OSM    H8F10503   1.092   6.235   9.946  1.2349 -0.2147 -0.2379
  103OSM    H8G10504   1.006   6.099   9.860  0.7420  1.7632 -1.0146
  103OSM    C9F10505   1.219   6.077   9.868 -0.0768 -0.1202  0.3530
  103OSM    H9F10506   1.297   6.047   9.940  0.7612 -0.7570 -0.7881
  103OSM   C10F10507   1.250   6.065   9.738 -0.6439 -0.4204  0.1407
  103OSM   H10F10508   1.356   6.039   9.724 -0.6398 -0.3442  0.0263
  103OSM   C11F10509   1.166   6.097   9.615  0.0928 -1.0288 -0.0728
  103OSM   H11F10510   1.175   6.205   9.589 -3.2162 -0.7952 -0.6487
  103OSM   H11G10511   1.060   6.083   9.645  0.2753 -2.6646 -0.1206
  103OSM   C12F10512   1.180   5.999   9.496  0.1528 -0.4845  0.0657
  103OSM   H12F10513   1.170   5.893   9.524 -0.6804 -0.1088  1.2510
  103OSM   H12G10514   1.279   5.997   9.445  0.5350 -0.4964  0.8065
  103OSM   C13F10515   1.077   6.037   9.386 -0.3878 -0.1009 -0.6572
  103OSM   H13F10516   0.976   6.010   9.424  0.2875  0.0951  1.3547
  103OSM   H13G10517   1.081   6.148   9.375  0.4600  0.0029  0.6410
  103OSM   C14F10518   1.107   5.967   9.258  0.4533 -0.6926 -0.5846
  103OSM   H14F10519   1.101   5.857   9.269  0.0985 -0.7310 -1.1002
  103OSM   H14G10520   1.211   5.992   9.228  0.1869 -1.3468 -2.1699
  103OSM   C15F10521   0.996   6.014   9.153 -0.1892 -0.1000  0.2024
  103OSM   H15F10522   0.993   6.124   9.137  0.0921 -0.0704  0.3625
  103OSM   H15G10523   0.908   5.974   9.208  0.5979 -0.6297  1.1093
  103OSM   C16F10524   1.008   5.934   9.023 -0.6450  0.3516 -0.3725
  103OSM   H16F10525   1.018   5.828   9.057  2.2247  1.0302  1.2395
  103OSM   H16G10526   1.111   5.958   8.987  0.1752 -0.9463  0.9466
  103OSM   C17F10527   0.893   5.975   8.923 -0.6327 -0.2281 -0.1674
  103OSM   H17F10528   0.907   6.080   8.889  1.0256 -1.0230 -2.1234
  103OSM   H17G10529   0.798   5.952   8.976  0.5098 -2.2361  1.1421
  103OSM   C18F10530   0.895   5.890   8.794  0.3541 -0.2589 -0.6677
  103OSM   H18F10531   0.809   5.921   8.731  0.3986 -0.6950 -0.9492
  103OSM   H18G10532   0.878   5.782   8.814 -0.6926 -0.1548 -0.9176
  103OSM   H18H10533   0.997   5.904   8.753  0.7956  0.2375  0.5389
  104OSM      N10534   3.887   6.642  10.946 -0.0887  0.4219 -0.2429
  104OSM    C1510535   4.008   6.579  10.879 -0.5555  0.3922 -0.0865
  104OSM   H15A10536   4.069   6.653  10.828  1.6488 -2.2750 -1.5979
  104OSM   H15B10537   3.972   6.511  10.803  0.4810  2.1426 -2.2664
  104OSM   H15C10538   4.072   6.530  10.951  0.1726  1.3390 -0.0740
  104OSM    C1410539   3.823   6.541  11.039  0.5671 -0.2929  0.0652
  104OSM   H14A10540   3.786   6.454  10.988  0.0083  0.4157 -0.7505
  104OSM   H14B10541   3.741   6.595  11.084  0.7374 -0.3521  0.4548
  104OSM   H14C10542   3.887   6.509  11.120 -0.7928 -0.9651  0.9142
  104OSM    C1310543   3.946   6.755  11.023  0.1057 -0.0632 -0.5327
  104OSM   H13A10544   3.876   6.824  11.068  0.7755  0.2982 -0.0246
  104OSM   H13B10545   4.013   6.814  10.962  0.8138 -1.2765 -0.9722
  104OSM   H13C10546   4.011   6.713  11.099 -2.9149 -1.2172  1.6129
  104OSM    C1210547   3.790   6.683  10.835  0.1478 -1.1025  0.4215
  104OSM   H12A10548   3.746   6.597  10.787  0.2484 -0.5785 -0.6459
  104OSM   H12B10549   3.844   6.719  10.749 -1.0273 -0.8631 -0.2446
  104OSM    C1110550   3.664   6.780  10.880 -0.4634 -0.2251  0.0180
  104OSM   H11A10551   3.613   6.817  10.788 -2.4880 -1.0336  0.7661
  104OSM   H11B10552   3.707   6.872  10.924 -1.7321  1.2335 -1.6605
  104OSM      P10553   3.461   6.629  10.927 -0.2020  0.0610  0.1467
  104OSM    O1310554   3.440   6.519  11.023 -0.8284 -0.5102  0.1186
  104OSM    O1410555   3.347   6.719  10.906 -0.3247  0.4834 -0.0106
  104OSM    O1110556   3.507   6.572  10.784 -0.0183  0.3463 -0.1601
  104OSM    O1210557   3.580   6.715  10.973  0.0481  0.0476 -0.0984
  104OSM    C1S10558   3.414   6.523  10.688  0.1800  0.6990 -0.7006
  104OSM    H1S10559   3.307   6.550  10.705 -0.0312 -0.8612  0.6279
  104OSM    H1T10560   3.417   6.412  10.694 -5.3059  0.2711 -0.7208
  104OSM     NF10561   3.356   6.469  10.461  0.5248 -0.0281  0.1271
  104OSM    HNF10562   3.391   6.380  10.433  0.7926 -1.0840  3.3999
  104OSM    C2S10563   3.444   6.554  10.537  0.3738 -0.6707  0.3007
  104OSM    H2S10564   3.412   6.658  10.514 -1.3259 -0.8295  1.7465
  104OSM    C3S10565   3.596   6.540  10.515  0.8788 -0.2033  0.4265
  104OSM    H3S10566   3.631   6.445  10.561 -1.3547 -3.0897 -3.2769
  104OSM     O310567   3.675   6.643  10.576  0.2644 -0.5106 -0.6724
  104OSM    HO310568   3.625   6.699  10.635  2.0972 -0.6183  1.0978
  104OSM    C4S10569   3.628   6.529  10.365  0.0713 -0.6218  0.2553
  104OSM    H4S10570   3.657   6.426  10.337 -0.9861 -1.1452  1.0310
  104OSM    C5S10571   3.633   6.616  10.265 -0.3774 -0.8213  0.1530
  104OSM    H5S10572   3.602   6.719  10.284 -0.5250 -0.8007 -0.1854
  104OSM    C6S10573   3.667   6.579  10.123  0.0836  0.8650  0.3420
  104OSM    H6S10574   3.692   6.472  10.108 -1.5473  0.3788  0.8353
  104OSM    H6T10575   3.747   6.649  10.092 -0.0769  1.4763  1.2538
  104OSM    C7S10576   3.533   6.617  10.049  0.4144  0.6414  0.6956
  104OSM    H7S10577   3.520   6.727  10.044  1.3202  0.7021 -2.8800
  104OSM    H7T10578   3.447   6.556  10.085  0.2826  1.9065  2.6681
  104OSM    C8S10579   3.546   6.578   9.898 -0.3371  0.3532  0.3823
  104OSM    H8S10580   3.587   6.476   9.882 -1.4026  0.1177 -1.0659
  104OSM    H8T10581   3.621   6.654   9.867  0.6624 -0.6999  0.1244
  104OSM    C9S10582   3.422   6.604   9.805  0.1175  1.2418  0.1684
  104OSM    H9S10583   3.382   6.707   9.810 -1.2521  0.6842  1.5396
  104OSM    H9T10584   3.341   6.547   9.856  0.8354  2.0254  2.3165
  104OSM   C10S10585   3.455   6.561   9.660  0.3626 -0.5147  1.0651
  104OSM   H10S10586   3.355   6.554   9.611 -0.2928  4.1757  1.3132
  104OSM   H10T10587   3.498   6.458   9.662 -0.0497 -0.7052  0.5871
  104OSM   C11S10588   3.536   6.660   9.579  0.1120  0.0093  0.1599
  104OSM   H11S10589   3.634   6.678   9.628  0.3495  0.8206 -0.5918
  104OSM   H11T10590   3.474   6.751   9.583  1.4330  0.8962  1.6448
  104OSM   C12S10591   3.548   6.625   9.429 -0.2444  0.2781 -0.0724
  104OSM   H12S10592   3.442   6.622   9.395 -0.6541 -1.4599  1.1721
  104OSM   H12T10593   3.593   6.524   9.417  0.3000  0.6654 -1.4838
  104OSM   C13S10594   3.635   6.729   9.352  0.2930  0.0931  0.2213
  104OSM   H13S10595   3.734   6.733   9.402  1.7548  1.1239 -2.5446
  104OSM   H13T10596   3.597   6.832   9.370  0.9884  0.4027 -0.0383
  104OSM   C14S10597   3.642   6.709   9.200 -0.4110  0.4094 -0.1449
  104OSM   H14S10598   3.684   6.607   9.186  1.8757  1.4924 -1.7203
  104OSM   H14T10599   3.729   6.765   9.162  0.0467  0.5875  1.1153
  104OSM   C15S10600   3.521   6.739   9.119  0.0397 -0.1920 -0.8016
  104OSM   H15S10601   3.505   6.846   9.143  1.5356 -0.1600  0.2056
  104OSM   H15T10602   3.427   6.688   9.149 -0.6082  0.8255 -1.0579
  104OSM   C16S10603   3.544   6.717   8.966  0.0531 -0.4727 -1.0528
  104OSM   H16S10604   3.440   6.722   8.926 -0.6296  0.6280  0.7305
  104OSM   H16T10605   3.594   6.623   8.936  3.3657 -0.1767  2.7190
  104OSM   C17S10606   3.595   6.840   8.892  0.9804  0.3071  0.1614
  104OSM   H17S10607   3.698   6.854   8.931  0.6057  2.4967  0.4656
  104OSM   H17T10608   3.523   6.920   8.920  0.4417 -0.2833  0.4882
  104OSM   C18S10609   3.595   6.827   8.743 -0.0411  0.0692  0.1182
  104OSM   H18S10610   3.670   6.747   8.724 -0.3478 -0.4972  1.2060
  104OSM   H18T10611   3.635   6.922   8.702 -0.4458  0.4194  0.5295
  104OSM   H18U10612   3.509   6.802   8.677  0.7219 -4.8725  0.6182
  104OSM    C1F10613   3.229   6.511  10.443  0.0611 -0.1339 -0.2285
  104OSM     OF10614   3.191   6.615  10.497  0.2443 -0.3904 -0.4466
  104OSM    C2F10615   3.144   6.426  10.347  0.1690  0.0611 -0.9834
  104OSM    H2F10616   3.045   6.408  10.394 -0.5279  0.0664 -2.4053
  104OSM    H2G10617   3.191   6.326  10.335 -2.7487 -1.6996  0.9490
  104OSM    C3F10618   3.143   6.499  10.211 -0.2702 -0.3253 -0.0205
  104OSM    H3F10619   3.245   6.538  10.190 -0.4049  1.0015  1.6000
  104OSM    H3G10620   3.078   6.589  10.210  0.9538  0.5839  0.1475
  104OSM    C4F10621   3.083   6.408  10.102  0.1428  0.4834  0.0186
  104OSM    H4F10622   2.998   6.352  10.148  0.4720  1.5133  1.9519
  104OSM    H4G10623   3.150   6.329  10.063  0.2690  0.3147  0.5788
  104OSM    C5F10624   3.031   6.484   9.985  0.2845 -0.0576 -0.1120
  104OSM    H5F10625   3.112   6.543   9.936  3.2246 -1.0749  3.1425
  104OSM    H5G10626   2.954   6.558  10.016  2.1839  2.5616 -1.2355
  104OSM    C6F10627   2.970   6.387   9.881  0.5108  0.3493 -0.2443
  104OSM    H6F10628   2.873   6.337   9.901  2.5745 -4.2329 -0.4575
  104OSM    H6G10629   3.040   6.303   9.863  1.2676  0.3455  2.3033
  104OSM    C7F10630   2.944   6.446   9.742  0.1154 -0.0810  0.5753
  104OSM    H7F10631   3.045   6.487   9.719  0.1210  0.0865  0.8923
  104OSM    H7G10632   2.867   6.523   9.762  2.5376  2.0537  2.5386
  104OSM    C8F10633   2.892   6.346   9.636  0.0102 -0.5606 -0.1258
  104OSM    H8F10634   2.802   6.296   9.679  0.0593 -1.7116 -1.2859
  104OSM    H8G10635   2.971   6.269   9.627  0.1531 -0.4095 -0.1710
  104OSM    C9F10636   2.853   6.385   9.497 -0.0714 -1.0201 -0.3329
  104OSM    H9F10637   2.746   6.381   9.472  0.5213 -0.6210 -3.3402
  104OSM   C10F10638   2.936   6.414   9.393  0.4678 -0.2144 -0.4187
  104OSM   H10F10639   2.891   6.435   9.295 -2.5472 -3.0969  0.1686
  104OSM   C11F10640   3.093   6.403   9.397  0.1084  0.2549  0.6330
  104OSM   H11F10641   3.127   6.380   9.500  0.7482 -0.3147  0.3029
  104OSM   H11G10642   3.146   6.499   9.383  1.5074 -0.5498  0.2015
  104OSM   C12F10643   3.159   6.293   9.309  0.0401 -0.2197  0.6319
  104OSM   H12F10644   3.097   6.201   9.313  1.5848 -1.3874 -0.8075
  104OSM   H12G10645   3.258   6.272   9.355  1.4844  0.0717 -2.1586
  104OSM   C13F10646   3.186   6.338   9.162 -0.0687 -0.5397  0.8850
  104OSM   H13F10647   3.242   6.433   9.153  2.7057 -1.9427  1.9865
  104OSM   H13G10648   3.085   6.333   9.116 -0.0383 -1.1341  0.8697
  104OSM   C14F10649   3.260   6.229   9.081 -0.0983  0.3067 -0.1281
  104OSM   H14F10650   3.191   6.143   9.070  0.8188 -0.4033 -0.4065
  104OSM   H14G10651   3.352   6.180   9.120  0.5521 -0.3773 -2.3783
  104OSM   C15F10652   3.297   6.277   8.934 -0.0751 -0.1744  0.2902
  104OSM   H15F10653   3.203   6.302   8.882 -0.6147 -2.0520  0.3039
  104OSM   H15G10654   3.329   6.184   8.882 -0.0701  0.2068 -0.3924
  104OSM   C16F10655   3.397   6.393   8.910 -1.0703 -1.3161  0.7101
  104OSM   H16F10656   3.469   6.408   8.993  1.5801  1.4426 -1.8449
  104OSM   H16G10657   3.337   6.487   8.916  2.9837  1.7228 -1.5758
  104OSM   C17F10658   3.478   6.379   8.781  0.3937 -0.1206 -0.3534
  104OSM   H17F10659   3.508   6.272   8.783 -1.0303 -0.5834  2.6117
  104OSM   H17G10660   3.572   6.438   8.782  0.4142 -0.1398  0.9489
  104OSM   C18F10661   3.396   6.411   8.654  0.0423  1.1500  0.1976
  104OSM   H18F10662   3.454   6.381   8.564  1.4222 -0.7867  1.6739
  104OSM   H18G10663   3.363   6.516   8.663 -2.4534  0.4157  0.3516
  104OSM   H18H10664   3.300   6.354   8.645 -0.1040  1.5539 -1.0198
  105OSM      N10665   2.897   5.788  10.875 -0.0923  0.6446  0.4069
  105OSM    C1510666   2.883   5.870  11.000  0.1698  0.4730 -0.1633
  105OSM   H15A10667   2.823   5.956  10.972  0.3221  0.6047 -0.0843
  105OSM   H15B10668   2.981   5.902  11.030 -0.0630  2.1482 -1.0432
  105OSM   H15C10669   2.838   5.821  11.084  1.1368  0.8732  0.6116
  105OSM    C1410670   2.753   5.754  10.838  0.4732  0.0794  1.0066
  105OSM   H14A10671   2.707   5.688  10.910  0.0374 -0.1087  0.5639
  105OSM   H14B10672   2.746   5.724  10.735 -0.0261  1.3241  0.6580
  105OSM   H14C10673   2.690   5.842  10.841  0.5323  0.1073  3.5015
  105OSM    C1310674   2.951   5.878  10.768 -0.0088  0.0771  0.2676
  105OSM   H13A10675   3.047   5.923  10.791  0.0386  0.0003  0.2178
  105OSM   H13B10676   2.885   5.962  10.751  0.4312  0.4614  0.4176
  105OSM   H13C10677   2.965   5.824  10.676 -1.2706 -0.0027  0.1085
  105OSM    C1210678   2.982   5.674  10.896  0.0685  0.3918 -0.0718
  105OSM   H12A10679   2.950   5.615  10.981  0.5957 -1.3452 -1.0267
  105OSM   H12B10680   3.081   5.715  10.908  0.3167  0.2421 -1.5000
  105OSM    C1110681   3.002   5.580  10.779  0.2400 -0.2045 -0.2628
  105OSM   H11A10682   2.903   5.543  10.744  0.2884 -1.2355  0.6239
  105OSM   H11B10683   3.047   5.482  10.806  0.2404 -0.1605 -0.1045
  105OSM      P10684   3.227   5.644  10.674  0.5789  0.2099 -0.2214
  105OSM    O1310685   3.279   5.727  10.560  0.3382 -0.1797 -0.0743
  105OSM    O1410686   3.276   5.688  10.808  0.1481 -0.2690  0.3830
  105OSM    O1110687   3.273   5.494  10.650 -0.0629 -0.4704 -0.0997
  105OSM    O1210688   3.069   5.644  10.670  0.2523 -0.2026 -0.0672
  105OSM    C1S10689   3.220   5.416  10.542 -0.3346  0.6788 -0.2571
  105OSM    H1S10690   3.242   5.467  10.446  1.7963  0.0816 -0.1375
  105OSM    H1T10691   3.111   5.403  10.560 -0.1700  0.2654  0.4637
  105OSM     NF10692   3.238   5.185  10.447 -0.5189 -0.2624 -0.1028
  105OSM    HNF10693   3.155   5.131  10.458  0.3187 -1.2587  1.7853
  105OSM    C2S10694   3.287   5.277  10.542 -0.8208 -0.5077  0.0970
  105OSM    H2S10695   3.395   5.298  10.527 -0.1558 -2.7247  1.3065
  105OSM    C3S10696   3.275   5.207  10.683  0.5407  0.9637 -0.3021
  105OSM    H3S10697   3.166   5.196  10.701  0.4125  1.5007 -0.7105
  105OSM     O310698   3.327   5.282  10.797 -0.2281 -0.3437  0.0508
  105OSM    HO310699   3.318   5.373  10.767 -0.4140  0.8889  3.4537
  105OSM    C4S10700   3.342   5.066  10.690  0.6801 -0.8615 -0.5708
  105OSM    H4S10701   3.448   5.062  10.717  0.5469  0.9063  0.3515
  105OSM    C5S10702   3.273   4.951  10.678  0.1678  0.1725 -0.2221
  105OSM    H5S10703   3.165   4.958  10.658  0.3070  1.3215 -0.6619
  105OSM    C6S10704   3.328   4.806  10.676  0.0614 -1.6337  0.0285
  105OSM    H6S10705   3.258   4.745  10.736  0.1683 -0.2458  1.6143
  105OSM    H6T10706   3.426   4.790  10.725  0.0872  1.6475  1.2630
  105OSM    C7S10707   3.335   4.767  10.528 -0.1217 -0.0973  0.2846
  105OSM    H7S10708   3.384   4.668  10.540 -0.1894 -0.0463  1.0783
  105OSM    H7T10709   3.399   4.834  10.467 -2.1947  0.5347 -1.3062
  105OSM    C8S10710   3.200   4.751  10.462 -0.4723 -0.5401 -0.6095
  105OSM    H8S10711   3.137   4.838  10.487  0.0450 -0.0577 -0.9695
  105OSM    H8T10712   3.150   4.660  10.503 -1.3510  0.3092  0.2485
  105OSM    C9S10713   3.198   4.737  10.306  0.4957 -0.3219  0.0074
  105OSM    H9S10714   3.242   4.833  10.273  0.5820  0.6941  2.8016
  105OSM    H9T10715   3.090   4.730  10.282  0.5396 -0.0300 -0.2684
  105OSM   C10S10716   3.282   4.622  10.258 -0.6648  0.2281  0.3102
  105OSM   H10S10717   3.231   4.529  10.291 -3.1854  2.0171  1.7494
  105OSM   H10T10718   3.385   4.618  10.299  1.2144 -1.7669 -3.9309
  105OSM   C11S10719   3.278   4.614  10.110 -0.1286 -0.0663 -0.0038
  105OSM   H11S10720   3.354   4.547  10.064 -0.7956 -0.0541 -1.1643
  105OSM   H11T10721   3.303   4.717  10.075  3.5802 -0.7384  0.2066
  105OSM   C12S10722   3.140   4.574  10.047 -0.6056 -0.0425 -0.2572
  105OSM   H12S10723   3.062   4.649  10.073 -1.0641 -0.0189 -1.5867
  105OSM   H12T10724   3.102   4.478  10.088 -0.1949  0.9597  2.6753
  105OSM   C13S10725   3.148   4.574   9.890 -0.2028 -0.2937 -0.1294
  105OSM   H13S10726   3.239   4.523   9.853 -1.7964 -1.7401 -2.3867
  105OSM   H13T10727   3.153   4.680   9.860 -0.2990 -0.0960  0.5351
  105OSM   C14S10728   3.025   4.522   9.823 -0.3915  0.0394  0.1128
  105OSM   H14S10729   2.936   4.540   9.888 -1.5229  0.0797 -1.4036
  105OSM   H14T10730   3.040   4.414   9.800  1.6748  0.5775 -1.3649
  105OSM   C15S10731   2.992   4.590   9.686 -0.7963  0.2319  0.5383
  105OSM   H15S10732   3.001   4.701   9.689 -0.7146  0.2315  0.3416
  105OSM   H15T10733   2.887   4.566   9.658 -0.4414 -0.8438  0.0927
  105OSM   C16S10734   3.099   4.544   9.581  0.0394 -0.5905 -0.7422
  105OSM   H16S10735   3.095   4.433   9.575 -0.5706 -0.6923  1.0684
  105OSM   H16T10736   3.203   4.572   9.609  0.5928 -1.3484 -1.9555
  105OSM   C17S10737   3.081   4.615   9.446  0.2475  0.0174 -0.7277
  105OSM   H17S10738   3.181   4.622   9.399 -1.2414 -0.0257 -4.2103
  105OSM   H17T10739   3.053   4.721   9.468  1.4792 -0.3134  3.2587
  105OSM   C18S10740   2.977   4.552   9.356 -0.7753 -1.0016  0.2868
  105OSM   H18S10741   2.959   4.622   9.272 -0.9512 -1.4138 -0.0202
  105OSM   H18T10742   2.883   4.525   9.408 -1.5603 -0.4119 -0.8051
  105OSM   H18U10743   3.029   4.462   9.316 -0.3802 -1.3815  1.5969
  105OSM    C1F10744   3.259   5.217  10.314  0.9001  0.4274 -0.0571
  105OSM     OF10745   3.354   5.287  10.278  0.5217  0.2873  0.2903
  105OSM    C2F10746   3.161   5.154  10.219  0.2008  0.3337  0.1286
  105OSM    H2F10747   3.063   5.205  10.233  0.4643  0.6969  0.7136
  105OSM    H2G10748   3.136   5.048  10.243 -1.6295  0.5254 -0.7099
  105OSM    C3F10749   3.191   5.163  10.074  0.8676  0.8418 -0.0338
  105OSM    H3F10750   3.283   5.104  10.051  1.3632  2.1892 -1.7508
  105OSM    H3G10751   3.210   5.270  10.050 -0.4630  1.3778  1.1835
  105OSM    C4F10752   3.065   5.127   9.993 -0.2478  0.4993 -0.1315
  105OSM    H4F10753   3.001   5.218   9.987  2.1599  2.2470 -1.0452
  105OSM    H4G10754   3.014   5.039  10.036  2.5563 -0.5649  1.2771
  105OSM    C5F10755   3.090   5.078   9.846 -0.0963  0.3906  0.3102
  105OSM    H5F10756   3.134   4.976   9.842 -1.6064 -0.2485 -1.8386
  105OSM    H5G10757   3.170   5.144   9.809 -0.5668  0.9762  0.3197
  105OSM    C6F10758   2.981   5.105   9.739  0.1567  0.3653 -0.2009
  105OSM    H6F10759   2.958   5.214   9.739  1.7713  0.7308 -0.2920
  105OSM    H6G10760   2.896   5.039   9.766  1.9119 -1.1402  2.0314
  105OSM    C7F10761   3.018   5.057   9.596  0.3479 -0.1154 -0.4542
  105OSM    H7F10762   3.012   4.946   9.601  0.5130 -0.1141 -0.2646
  105OSM    H7G10763   3.121   5.073   9.559 -0.0607  1.5551 -0.9750
  105OSM    C8F10764   2.915   5.097   9.490 -0.1623  0.3881  0.2236
  105OSM    H8F10765   2.816   5.060   9.524 -0.6813 -0.8754 -2.3865
  105OSM    H8G10766   2.948   5.042   9.399 -0.6847  0.8122 -0.2299
  105OSM    C9F10767   2.911   5.241   9.445  0.4089 -0.6537 -1.0306
  105OSM    H9F10768   2.901   5.314   9.527  0.5541 -1.5122 -0.2320
  105OSM   C10F10769   2.915   5.285   9.315  0.0595 -0.6425 -1.0547
  105OSM   H10F10770   2.912   5.393   9.295  1.6120 -0.1257  1.1282
  105OSM   C11F10771   2.915   5.213   9.188  0.2000  0.1590  0.0294
  105OSM   H11F10772   2.812   5.205   9.148  0.0788 -2.5007  0.6978
  105OSM   H11G10773   2.961   5.114   9.207 -0.4989  0.0587  1.3022
  105OSM   C12F10774   2.992   5.291   9.083  0.3960  0.6079  0.0200
  105OSM   H12F10775   3.096   5.277   9.120  0.0391 -1.9178  0.2680
  105OSM   H12G10776   2.963   5.398   9.075 -0.6939  0.2815 -0.4912
  105OSM   C13F10777   2.995   5.221   8.942  0.7225 -0.7932 -0.2980
  105OSM   H13F10778   2.889   5.204   8.912  0.3481  0.9327 -0.0199
  105OSM   H13G10779   3.046   5.122   8.939  0.4968 -0.8910 -1.1002
  105OSM   C14F10780   3.056   5.312   8.838  0.0322 -0.2251  0.2464
  105OSM   H14F10781   3.162   5.339   8.857 -0.2839  0.4867  1.1064
  105OSM   H14G10782   2.996   5.406   8.841  0.4204  0.0377 -0.1851
  105OSM   C15F10783   3.034   5.253   8.693  0.6606 -0.3727 -0.1162
  105OSM   H15F10784   2.926   5.236   8.670  0.2524  2.8073 -1.0242
  105OSM   H15G10785   3.079   5.152   8.694 -1.2805 -1.3253 -1.4610
  105OSM   C16F10786   3.101   5.335   8.581  0.1080  0.5217  0.3412
  105OSM   H16F10787   3.075   5.443   8.593 -0.2117  0.1839  3.4528
  105OSM   H16G10788   3.069   5.301   8.480  1.1838 -0.8887  0.4450
  105OSM   C17F10789   3.252   5.319   8.586 -0.5363  0.2546 -0.4954
  105OSM   H17F10790   3.256   5.208   8.589  2.7419  0.2995  1.2633
  105OSM   H17G10791   3.292   5.349   8.685 -2.0910 -0.6562  0.4489
  105OSM   C18F10792   3.340   5.379   8.480 -0.8006 -0.2932  0.3751
  105OSM   H18F10793   3.445   5.343   8.484 -1.1381 -1.1869  2.0871
  105OSM   H18G10794   3.357   5.488   8.487 -1.3551 -0.1332 -0.5769
  105OSM   H18H10795   3.304   5.358   8.377  0.2777 -1.2178  0.1666
  106OSM      N10796   5.983   2.548  10.795 -0.3250  0.0681 -0.8311
  106OSM    C1510797   5.882   2.660  10.811 -1.0117 -0.2333  0.2176
  106OSM   H15A10798   5.927   2.741  10.865 -1.3578 -0.3153  0.6355
  106OSM   H15B10799   5.798   2.616  10.862 -0.3499 -3.1425 -0.9836
  106OSM   H15C10800   5.845   2.708  10.722 -0.3051 -1.0554 -0.5399
  106OSM    C1410801   6.120   2.602  10.764  0.2558 -0.7356 -0.0106
  106OSM   H14A10802   6.109   2.632  10.661  0.2460  0.6108  0.3652
  106OSM   H14B10803   6.195   2.524  10.770  3.4788  2.1516  0.2026
  106OSM   H14C10804   6.152   2.680  10.830  0.3505  0.2660 -1.2030
  106OSM    C1310805   5.981   2.472  10.928  0.4212 -0.3020 -0.2624
  106OSM   H13A10806   6.040   2.382  10.918  1.3295  0.0747  1.3441
  106OSM   H13B10807   5.881   2.444  10.958  0.8654 -0.4196  1.1336
  106OSM   H13C10808   6.039   2.522  11.003 -0.9074  0.0367  0.5767
  106OSM    C1210809   5.947   2.466  10.676  0.2187 -0.1613  0.3634
  106OSM   H12A10810   5.954   2.531  10.590 -1.3664  0.4094  0.6379
  106OSM   H12B10811   5.841   2.456  10.689  0.3274 -0.2507  1.2404
  106OSM    C1110812   6.005   2.321  10.657  0.1695  0.8624 -0.1044
  106OSM   H11A10813   6.113   2.338  10.677  1.0992 -2.1238 -1.8933
  106OSM   H11B10814   5.983   2.286  10.554  0.0023 -1.9817  0.8270
  106OSM      P10815   5.812   2.184  10.766  0.4026 -0.2168  0.1206
  106OSM    O1310816   5.801   2.086  10.871 -0.0255  0.1307 -0.6115
  106OSM    O1410817   5.725   2.304  10.788  0.2776  0.6636  0.2394
  106OSM    O1110818   5.789   2.119  10.622 -0.1173 -0.0523 -0.1120
  106OSM    O1210819   5.965   2.228  10.761  0.7144  0.2660  0.2238
  106OSM    C1S10820   5.683   2.173  10.539  0.0552 -0.5689  0.6867
  106OSM    H1S10821   5.717   2.274  10.509 -0.3750 -0.8594 -0.8481
  106OSM    H1T10822   5.587   2.176  10.595 -1.3430 -2.8334 -1.3934
  106OSM     NF10823   5.564   2.139  10.322  0.0494 -0.5774  0.2784
  106OSM    HNF10824   5.490   2.076  10.298  0.8344 -1.5812  0.4669
  106OSM    C2S10825   5.647   2.081  10.418  0.0116  0.4247 -0.3689
  106OSM    H2S10826   5.741   2.052  10.365  0.3776 -0.1730  0.5873
  106OSM    C3S10827   5.601   1.939  10.476  0.0925  0.4187 -0.8699
  106OSM    H3S10828   5.499   1.947  10.518 -0.8683 -0.6362 -2.8526
  106OSM     O310829   5.687   1.894  10.582 -0.2025  0.4250 -0.2867
  106OSM    HO310830   5.738   1.972  10.604  1.2660 -0.3722 -0.6772
  106OSM    C4S10831   5.575   1.832  10.370 -0.5503  0.2410 -0.1360
  106OSM    H4S10832   5.473   1.805  10.338 -0.4195  1.9771 -2.3232
  106OSM    C5S10833   5.680   1.758  10.321  0.8357 -0.2993  0.0753
  106OSM    H5S10834   5.785   1.778  10.347  0.5897 -0.3368  1.1403
  106OSM    C6S10835   5.661   1.651  10.216 -0.1427  0.6709  0.7775
  106OSM    H6S10836   5.553   1.649  10.192 -0.7101 -0.3948  3.0569
  106OSM    H6T10837   5.680   1.550  10.259  1.5131  0.5953 -0.0547
  106OSM    C7S10838   5.750   1.671  10.093 -0.6357 -0.5718 -0.2872
  106OSM    H7S10839   5.726   1.590  10.021  0.6428 -0.9191 -0.3325
  106OSM    H7T10840   5.857   1.666  10.120 -1.2014 -0.2642  2.2951
  106OSM    C8S10841   5.718   1.796  10.014  0.7107 -0.0496  0.3646
  106OSM    H8S10842   5.743   1.889  10.068  2.9783 -0.8237  0.7543
  106OSM    H8T10843   5.617   1.795   9.967  2.3651  1.4015 -3.7052
  106OSM    C9S10844   5.808   1.813   9.889 -0.4337 -0.7594 -0.0278
  106OSM    H9S10845   5.829   1.719   9.833  1.7823 -0.9346  1.0089
  106OSM    H9T10846   5.912   1.836   9.921 -0.6167 -1.1639  0.9069
  106OSM   C10S10847   5.764   1.914   9.785 -0.1892 -0.3568 -0.4832
  106OSM   H10S10848   5.735   2.009   9.835 -0.7326 -0.8460  0.1455
  106OSM   H10T10849   5.669   1.870   9.748 -1.7017 -0.6131  3.2603
  106OSM   C11S10850   5.867   1.927   9.681 -0.1009 -0.0563  0.8414
  106OSM   H11S10851   5.873   1.832   9.623 -1.0401  0.3797  0.0064
  106OSM   H11T10852   5.967   1.963   9.714 -0.0993  1.3141 -0.5405
  106OSM   C12S10853   5.825   2.024   9.570  0.3558 -0.3958  0.6337
  106OSM   H12S10854   5.813   2.130   9.601 -1.2799 -0.3633 -0.0079
  106OSM   H12T10855   5.724   1.996   9.531 -0.8876  2.4384  1.6029
  106OSM   C13S10856   5.920   2.027   9.454  0.7855 -0.3174  1.2821
  106OSM   H13S10857   5.957   1.924   9.436 -0.5844 -1.0374  2.4791
  106OSM   H13T10858   6.006   2.092   9.484  0.0940  1.7462 -0.8800
  106OSM   C14S10859   5.856   2.060   9.312 -0.4216 -0.2669  0.0424
  106OSM   H14S10860   5.784   2.144   9.325  0.5148  0.3743  1.2954
  106OSM   H14T10861   5.811   1.961   9.289  0.0013 -1.0953  2.4600
  106OSM   C15S10862   5.958   2.089   9.197 -0.5271  0.7619  0.7447
  106OSM   H15S10863   6.041   2.148   9.243  1.3525 -2.1715  1.3530
  106OSM   H15T10864   5.898   2.150   9.126 -2.8614 -1.7427  0.4227
  106OSM   C16S10865   6.027   1.962   9.136 -0.8013  0.2998  0.7491
  106OSM   H16S10866   5.968   1.908   9.059  0.8671 -0.4075 -0.1008
  106OSM   H16T10867   6.054   1.900   9.224  1.0248  0.2499  0.1912
  106OSM   C17S10868   6.157   2.006   9.065  0.5372  0.7188  0.0679
  106OSM   H17S10869   6.218   2.062   9.140  0.9577 -1.3250  1.3276
  106OSM   H17T10870   6.120   2.072   8.983 -1.1743 -0.4389 -0.1442
  106OSM   C18S10871   6.235   1.894   9.006 -0.2927 -0.2553  1.0637
  106OSM   H18S10872   6.271   1.829   9.089 -2.6158  0.0249  2.3890
  106OSM   H18T10873   6.321   1.940   8.953  0.0697 -3.2924 -1.2748
  106OSM   H18U10874   6.167   1.833   8.943 -0.4273 -2.1848  2.9241
  106OSM    C1F10875   5.584   2.257  10.259  0.7512 -0.4165 -0.9766
  106OSM     OF10876   5.668   2.341  10.296 -0.0099  0.7204 -0.2649
  106OSM    C2F10877   5.489   2.288  10.142 -0.5031  0.0194  0.2352
  106OSM    H2F10878   5.468   2.397  10.149 -0.4914  0.0299  0.1090
  106OSM    H2G10879   5.397   2.226  10.138 -0.8394  0.5161  0.2176
  106OSM    C3F10880   5.559   2.257  10.002 -0.0600  0.3940 -0.9543
  106OSM    H3F10881   5.570   2.147  10.008 -1.4426  0.2725 -0.2186
  106OSM    H3G10882   5.652   2.317   9.995 -0.7960  1.8576  0.9460
  106OSM    C4F10883   5.469   2.299   9.889 -0.0975  0.1709 -0.5167
  106OSM    H4F10884   5.437   2.404   9.910 -0.2331 -0.3304  2.1321
  106OSM    H4G10885   5.371   2.248   9.901  0.4498 -0.8159 -0.1814
  106OSM    C5F10886   5.537   2.278   9.755 -0.0124 -0.1374  0.2054
  106OSM    H5F10887   5.600   2.191   9.782 -0.5676 -0.2838  1.0838
  106OSM    H5G10888   5.602   2.365   9.732  1.8040 -1.5272 -0.1679
  106OSM    C6F10889   5.444   2.260   9.638  0.2548 -0.8801  0.3593
  106OSM    H6F10890   5.405   2.363   9.620  0.5377 -0.5970  1.3313
  106OSM    H6G10891   5.362   2.186   9.652  1.1400 -2.3329 -1.6255
  106OSM    C7F10892   5.521   2.211   9.507 -1.0204  0.3355 -0.5159
  106OSM    H7F10893   5.523   2.102   9.526 -0.1324  0.6642  1.6516
  106OSM    H7G10894   5.625   2.249   9.493 -1.0261  0.6278  0.1764
  106OSM    C8F10895   5.432   2.261   9.387 -0.4831  0.7496 -0.1259
  106OSM    H8F10896   5.428   2.372   9.385  0.4245  0.7849 -0.5763
  106OSM    H8G10897   5.328   2.234   9.415 -0.0584 -0.6224  0.2347
  106OSM    C9F10898   5.468   2.190   9.260  0.1725  0.4654  0.3271
  106OSM    H9F10899   5.451   2.082   9.263 -0.3999  0.5697  1.7918
  106OSM   C10F10900   5.501   2.249   9.147  0.2919  0.8488 -0.7128
  106OSM   H10F10901   5.520   2.191   9.055 -1.0367  1.2620 -1.2651
  106OSM   C11F10902   5.524   2.401   9.121 -0.5768 -0.5857 -1.2401
  106OSM   H11F10903   5.630   2.416   9.092 -0.2602  0.2751  0.2257
  106OSM   H11G10904   5.516   2.466   9.211  0.3384 -1.4574 -0.5014
  106OSM   C12F10905   5.448   2.453   8.998  0.0180  0.5884 -0.1257
  106OSM   H12F10906   5.471   2.561   8.988  0.0128  0.4830 -1.4468
  106OSM   H12G10907   5.339   2.441   9.016 -0.5787  2.2683 -2.2902
  106OSM   C13F10908   5.443   2.381   8.857  0.1103  0.4570  0.4527
  106OSM   H13F10909   5.361   2.433   8.805  0.5049  1.7601  1.0905
  106OSM   H13G10910   5.428   2.271   8.870  0.6636  0.5070  1.6882
  106OSM   C14F10911   5.563   2.398   8.773 -0.2430  0.2264  0.3349
  106OSM   H14F10912   5.643   2.355   8.837 -2.1367 -0.1368  2.6402
  106OSM   H14G10913   5.577   2.507   8.754  0.1720 -0.2686 -2.6694
  106OSM   C15F10914   5.565   2.324   8.637  0.4099  0.0927 -0.0047
  106OSM   H15F10915   5.462   2.311   8.598  1.0009  1.8871 -2.4518
  106OSM   H15G10916   5.608   2.225   8.661  2.4765  1.1919  1.0801
  106OSM   C16F10917   5.641   2.390   8.524  0.2975  0.0594  0.1802
  106OSM   H16F10918   5.737   2.431   8.560 -0.8582  0.6177  2.8461
  106OSM   H16G10919   5.581   2.480   8.499  0.8360  1.2220  2.8032
  106OSM   C17F10920   5.674   2.282   8.413  0.0582 -0.4095 -0.0967
  106OSM   H17F10921   5.721   2.192   8.457  1.8902 -0.4360 -1.9384
  106OSM   H17G10922   5.752   2.329   8.348 -0.1501 -1.3706 -1.0664
  106OSM   C18F10923   5.556   2.234   8.329  0.3415 -0.3601 -0.3496
  106OSM   H18F10924   5.499   2.165   8.396  0.7795 -0.3607  0.0276
  106OSM   H18G10925   5.576   2.171   8.240  0.1036 -2.7876  1.2139
  106OSM   H18H10926   5.481   2.309   8.298  1.2982 -0.1793 -2.3976
  107OSM      N10927   6.603   6.428  11.254  0.2779 -0.2702 -0.4522
  107OSM    C1510928   6.728   6.377  11.322 -0.0453  0.2192  0.4023
  107OSM   H15A10929   6.768   6.297  11.263 -0.7406  0.9201 -1.0871
  107OSM   H15B10930   6.706   6.331  11.418 -1.2166 -0.1046  0.0040
  107OSM   H15C10931   6.799   6.455  11.345  3.2776 -1.7905 -2.2573
  107OSM    C1410932   6.501   6.322  11.239 -0.0867  0.5696  0.2873
  107OSM   H14A10933   6.509   6.257  11.325  1.1429  0.8259  0.3942
  107OSM   H14B10934   6.524   6.259  11.154  1.6540  1.1818  0.2667
  107OSM   H14C10935   6.402   6.363  11.233  0.8026  2.9092  0.3983
  107OSM    C1310936   6.534   6.512  11.351 -0.2433 -0.7530 -0.1228
  107OSM   H13A10937   6.587   6.599  11.384  2.4590 -2.2735 -0.1734
  107OSM   H13B10938   6.496   6.463  11.439 -0.3477 -2.8203 -1.2270
  107OSM   H13C10939   6.454   6.555  11.292  1.8302 -2.1695 -4.4260
  107OSM    C1210940   6.635   6.487  11.129  0.9353 -0.0338  0.1313
  107OSM   H12A10941   6.540   6.478  11.078  0.6013 -0.4877  0.8110
  107OSM   H12B10942   6.692   6.425  11.061 -0.7470 -0.4698 -0.9579
  107OSM    C1110943   6.689   6.628  11.122 -0.5749  0.5196 -0.0947
  107OSM   H11A10944   6.605   6.696  11.147 -0.5673  0.2903  0.6029
  107OSM   H11B10945   6.720   6.651  11.018  0.6603  3.5775  0.8455
  107OSM      P10946   6.856   6.798  11.226 -0.0880 -0.1248 -0.0690
  107OSM    O1310947   6.745   6.871  11.291 -0.4419 -0.8732  0.0571
  107OSM    O1410948   6.984   6.784  11.298 -0.4159 -0.0022  0.8639
  107OSM    O1110949   6.875   6.853  11.076 -0.7046  0.0929  0.0844
  107OSM    O1210950   6.805   6.651  11.206 -0.2662 -0.1839 -0.0839
  107OSM    C1S10951   6.966   6.787  10.982 -0.4837  0.3219 -0.1650
  107OSM    H1S10952   6.975   6.677  10.996  2.2223  0.5907  0.6267
  107OSM    H1T10953   7.066   6.830  11.001 -0.3842 -0.6714  1.7332
  107OSM     NF10954   7.017   6.769  10.743  0.0792  0.4458 -0.0606
  107OSM    HNF10955   7.091   6.829  10.714  1.2145 -0.1874  1.4061
  107OSM    C2S10956   6.920   6.818  10.835  0.4121 -0.2244 -0.7574
  107OSM    H2S10957   6.830   6.756  10.814 -0.2479 -0.5586  2.4635
  107OSM    C3S10958   6.907   6.966  10.822 -0.1497 -0.2894 -0.6641
  107OSM    H3S10959   7.001   7.013  10.856 -0.1777  1.3300 -2.6952
  107OSM     O310960   6.805   7.025  10.903 -0.3010  0.2005 -0.1238
  107OSM    HO310961   6.814   6.962  10.975 -1.1803 -0.3673 -0.4980
  107OSM    C4S10962   6.879   7.008  10.682 -0.0169 -0.0925  0.3434
  107OSM    H4S10963   6.795   6.951  10.640  1.0120 -1.6356  0.3225
  107OSM    C5S10964   6.956   7.078  10.591 -1.1907 -0.1585  0.2640
  107OSM    H5S10965   7.054   7.104  10.636 -1.3449  0.3811  0.2987
  107OSM    C6S10966   6.924   7.117  10.446  0.3967  0.0775 -0.1393
  107OSM    H6S10967   6.949   7.220  10.414 -0.3821 -0.4102 -2.5202
  107OSM    H6T10968   6.813   7.116  10.447  0.3618  1.7165 -0.4343
  107OSM    C7S10969   6.986   7.021  10.341  0.4661  0.2271 -0.4182
  107OSM    H7S10970   6.942   6.920  10.354  0.7466  0.2482  0.7721
  107OSM    H7T10971   7.097   7.021  10.335  0.5831  0.0772  1.2567
  107OSM    C8S10972   6.938   7.062  10.204 -0.0600  0.1363 -0.1303
  107OSM    H8S10973   6.941   7.171  10.184  2.1446 -0.1352 -1.7282
  107OSM    H8T10974   6.834   7.025  10.206 -0.5895  1.5816  1.8204
  107OSM    C9S10975   7.019   6.997  10.095 -0.1351 -0.4294 -0.3508
  107OSM    H9S10976   7.035   6.888  10.110  1.3374 -0.7156 -3.2896
  107OSM    H9T10977   7.123   7.037  10.096  0.7072 -2.4873  0.6768
  107OSM   C10S10978   6.954   7.012   9.956  0.3283  0.2377 -0.6210
  107OSM   H10S10979   6.949   7.120   9.932  3.1992  0.6598  0.2138
  107OSM   H10T10980   6.852   6.970   9.946  0.7929 -0.4092 -3.7250
  107OSM   C11S10981   7.027   6.934   9.844 -0.0388 -0.5710 -0.1783
  107OSM   H11S10982   7.058   6.835   9.885 -1.5499 -1.0642 -0.1763
  107OSM   H11T10983   7.118   6.992   9.817  1.1368 -1.6574  1.2750
  107OSM   C12S10984   6.950   6.910   9.713 -0.1352  0.6677 -1.2315
  107OSM   H12S10985   6.892   7.000   9.688  0.0339  1.3216  0.5940
  107OSM   H12T10986   6.877   6.827   9.720  2.7674 -2.0626 -0.7522
  107OSM   C13S10987   7.039   6.877   9.596 -0.5657  0.9628  0.0784
  107OSM   H13S10988   7.030   6.772   9.562  0.4866  0.7366  0.4649
  107OSM   H13T10989   7.145   6.879   9.629  0.1234  1.1539 -2.0287
  107OSM   C14S10990   7.018   6.970   9.474  0.4001  0.2888  0.1937
  107OSM   H14S10991   6.912   6.962   9.442  0.5843  1.0072 -0.6304
  107OSM   H14T10992   7.080   6.930   9.390 -1.1700  1.8545 -1.8020
  107OSM   C15S10993   7.047   7.122   9.498 -0.0776  0.0854 -0.3848
  107OSM   H15S10994   7.156   7.128   9.516 -0.0021  0.5563 -0.9847
  107OSM   H15T10995   7.006   7.152   9.596  2.1265  0.5745  0.4361
  107OSM   C16S10996   7.015   7.216   9.377  0.0238  0.2106 -0.8036
  107OSM   H16S10997   6.914   7.190   9.337  0.0219 -3.7054  1.1931
  107OSM   H16T10998   7.098   7.186   9.310 -0.1003 -1.3772 -0.3004
  107OSM   C17S10999   7.043   7.362   9.410 -0.3288  0.1199  0.0511
  107OSM   H17S11000   6.968   7.405   9.480  3.3898  2.6194  2.9300
  107OSM   H17T11001   7.021   7.423   9.321  1.2791  0.7552  0.0403
  107OSM   C18S11002   7.184   7.392   9.458  0.0896 -0.7860  0.1843
  107OSM   H18S11003   7.207   7.499   9.440  1.5062 -0.8409  1.4485
  107OSM   H18T11004   7.260   7.330   9.405  1.5659  1.1211 -0.0445
  107OSM   H18U11005   7.194   7.364   9.565 -0.2108  0.7695  0.6381
  107OSM    C1F11006   7.026   6.638  10.720 -0.5863  0.4264 -0.4494
  107OSM     OF11007   6.931   6.561  10.740  0.7894 -0.3257  0.4435
  107OSM    C2F11008   7.158   6.587  10.670 -0.1873  0.5565 -0.3252
  107OSM    H2F11009   7.222   6.551  10.753  1.0320  1.0011 -1.0399
  107OSM    H2G11010   7.201   6.680  10.625 -0.9175  0.0277 -2.2117
  107OSM    C3F11011   7.152   6.482  10.560  0.0115  0.3787 -0.0643
  107OSM    H3F11012   7.081   6.398  10.580  2.0767 -1.4815 -0.1587
  107OSM    H3G11013   7.253   6.437  10.555 -0.4513 -0.6343 -0.7161
  107OSM    C4F11014   7.099   6.532  10.419 -0.7216  0.4024  0.2877
  107OSM    H4F11015   7.175   6.597  10.370 -1.5207 -0.1635 -1.8080
  107OSM    H4G11016   7.003   6.587  10.434 -2.2514 -2.0456 -0.0824
  107OSM    C5F11017   7.078   6.415  10.328 -0.2252  0.7071 -0.1278
  107OSM    H5F11018   7.011   6.351  10.389  2.0898 -0.3435  1.4475
  107OSM    H5G11019   7.174   6.360  10.322 -0.4854  0.1552  0.6628
  107OSM    C6F11020   7.021   6.435  10.190  0.5017 -0.5035 -0.2064
  107OSM    H6F11021   7.090   6.494  10.125 -0.2967  2.7700  1.7046
  107OSM    H6G11022   6.934   6.500  10.214  2.0030  1.2226  0.7787
  107OSM    C7F11023   6.968   6.311  10.111 -0.9796 -0.2442 -0.0189
  107OSM    H7F11024   6.935   6.346  10.011  1.8980 -0.0261 -0.9755
  107OSM    H7G11025   6.872   6.289  10.164 -2.7470  0.7038 -2.6388
  107OSM    C8F11026   7.065   6.188  10.093  0.1910 -0.0926  0.0717
  107OSM    H8F11027   7.068   6.134  10.190 -1.0118 -0.3823 -0.0350
  107OSM    H8G11028   7.163   6.235  10.073  0.5783 -1.4226 -1.3291
  107OSM    C9F11029   7.019   6.097   9.981 -0.1723  0.1484 -0.2788
  107OSM    H9F11030   6.945   6.021  10.010 -0.0127  0.3301  0.6157
  107OSM   C10F11031   7.047   6.114   9.850  0.5280 -0.3678 -0.8472
  107OSM   H10F11032   7.018   6.042   9.772  1.0250 -1.5255  0.0034
  107OSM   C11F11033   7.130   6.224   9.801 -0.5908 -1.6543 -0.0337
  107OSM   H11F11034   7.213   6.177   9.745 -0.9201 -1.8914 -0.3244
  107OSM   H11G11035   7.178   6.274   9.888 -2.4710  0.7400 -0.2449
  107OSM   C12F11036   7.060   6.332   9.716  0.5864  0.3269 -0.1524
  107OSM   H12F11037   6.973   6.361   9.778  1.3091 -1.0753  1.6083
  107OSM   H12G11038   7.032   6.291   9.616  1.5451  1.9994 -1.1672
  107OSM   C13F11039   7.133   6.464   9.692 -0.0057 -0.7982  0.3367
  107OSM   H13F11040   7.164   6.513   9.786 -0.9823 -0.9101  0.7264
  107OSM   H13G11041   7.064   6.531   9.637  1.5799 -0.6785 -1.6374
  107OSM   C14F11042   7.263   6.452   9.596  0.3612  0.4549 -0.0709
  107OSM   H14F11043   7.327   6.369   9.634 -2.2365 -1.2940  0.7794
  107OSM   H14G11044   7.325   6.544   9.595 -0.5436  1.0918 -2.1073
  107OSM   C15F11045   7.222   6.425   9.454  1.5052  0.2516  0.2569
  107OSM   H15F11046   7.154   6.340   9.434  0.9467  1.3362 -3.2341
  107OSM   H15G11047   7.315   6.422   9.393  1.3655 -0.4411  0.0725
  107OSM   C16F11048   7.141   6.543   9.384  0.2814 -0.2741 -0.1335
  107OSM   H16F11049   7.188   6.637   9.421  1.2510 -1.3134  1.3862
  107OSM   H16G11050   7.034   6.562   9.407  0.0061 -1.5813 -0.2608
  107OSM   C17F11051   7.143   6.547   9.235 -0.7827 -0.0013  0.5305
  107OSM   H17F11052   7.115   6.452   9.185 -0.7760  0.4857 -0.4277
  107OSM   H17G11053   7.253   6.550   9.216 -0.5813  0.0097  1.6476
  107OSM   C18F11054   7.059   6.663   9.172  0.7588 -0.0606 -0.1071
  107OSM   H18F11055   7.079   6.670   9.063 -1.6984  1.2529 -0.5477
  107OSM   H18G11056   7.083   6.760   9.221 -1.8909  0.2251  0.7751
  107OSM   H18H11057   6.950   6.651   9.188  0.8914 -2.0084 -0.4565
  108OSM      N11058   3.340   5.097  11.229 -0.3414 -0.5075  0.3350
  108OSM    C1511059   3.336   5.002  11.347 -0.0101  0.4616 -0.3759
  108OSM   H15A11060   3.413   4.927  11.331  1.7850  2.3542 -1.0432
  108OSM   H15B11061   3.239   4.955  11.349 -0.4453  1.3748  0.9364
  108OSM   H15C11062   3.356   5.055  11.438  0.0395 -1.6729  0.9360
  108OSM    C1411063   3.229   5.192  11.247 -0.8324  0.2259 -0.7792
  108OSM   H14A11064   3.210   5.245  11.155  0.4520  0.2418 -1.0580
  108OSM   H14B11065   3.256   5.260  11.326  1.6037 -1.4325 -0.0519
  108OSM   H14C11066   3.147   5.129  11.279  0.4487 -0.6917  0.8189
  108OSM    C1311067   3.466   5.173  11.228 -0.2890  0.1586 -0.1992
  108OSM   H13A11068   3.485   5.221  11.134 -2.2473 -2.3072 -1.9847
  108OSM   H13B11069   3.548   5.108  11.257  0.9719  1.8497  0.1790
  108OSM   H13C11070   3.452   5.253  11.299 -1.3038 -1.1078  1.0871
  108OSM    C1211071   3.326   5.018  11.096 -0.3754 -0.2845  0.0811
  108OSM   H12A11072   3.401   4.940  11.090 -0.6004 -0.6569  1.7053
  108OSM   H12B11073   3.347   5.082  11.012 -0.1168  0.5891  0.7922
  108OSM    C1111074   3.199   4.941  11.080  0.5075  0.3995  0.0810
  108OSM   H11A11075   3.195   4.911  10.973  0.1118 -0.6963  0.3919
  108OSM   H11B11076   3.108   5.000  11.103 -0.3286 -0.7047 -0.2526
  108OSM      P11077   3.259   4.687  11.095 -0.4884 -0.2367 -0.0477
  108OSM    O1311078   3.400   4.721  11.091  0.4550  0.2240 -0.4396
  108OSM    O1411079   3.226   4.567  11.167  0.0401  0.4504 -0.1591
  108OSM    O1111080   3.206   4.671  10.946  0.1434  0.3585 -0.2211
  108OSM    O1211081   3.194   4.820  11.158 -0.6829  0.1537 -0.1291
  108OSM    C1S11082   3.059   4.684  10.941  0.2552  0.1376  0.5382
  108OSM    H1S11083   3.028   4.791  10.946  0.3534  0.3203 -1.5946
  108OSM    H1T11084   3.014   4.612  11.012 -2.2657  0.8056 -0.2735
  108OSM     NF11085   2.857   4.669  10.792 -0.3351  0.1703 -1.2572
  108OSM    HNF11086   2.788   4.606  10.828 -1.0113  1.9895  0.8055
  108OSM    C2S11087   3.000   4.633  10.803 -0.2608  0.3651  0.4175
  108OSM    H2S11088   3.056   4.690  10.726  1.4879 -2.1258 -0.3017
  108OSM    C3S11089   3.034   4.480  10.782  0.2259 -0.5970 -0.6172
  108OSM    H3S11090   2.985   4.424  10.865  0.6982  1.6556  1.3067
  108OSM     O311091   3.172   4.446  10.794  0.0880  0.5496  0.0069
  108OSM    HO311092   3.217   4.526  10.823  0.5014  0.8076 -1.2660
  108OSM    C4S11093   2.993   4.448  10.644  0.2644  0.1573 -0.5976
  108OSM    H4S11094   3.047   4.507  10.568 -2.3774  0.0869 -2.6811
  108OSM    C5S11095   2.899   4.363  10.608 -0.2657  0.1731  0.3215
  108OSM    H5S11096   2.830   4.330  10.687 -1.6756  1.3129 -0.3820
  108OSM    C6S11097   2.853   4.343  10.463  0.3993 -0.7187 -0.4189
  108OSM    H6S11098   2.850   4.235  10.438 -0.4540 -0.9450  0.5962
  108OSM    H6T11099   2.936   4.369  10.394 -0.1560 -2.5693 -1.8644
  108OSM    C7S11100   2.730   4.430  10.424 -0.2132  0.2389 -0.4210
  108OSM    H7S11101   2.734   4.532  10.467 -0.8455 -0.3725  1.1571
  108OSM    H7T11102   2.639   4.381  10.463  1.9611 -2.6020  1.5062
  108OSM    C8S11103   2.716   4.450  10.268 -0.8572 -0.2989  0.2275
  108OSM    H8S11104   2.789   4.526  10.235 -0.5521 -0.7319 -0.1190
  108OSM    H8T11105   2.618   4.493  10.241 -0.3236 -0.1993 -1.7391
  108OSM    C9S11106   2.730   4.326  10.178 -0.4313 -0.4064  0.0755
  108OSM    H9S11107   2.659   4.251  10.221 -0.3471 -0.5683 -0.0672
  108OSM    H9T11108   2.831   4.279  10.186 -1.0991 -1.9174  0.0501
  108OSM   C10S11109   2.707   4.360  10.024  0.6249 -0.0648 -0.1201
  108OSM   H10S11110   2.784   4.433   9.992  2.7702 -2.3937 -0.6585
  108OSM   H10T11111   2.608   4.408  10.008  1.3557  1.8521  0.8527
  108OSM   C11S11112   2.714   4.240   9.932 -0.1451  0.3196  0.5686
  108OSM   H11S11113   2.634   4.166   9.951  0.2934 -0.0150  1.1802
  108OSM   H11T11114   2.809   4.185   9.950 -0.8127 -1.4405 -1.0491
  108OSM   C12S11115   2.718   4.297   9.789 -0.1280  0.8183  0.3482
  108OSM   H12S11116   2.815   4.351   9.783  0.1539  0.3403  0.5749
  108OSM   H12T11117   2.635   4.371   9.777 -0.5704  0.1251 -1.0584
  108OSM   C13S11118   2.716   4.191   9.674 -0.8433 -0.6264  0.0421
  108OSM   H13S11119   2.629   4.124   9.690  0.1642 -1.5690  1.9426
  108OSM   H13T11120   2.811   4.134   9.674 -0.7139 -0.4180 -0.5876
  108OSM   C14S11121   2.719   4.268   9.531  0.6754  0.1077  0.2686
  108OSM   H14S11122   2.810   4.332   9.535  1.5175 -1.1310  1.5167
  108OSM   H14T11123   2.634   4.338   9.516  1.2200  0.5244 -1.0335
  108OSM   C15S11124   2.726   4.170   9.405 -0.3841  0.6445  0.3450
  108OSM   H15S11125   2.646   4.093   9.398 -0.6755  1.1052 -3.5266
  108OSM   H15T11126   2.826   4.122   9.393 -1.4084 -1.1057 -1.7457
  108OSM   C16S11127   2.705   4.236   9.274 -0.2185 -0.1842 -0.2404
  108OSM   H16S11128   2.799   4.294   9.259 -0.4949  0.5300  0.6795
  108OSM   H16T11129   2.619   4.305   9.282 -1.0647 -1.1629 -0.7706
  108OSM   C17S11130   2.674   4.150   9.152  0.1879 -0.5808 -0.6798
  108OSM   H17S11131   2.606   4.208   9.087 -0.7276  0.5288  1.1848
  108OSM   H17T11132   2.615   4.062   9.184  3.2511 -2.5455  0.0726
  108OSM   C18S11133   2.797   4.094   9.091 -0.3523  0.7688  0.1982
  108OSM   H18S11134   2.760   4.028   9.010  0.0607  0.8792 -0.0835
  108OSM   H18T11135   2.856   4.035   9.165 -2.5118 -1.8654 -0.0459
  108OSM   H18U11136   2.859   4.171   9.040  0.0073  1.6012  1.8051
  108OSM    C1F11137   2.828   4.797  10.759 -0.2042  0.7770  0.2009
  108OSM     OF11138   2.918   4.879  10.744  0.4661  0.5654  0.3006
  108OSM    C2F11139   2.685   4.826  10.731  0.3383 -0.0827 -0.4066
  108OSM    H2F11140   2.636   4.883  10.813  0.3610 -0.3659 -0.1930
  108OSM    H2G11141   2.626   4.731  10.726 -0.0272  0.1593 -0.7144
  108OSM    C3F11142   2.674   4.907  10.599 -0.0998  0.0624 -0.3614
  108OSM    H3F11143   2.721   5.007  10.614  1.6970 -0.5642 -1.6068
  108OSM    H3G11144   2.567   4.935  10.583 -0.7887 -1.6143  1.0304
  108OSM    C4F11145   2.718   4.830  10.480 -0.5230 -0.1072 -0.1578
  108OSM    H4F11146   2.656   4.738  10.483  0.2045 -0.5732  1.2146
  108OSM    H4G11147   2.823   4.794  10.485  0.0329  1.0048 -2.4033
  108OSM    C5F11148   2.709   4.910  10.351 -0.3721 -0.1723 -0.3823
  108OSM    H5F11149   2.789   4.986  10.350  1.0381 -1.5667  0.9755
  108OSM    H5G11150   2.615   4.970  10.350  0.8909  2.0918  2.5649
  108OSM    C6F11151   2.729   4.824  10.223  0.1161  0.2228  0.5721
  108OSM    H6F11152   2.641   4.758  10.203  0.5589 -0.9063  2.1947
  108OSM    H6G11153   2.814   4.755  10.240  1.9346  2.0933 -0.5545
  108OSM    C7F11154   2.744   4.894  10.086  0.3047  0.6566  0.4257
  108OSM    H7F11155   2.820   4.973  10.106  1.1973  0.5602 -2.2723
  108OSM    H7G11156   2.649   4.950  10.070 -1.0934 -1.8859 -0.6598
  108OSM    C8F11157   2.801   4.812   9.972  0.0954 -0.0254  0.2036
  108OSM    H8F11158   2.884   4.748  10.010  1.0689  1.3471  0.4432
  108OSM    H8G11159   2.852   4.874   9.896  0.1909 -0.7942 -0.3739
  108OSM    C9F11160   2.697   4.717   9.910 -0.2223 -0.1186 -0.0468
  108OSM    H9F11161   2.661   4.631   9.968  2.5167 -0.1523  1.8066
  108OSM   C10F11162   2.657   4.726   9.784  0.6088  0.0033  0.0139
  108OSM   H10F11163   2.580   4.655   9.751  0.6574  0.2794 -0.7311
  108OSM   C11F11164   2.688   4.821   9.674 -1.3622 -0.1219 -0.7819
  108OSM   H11F11165   2.798   4.836   9.675 -1.3119 -0.4539  0.5440
  108OSM   H11G11166   2.640   4.919   9.696 -2.6577 -1.0802  0.8432
  108OSM   C12F11167   2.654   4.762   9.537  0.0974  0.3822 -0.2772
  108OSM   H12F11168   2.545   4.742   9.547 -0.0625  0.2403 -2.0811
  108OSM   H12G11169   2.709   4.666   9.541 -0.4149 -0.0152 -2.0377
  108OSM   C13F11170   2.694   4.846   9.415  0.4457  0.0506  0.1241
  108OSM   H13F11171   2.796   4.882   9.438  0.6281 -0.8568  0.7671
  108OSM   H13G11172   2.631   4.936   9.397 -0.9903 -0.5741  1.6864
  108OSM   C14F11173   2.696   4.751   9.295  0.1683 -0.3664  0.7256
  108OSM   H14F11174   2.596   4.750   9.248 -1.2467 -1.5009  3.5373
  108OSM   H14G11175   2.735   4.650   9.319  3.0064  0.5223  0.2981
  108OSM   C15F11176   2.785   4.811   9.181 -0.6550  0.4532  0.0840
  108OSM   H15F11177   2.892   4.823   9.212 -0.5650  0.4743 -0.2343
  108OSM   H15G11178   2.747   4.914   9.167  0.6570  1.0611  0.7802
  108OSM   C16F11179   2.785   4.726   9.062 -0.6639  0.0692 -0.1676
  108OSM   H16F11180   2.684   4.703   9.021 -0.2129 -0.7327 -0.8504
  108OSM   H16G11181   2.834   4.629   9.080 -0.3217 -0.0420 -1.5613
  108OSM   C17F11182   2.867   4.794   8.949  0.2001 -0.5023  0.4656
  108OSM   H17F11183   2.871   4.732   8.857 -0.5483  1.9367 -1.3309
  108OSM   H17G11184   2.975   4.810   8.973  0.2063 -0.5962  0.5011
  108OSM   C18F11185   2.790   4.913   8.896  0.2022 -0.7307  0.6671
  108OSM   H18F11186   2.698   4.892   8.837  1.5093 -1.0372 -1.3504
  108OSM   H18G11187   2.854   4.962   8.820 -0.6807  1.1144  1.0569
  108OSM   H18H11188   2.753   4.987   8.971 -3.2531 -1.5592 -0.0409
  109OSM      N11189   2.110   0.856  10.974  0.1459 -0.0869  0.1338
  109OSM    C1511190   1.992   0.779  11.018 -0.0726  0.5762 -0.1655
  109OSM   H15A11191   1.898   0.821  10.984 -0.6189 -0.8490 -0.4791
  109OSM   H15B11192   1.985   0.782  11.126 -1.4273 -1.4884 -0.1306
  109OSM   H15C11193   1.994   0.673  10.997 -0.1236 -0.0415  2.5277
  109OSM    C1411194   2.110   1.007  11.007  0.0047  1.2590  0.4932
  109OSM   H14A11195   2.022   1.056  10.967 -0.0000  0.1903 -0.8704
  109OSM   H14B11196   2.194   1.045  10.949 -0.4374 -0.9214 -1.7428
  109OSM   H14C11197   2.119   1.027  11.113  0.1900  0.6262  0.6007
  109OSM    C1311198   2.235   0.790  11.039  0.2853  0.2879  0.3479
  109OSM   H13A11199   2.227   0.685  11.017  1.2600  0.3599 -0.3958
  109OSM   H13B11200   2.241   0.796  11.147 -0.3781  0.1496  0.3948
  109OSM   H13C11201   2.322   0.826  10.986 -0.9599  0.0370 -1.9999
  109OSM    C1211202   2.121   0.842  10.820  0.3621 -0.7491 -0.8901
  109OSM   H12A11203   2.024   0.824  10.776 -0.0413  0.9174 -0.7600
  109OSM   H12B11204   2.172   0.749  10.799 -0.0637 -1.0801 -0.4679
  109OSM    C1111205   2.186   0.962  10.737  0.5747  0.3060 -0.6728
  109OSM   H11A11206   2.109   1.042  10.738  0.4627  0.2048  1.1912
  109OSM   H11B11207   2.196   0.927  10.632  0.4756  1.8824 -1.2421
  109OSM      P11208   2.451   0.942  10.760  0.2439 -0.5853 -0.5637
  109OSM    O1311209   2.527   1.057  10.712  1.0147  0.7171  0.6405
  109OSM    O1411210   2.507   0.868  10.880 -0.3214 -0.5732  0.0945
  109OSM    O1111211   2.427   0.842  10.643 -0.8694  0.0587  0.3652
  109OSM    O1211212   2.309   1.015  10.797 -0.3259 -0.1049  0.4093
  109OSM    C1S11213   2.539   0.779  10.583  0.2657 -0.0486  0.1072
  109OSM    H1S11214   2.546   0.675  10.622  0.8109  0.1353  0.5182
  109OSM    H1T11215   2.635   0.826  10.612  0.5564 -0.3991 -0.2710
  109OSM     NF11216   2.682   0.751  10.380  0.5100  0.1745  0.1094
  109OSM    HNF11217   2.745   0.817  10.341  0.5270  0.7204  1.0332
  109OSM    C2S11218   2.547   0.782  10.421  0.1115  0.0878  0.1474
  109OSM    H2S11219   2.472   0.704  10.397 -0.4083 -0.3524  2.8530
  109OSM    C3S11220   2.510   0.920  10.360 -0.2412 -0.2559 -0.2071
  109OSM    H3S11221   2.585   0.997  10.388 -2.0766  2.0812 -1.3383
  109OSM     O311222   2.381   0.970  10.409  0.4581 -0.3790 -0.7276
  109OSM    HO311223   2.363   0.905  10.478  0.4724 -0.5498 -0.8842
  109OSM    C4S11224   2.515   0.912  10.210 -0.0055  0.1797  0.0959
  109OSM    H4S11225   2.611   0.946  10.170  1.1156 -1.5287  1.1776
  109OSM    C5S11226   2.423   0.841  10.146  0.4124  0.0820 -0.1368
  109OSM    H5S11227   2.342   0.797  10.206 -0.0682 -1.5167 -1.8522
  109OSM    C6S11228   2.391   0.802  10.003  0.4548  0.1096  0.0143
  109OSM    H6S11229   2.325   0.883   9.967  1.7306  0.8311 -0.7459
  109OSM    H6T11230   2.318   0.719   9.995  0.8382 -0.2965  0.5708
  109OSM    C7S11231   2.510   0.792   9.911 -0.0323 -0.1103  0.4428
  109OSM    H7S11232   2.569   0.711   9.959 -0.7011 -1.0961 -0.3684
  109OSM    H7T11233   2.583   0.876   9.919  1.3230 -1.1798 -0.1530
  109OSM    C8S11234   2.466   0.762   9.763 -0.6653  0.0597  0.0655
  109OSM    H8S11235   2.413   0.855   9.735 -0.1505  0.5715  0.7517
  109OSM    H8T11236   2.399   0.673   9.765  0.3083 -0.6747  1.4200
  109OSM    C9S11237   2.585   0.758   9.666  0.1994  0.4148  0.0934
  109OSM    H9S11238   2.636   0.663   9.693 -0.2074  0.1062 -0.2057
  109OSM    H9T11239   2.652   0.845   9.683  0.0404  0.4259  0.6750
  109OSM   C10S11240   2.546   0.751   9.514  0.1406  0.6136  0.3276
  109OSM   H10S11241   2.489   0.658   9.492 -0.2151  1.6674 -4.2310
  109OSM   H10T11242   2.641   0.748   9.456  0.2953  1.1922  0.5468
  109OSM   C11S11243   2.449   0.856   9.457  0.8202 -0.1968  0.2784
  109OSM   H11S11244   2.483   0.952   9.500  1.6102 -1.2955  2.1927
  109OSM   H11T11245   2.359   0.845   9.520 -0.5223  0.1754 -1.4760
  109OSM   C12S11246   2.416   0.846   9.303 -0.3599  0.4690  0.1008
  109OSM   H12S11247   2.514   0.861   9.253  0.7243 -0.8968  1.7011
  109OSM   H12T11248   2.343   0.927   9.283  0.0862  0.8501  0.0077
  109OSM   C13S11249   2.360   0.711   9.256 -0.8045  0.0825 -0.3102
  109OSM   H13S11250   2.262   0.698   9.308  0.2733 -0.1484  1.7802
  109OSM   H13T11251   2.420   0.633   9.306 -2.2953  0.0365  1.5296
  109OSM   C14S11252   2.348   0.687   9.101  1.1484  0.9174 -0.2941
  109OSM   H14S11253   2.447   0.659   9.059  0.7100 -0.1806 -0.6171
  109OSM   H14T11254   2.312   0.779   9.051  0.5114  1.4236  1.0515
  109OSM   C15S11255   2.248   0.575   9.060 -0.1365  0.4084 -0.0415
  109OSM   H15S11256   2.153   0.593   9.115 -0.1253  1.6363 -0.3832
  109OSM   H15T11257   2.293   0.486   9.108  1.2892  0.8665 -0.4572
  109OSM   C16S11258   2.224   0.545   8.910  0.0928  0.2752 -0.0780
  109OSM   H16S11259   2.169   0.448   8.907 -0.3471  0.5165  0.1049
  109OSM   H16T11260   2.327   0.529   8.872  0.2798 -0.4480  0.7163
  109OSM   C17S11261   2.166   0.654   8.822 -0.3940 -0.5368  0.7093
  109OSM   H17S11262   2.187   0.632   8.715  1.1261  1.9289  0.4234
  109OSM   H17T11263   2.236   0.740   8.834 -0.1539 -0.9365  2.4992
  109OSM   C18S11264   2.012   0.686   8.832 -0.7051 -0.1236  0.3050
  109OSM   H18S11265   1.962   0.587   8.826 -0.1316 -0.3431 -1.6264
  109OSM   H18T11266   1.979   0.747   8.746 -0.8431  1.9680  1.7801
  109OSM   H18U11267   1.984   0.749   8.918 -0.0914 -0.4180  0.7276
  109OSM    C1F11268   2.727   0.625  10.382 -0.2577  0.4693 -0.2495
  109OSM     OF11269   2.652   0.538  10.424  0.2624 -0.2150 -0.7138
  109OSM    C2F11270   2.874   0.599  10.351  0.4363  0.5489 -0.0033
  109OSM    H2F11271   2.919   0.534  10.429  0.7891 -1.8206 -2.0352
  109OSM    H2G11272   2.937   0.690  10.342  0.2676  0.8889  1.7938
  109OSM    C3F11273   2.874   0.509  10.225  1.0538 -0.3950 -0.4697
  109OSM    H3F11274   2.802   0.424  10.233  1.1025 -0.3156  0.9942
  109OSM    H3G11275   2.976   0.474  10.197  1.2287  1.0105 -1.7150
  109OSM    C4F11276   2.823   0.589  10.102 -0.1002  0.2806 -0.2078
  109OSM    H4F11277   2.871   0.689  10.097  1.4060 -0.3528  0.8267
  109OSM    H4G11278   2.716   0.616  10.112 -0.1313  0.4603 -0.9408
  109OSM    C5F11279   2.825   0.512   9.968 -0.1954  0.0658  0.4042
  109OSM    H5F11280   2.924   0.462   9.968  0.1697  0.7761 -0.3789
  109OSM    H5G11281   2.835   0.594   9.894  1.0117  0.7301  1.2812
  109OSM    C6F11282   2.693   0.429   9.952 -0.3387 -0.1923 -0.2232
  109OSM    H6F11283   2.608   0.489   9.915 -0.1658 -1.1724 -2.3580
  109OSM    H6G11284   2.671   0.389  10.054 -0.1415  0.2999  0.0191
  109OSM    C7F11285   2.705   0.319   9.853  0.0569 -1.3379  0.0548
  109OSM    H7F11286   2.604   0.282   9.825 -0.6066 -0.2014  0.8771
  109OSM    H7G11287   2.772   0.236   9.883  2.1291 -0.0819 -0.8368
  109OSM    C8F11288   2.768   0.370   9.726  0.3447  0.7075  0.5432
  109OSM    H8F11289   2.867   0.415   9.749 -0.4449  3.1819 -0.5313
  109OSM    H8G11290   2.729   0.469   9.692  1.5417  0.4709 -1.7438
  109OSM    C9F11291   2.786   0.272   9.619  0.4215 -0.1274  0.0933
  109OSM    H9F11292   2.874   0.206   9.624  0.8434  0.4161 -0.0608
  109OSM   C10F11293   2.694   0.252   9.524  0.0716 -0.0899  0.4130
  109OSM   H10F11294   2.722   0.174   9.451  0.6498  0.3573  0.1453
  109OSM   C11F11295   2.562   0.326   9.498 -0.7041  0.8574 -0.5307
  109OSM   H11F11296   2.540   0.408   9.569  0.4148  0.5059  0.2495
  109OSM   H11G11297   2.486   0.254   9.532  0.7747 -0.1433  0.8084
  109OSM   C12F11298   2.534   0.375   9.359  0.6932 -0.1096 -0.0744
  109OSM   H12F11299   2.582   0.475   9.350 -2.5492  1.9447  2.9185
  109OSM   H12G11300   2.429   0.401   9.336  1.3181  0.9457 -1.9290
  109OSM   C13F11301   2.558   0.278   9.245 -0.6254 -0.1537  0.0290
  109OSM   H13F11302   2.476   0.204   9.252 -0.3704 -0.3660  0.8622
  109OSM   H13G11303   2.656   0.228   9.263  0.2798  1.8228  0.9268
  109OSM   C14F11304   2.548   0.347   9.114  0.6911 -0.2627 -0.0765
  109OSM   H14F11305   2.591   0.449   9.109  1.6927 -0.6376  0.4847
  109OSM   H14G11306   2.443   0.356   9.078  1.0178 -1.4933 -1.3938
  109OSM   C15F11307   2.617   0.266   8.999 -0.1757 -0.6385  0.3938
  109OSM   H15F11308   2.583   0.160   8.994  0.4294 -0.7837 -1.1110
  109OSM   H15G11309   2.727   0.270   9.012 -0.3405  2.3743  1.7554
  109OSM   C16F11310   2.589   0.329   8.859 -0.4457 -0.1910 -0.1921
  109OSM   H16F11311   2.665   0.411   8.863  1.9062 -2.2926  2.7356
  109OSM   H16G11312   2.487   0.369   8.844 -0.1329  0.7269  0.0148
  109OSM   C17F11313   2.634   0.242   8.738  0.4774 -0.2712  0.5622
  109OSM   H17F11314   2.586   0.145   8.763 -2.0834  0.4150 -1.2673
  109OSM   H17G11315   2.744   0.243   8.727  0.4444  1.2258  0.0552
  109OSM   C18F11316   2.584   0.279   8.596  0.3145 -0.0754  0.6230
  109OSM   H18F11317   2.590   0.195   8.523 -0.9959 -0.1301  0.5599
  109OSM   H18G11318   2.649   0.355   8.548  2.3555 -2.9119 -1.4724
  109OSM   H18H11319   2.481   0.318   8.606  0.7416  0.9298  1.2502
  110OSM      N11320   3.920   4.825  11.179 -0.6662 -0.6095  0.2082
  110OSM    C1511321   3.814   4.887  11.257  0.2919 -0.8408 -0.1046
  110OSM   H15A11322   3.843   4.912  11.358  1.9737  0.4822 -0.8560
  110OSM   H15B11323   3.721   4.833  11.249 -0.2448 -0.2533  1.7967
  110OSM   H15C11324   3.786   4.982  11.212 -2.4040 -0.4043  2.1655
  110OSM    C1411325   4.057   4.888  11.201  0.1745  0.4745 -0.2581
  110OSM   H14A11326   4.129   4.841  11.135 -1.4124 -3.0594  0.2501
  110OSM   H14B11327   4.089   4.860  11.300  0.8502 -0.2572 -0.6655
  110OSM   H14C11328   4.063   4.993  11.178 -0.1380  1.1420  2.4258
  110OSM    C1311329   3.933   4.678  11.204  0.1296  0.2766  0.5982
  110OSM   H13A11330   4.001   4.633  11.133 -0.6546  0.5650 -0.3496
  110OSM   H13B11331   3.836   4.633  11.191 -0.1353  1.4100 -1.9411
  110OSM   H13C11332   3.968   4.649  11.303 -0.2691 -1.9471  0.1421
  110OSM    C1211333   3.888   4.841  11.027  0.3136  0.0701  0.6348
  110OSM   H12A11334   3.784   4.819  11.006  0.2926  0.7054  0.0219
  110OSM   H12B11335   3.939   4.764  10.971 -0.6786  1.1649 -1.9497
  110OSM    C1111336   3.908   4.980  10.954 -0.7023 -0.4567 -0.7262
  110OSM   H11A11337   3.881   4.955  10.849 -0.4915 -0.1782 -0.8468
  110OSM   H11B11338   4.010   5.023  10.960 -0.8311 -0.1790 -0.4767
  110OSM      P11339   3.699   5.147  10.928  0.3637 -0.0518 -0.1976
  110OSM    O1311340   3.599   5.042  10.904  0.7149  0.3801  0.2837
  110OSM    O1411341   3.660   5.266  11.007 -0.0506  0.0355 -0.1913
  110OSM    O1111342   3.759   5.194  10.796 -0.2671  0.5701  0.3290
  110OSM    O1211343   3.820   5.077  11.010 -0.9542 -0.0874  0.4591
  110OSM    C1S11344   3.683   5.289  10.718 -0.7547  0.7730 -0.6999
  110OSM    H1S11345   3.725   5.386  10.753  0.7879  0.2553 -1.0012
  110OSM    H1T11346   3.575   5.304  10.738 -0.0664  3.2509  1.7408
  110OSM     NF11347   3.644   5.387  10.498  0.2572  0.2300 -0.2341
  110OSM    HNF11348   3.565   5.365  10.441  0.5919  0.1828 -0.6838
  110OSM    C2S11349   3.713   5.282  10.565  0.3380  0.3669  0.1466
  110OSM    H2S11350   3.819   5.307  10.543 -0.1537  2.0498 -0.4425
  110OSM    C3S11351   3.671   5.144  10.517 -0.4202 -0.2317  0.9494
  110OSM    H3S11352   3.563   5.136  10.545 -1.0019 -1.3925 -1.3157
  110OSM     O311353   3.728   5.036  10.583 -0.4263 -0.1991  0.4452
  110OSM    HO311354   3.772   5.066  10.663  0.1036  0.2085  0.0130
  110OSM    C4S11355   3.696   5.131  10.369 -0.0159 -0.5090  0.6250
  110OSM    H4S11356   3.791   5.172  10.332 -1.0426  0.3065 -1.2138
  110OSM    C5S11357   3.603   5.083  10.284  0.6655  0.5986  0.7173
  110OSM    H5S11358   3.505   5.055  10.326 -0.6050  1.3264 -1.5725
  110OSM    C6S11359   3.608   5.068  10.136 -0.4549 -0.1577 -0.8794
  110OSM    H6S11360   3.706   5.097  10.092  0.1225 -2.1280 -0.9954
  110OSM    H6T11361   3.535   5.138  10.090 -0.5283 -0.0711 -0.6322
  110OSM    C7S11362   3.579   4.921  10.098 -0.0255  0.4689  0.0941
  110OSM    H7S11363   3.499   4.877  10.162  1.9526 -2.2354  0.8696
  110OSM    H7T11364   3.665   4.855  10.122  0.2305  1.3643  1.7419
  110OSM    C8S11365   3.560   4.884   9.951 -0.1649  0.3633  0.3063
  110OSM    H8S11366   3.462   4.914   9.909 -1.2209 -3.9280 -0.7848
  110OSM    H8T11367   3.559   4.773   9.942  2.0896  0.3301 -0.0413
  110OSM    C9S11368   3.661   4.943   9.853  0.2889 -0.7006 -0.5014
  110OSM    H9S11369   3.763   4.900   9.866 -0.1440 -1.8329 -0.7114
  110OSM    H9T11370   3.675   5.048   9.886  1.4508 -0.2479 -2.3335
  110OSM   C10S11371   3.621   4.957   9.699  0.0300 -0.5385 -0.7840
  110OSM   H10S11372   3.655   5.059   9.668 -2.4553  0.9880  1.1024
  110OSM   H10T11373   3.512   4.975   9.706  0.3136  1.3960 -0.6674
  110OSM   C11S11374   3.661   4.853   9.601 -0.4211  0.8714 -0.1955
  110OSM   H11S11375   3.612   4.758   9.631  2.4704 -0.8056 -0.4337
  110OSM   H11T11376   3.771   4.840   9.610 -0.5409 -0.4251 -0.4381
  110OSM   C12S11377   3.614   4.874   9.459  0.5782  0.2498  0.0015
  110OSM   H12S11378   3.625   4.779   9.401  1.6324  0.9384 -0.9819
  110OSM   H12T11379   3.671   4.955   9.408 -1.0674  1.3160 -0.2095
  110OSM   C13S11380   3.464   4.906   9.438  0.5110 -0.6966 -0.1992
  110OSM   H13S11381   3.429   5.004   9.476 -1.3658 -0.3675 -2.5010
  110OSM   H13T11382   3.410   4.823   9.489  0.3281 -0.2538  0.3296
  110OSM   C14S11383   3.431   4.899   9.283 -0.5965 -0.9750 -1.0001
  110OSM   H14S11384   3.448   4.801   9.234  1.4854  0.6407 -3.7855
  110OSM   H14T11385   3.507   4.969   9.243  0.8034 -1.5426  0.5795
  110OSM   C15S11386   3.285   4.949   9.272  1.0519 -0.4738 -0.2870
  110OSM   H15S11387   3.275   5.038   9.338  1.0987  1.2245 -2.4526
  110OSM   H15T11388   3.231   4.858   9.305  1.9396 -0.7187  0.5094
  110OSM   C16S11389   3.244   4.994   9.132 -0.6246 -0.1340  0.4692
  110OSM   H16S11390   3.300   5.089   9.114  2.2660 -1.5867  1.1521
  110OSM   H16T11391   3.135   5.014   9.133 -0.6872 -0.4746  1.4777
  110OSM   C17S11392   3.274   4.879   9.030  0.6842 -0.3777 -0.1591
  110OSM   H17S11393   3.213   4.791   9.058 -0.3403 -0.0820 -1.3799
  110OSM   H17T11394   3.384   4.861   9.036  0.7938  0.6139  1.4881
  110OSM   C18S11395   3.238   4.915   8.883 -0.4460 -0.2739 -0.2309
  110OSM   H18S11396   3.132   4.932   8.857 -0.4578  0.1865  0.1059
  110OSM   H18T11397   3.290   4.839   8.820 -2.5172 -1.2977 -0.7987
  110OSM   H18U11398   3.274   5.016   8.856 -0.0992 -1.0777 -3.0816
  110OSM    C1F11399   3.675   5.513  10.507 -0.0970 -0.1457  0.3560
  110OSM     OF11400   3.787   5.546  10.545  0.3145 -0.4468  0.4940
  110OSM    C2F11401   3.560   5.609  10.459  0.2915  0.1462 -0.2420
  110OSM    H2F11402   3.519   5.676  10.536  1.0691  2.6312 -1.8631
  110OSM    H2G11403   3.479   5.539  10.429 -0.0280  0.9241 -1.2475
  110OSM    C3F11404   3.616   5.703  10.349  0.3711 -0.0857  0.1612
  110OSM    H3F11405   3.683   5.783  10.387 -0.2976  0.4642  0.1951
  110OSM    H3G11406   3.530   5.760  10.309  0.4744 -0.1023 -0.0861
  110OSM    C4F11407   3.672   5.629  10.229  0.4986 -0.1845 -0.4084
  110OSM    H4F11408   3.752   5.560  10.263  1.1182  0.3445 -0.7564
  110OSM    H4G11409   3.715   5.698  10.153  0.5069  0.1194 -0.1340
  110OSM    C5F11410   3.567   5.543  10.154  0.5854  0.1392 -0.5180
  110OSM    H5F11411   3.485   5.609  10.119  1.3390  1.3596 -0.0589
  110OSM    H5G11412   3.528   5.479  10.236  1.9699 -2.4142 -1.7477
  110OSM    C6F11413   3.617   5.470  10.035  0.5419  0.4651 -0.2354
  110OSM    H6F11414   3.679   5.384  10.069 -0.1894  0.5005  1.2693
  110OSM    H6G11415   3.679   5.531   9.967  2.8211 -1.3549  0.0923
  110OSM    C7F11416   3.499   5.412   9.953  0.2485 -0.0044 -0.1793
  110OSM    H7F11417   3.448   5.500   9.908  0.5836  0.3341  0.0964
  110OSM    H7G11418   3.430   5.362  10.025  2.7951  0.4084  2.7624
  110OSM    C8F11419   3.551   5.322   9.835  0.4926 -0.0042 -1.1276
  110OSM    H8F11420   3.598   5.242   9.897 -2.2220 -0.9059 -0.0769
  110OSM    H8G11421   3.632   5.362   9.771  0.3963  1.7003 -0.2495
  110OSM    C9F11422   3.443   5.277   9.751  0.0009  0.4142  0.0636
  110OSM    H9F11423   3.366   5.220   9.805 -0.4924  1.7255  0.7881
  110OSM   C10F11424   3.421   5.296   9.620 -0.8815 -0.2997  0.2509
  110OSM   H10F11425   3.337   5.251   9.565 -1.4528  1.1553 -0.0931
  110OSM   C11F11426   3.517   5.377   9.530  0.4206  0.8656  0.0846
  110OSM   H11F11427   3.624   5.377   9.562  0.8607 -1.3940 -1.1609
  110OSM   H11G11428   3.503   5.487   9.532  1.8601  1.1034 -1.0062
  110OSM   C12F11429   3.517   5.297   9.393 -0.0384  0.0407 -0.3262
  110OSM   H12F11430   3.414   5.304   9.352  0.1540 -0.9007 -0.9945
  110OSM   H12G11431   3.532   5.187   9.395 -2.1418 -0.3335 -1.7558
  110OSM   C13F11432   3.623   5.364   9.289 -0.1755 -0.3478 -0.6184
  110OSM   H13F11433   3.725   5.377   9.331 -1.4519  2.4947  1.9878
  110OSM   H13G11434   3.586   5.469   9.287 -1.1701 -0.6025  1.4848
  110OSM   C14F11435   3.622   5.308   9.150  0.3924  0.0464  0.0083
  110OSM   H14F11436   3.641   5.199   9.162 -0.1795 -0.0717 -0.1085
  110OSM   H14G11437   3.719   5.343   9.109  1.0591 -1.3723  0.2991
  110OSM   C15F11438   3.490   5.341   9.062 -0.3006  0.2313 -0.0774
  110OSM   H15F11439   3.464   5.449   9.066 -0.1689  0.2430  1.7566
  110OSM   H15G11440   3.408   5.278   9.103  0.8911 -1.1846  0.2171
  110OSM   C16F11441   3.513   5.306   8.913  0.6453  0.4294  0.0601
  110OSM   H16F11442   3.595   5.374   8.883 -0.0411  2.1473  1.8694
  110OSM   H16G11443   3.420   5.331   8.858 -0.4948 -0.1465  1.6579
  110OSM   C17F11444   3.552   5.159   8.887  0.2516  0.3937  0.3279
  110OSM   H17F11445   3.470   5.095   8.927 -0.9572  3.2626  2.9139
  110OSM   H17G11446   3.639   5.129   8.949  0.8543  1.9159  0.2784
  110OSM   C18F11447   3.600   5.133   8.741 -0.6519  0.0171 -0.3692
  110OSM   H18F11448   3.682   5.058   8.744  0.1286  0.8891  0.4719
  110OSM   H18G11449   3.647   5.219   8.688  0.0307 -0.9116 -1.3228
  110OSM   H18H11450   3.512   5.103   8.680 -0.4905 -1.6096  0.1555
  111OSM      N11451   5.083   0.579  11.050  0.7966  0.5443 -0.0749
  111OSM    C1511452   5.190   0.654  11.122 -0.5809  0.1402 -0.9716
  111OSM   H15A11453   5.266   0.583  11.152 -0.4328  0.2805 -1.0141
  111OSM   H15B11454   5.158   0.704  11.212  0.0987 -3.9708  1.8353
  111OSM   H15C11455   5.244   0.722  11.059 -1.1805  3.5350  1.8694
  111OSM    C1411456   5.058   0.454  11.122  0.6183  0.1960  0.3529
  111OSM   H14A11457   5.015   0.467  11.221  0.1691  0.9065  0.0662
  111OSM   H14B11458   5.149   0.397  11.129 -0.0961 -1.3130 -1.6164
  111OSM   H14C11459   5.004   0.387  11.057  2.3351 -1.0483  0.1524
  111OSM    C1311460   4.952   0.656  11.047  0.1072  0.1128 -0.7779
  111OSM   H13A11461   4.964   0.747  10.990 -1.9970  0.1760 -1.2183
  111OSM   H13B11462   4.942   0.699  11.145 -3.1783  2.3591 -1.9139
  111OSM   H13C11463   4.860   0.606  11.021 -0.8594  1.7156 -0.6006
  111OSM    C1211464   5.116   0.560  10.902  0.4736 -0.1402 -0.3181
  111OSM   H12A11465   5.128   0.656  10.855  1.7635  0.9094  1.9904
  111OSM   H12B11466   5.031   0.517  10.851  0.1425  0.4514 -0.2685
  111OSM    C1111467   5.235   0.468  10.863  0.3548  0.2990  0.6963
  111OSM   H11A11468   5.329   0.520  10.889  0.8913  0.0758 -0.6866
  111OSM   H11B11469   5.218   0.466  10.753 -2.4283  2.8261  0.9414
  111OSM      P11470   5.351   0.239  10.898 -0.1562 -0.0742 -0.0761
  111OSM    O1311471   5.453   0.309  10.984  1.3239 -0.7349 -0.1867
  111OSM    O1411472   5.316   0.100  10.931 -0.5558 -0.0174  0.0852
  111OSM    O1111473   5.397   0.246  10.752 -0.5342 -0.4122  0.1514
  111OSM    O1211474   5.227   0.335  10.904  0.4450  0.3367  0.3835
  111OSM    C1S11475   5.345   0.154  10.651  0.4087 -0.6362 -0.4693
  111OSM    H1S11476   5.234   0.158  10.644  0.3887 -1.2986 -0.6230
  111OSM    H1T11477   5.358   0.048  10.683  1.1986 -0.0298  1.2956
  111OSM     NF11478   5.326   0.095  10.411 -0.8495 -0.1370  0.1966
  111OSM    HNF11479   5.353   0.004  10.383 -1.5615 -0.9016  1.8360
  111OSM    C2S11480   5.403   0.174  10.503  0.1873  0.0960  0.6664
  111OSM    H2S11481   5.383   0.281  10.485 -2.1498  0.0078  2.3049
  111OSM    C3S11482   5.558   0.160  10.501  0.0970 -0.0610  0.0806
  111OSM    H3S11483   5.582   0.057  10.536  0.7616  0.3902  0.9667
  111OSM     O311484   5.619   0.238  10.605 -0.3372  0.4503 -0.2709
  111OSM    HO311485   5.547   0.272  10.658  0.2049  0.0851  0.7138
  111OSM    C4S11486   5.616   0.177  10.369  0.3080 -0.0079  0.2556
  111OSM    H4S11487   5.625   0.081  10.316  0.1264 -0.1768  0.5268
  111OSM    C5S11488   5.659   0.290  10.313  0.4007 -0.2962 -0.1396
  111OSM    H5S11489   5.650   0.383  10.372 -0.8701 -0.3089 -0.2935
  111OSM    C6S11490   5.737   0.292  10.182  0.5703 -0.4442 -0.5093
  111OSM    H6S11491   5.778   0.191  10.160  1.2701 -0.5967  1.3083
  111OSM    H6T11492   5.819   0.367  10.178  2.1270 -2.0588 -0.1327
  111OSM    C7S11493   5.642   0.328  10.060  0.2894  0.2739  0.6624
  111OSM    H7S11494   5.706   0.358   9.974 -0.9074  0.3675 -0.2291
  111OSM    H7T11495   5.586   0.424  10.066  1.6182  1.5182 -3.3277
  111OSM    C8S11496   5.551   0.212  10.016  0.3172 -0.9426  0.1407
  111OSM    H8S11497   5.456   0.212  10.073  0.6831  2.1150  0.9185
  111OSM    H8T11498   5.601   0.117  10.046  3.5100  0.7154  0.4773
  111OSM    C9S11499   5.522   0.216   9.866  0.2345  0.6838 -0.0724
  111OSM    H9S11500   5.614   0.189   9.809 -0.3052  1.3460 -1.2961
  111OSM    H9T11501   5.487   0.314   9.829 -3.1360  0.5290  2.2760
  111OSM   C10S11502   5.420   0.111   9.817  0.1040  0.4934  0.0092
  111OSM   H10S11503   5.324   0.136   9.868 -0.4437 -0.1496 -0.6887
  111OSM   H10T11504   5.446   0.007   9.845 -0.4071  0.6428  1.1404
  111OSM   C11S11505   5.385   0.121   9.670  0.8236  0.4394  0.6863
  111OSM   H11S11506   5.467   0.116   9.595 -0.1344 -1.2106 -0.3126
  111OSM   H11T11507   5.322   0.211   9.654 -2.4024 -1.6021  1.1271
  111OSM   C12S11508   5.287   0.010   9.619 -0.5346 -0.1832 -1.0930
  111OSM   H12S11509   5.185   0.054   9.628 -0.0770  0.5272  1.3423
  111OSM   H12T11510   5.294  -0.077   9.687  0.2552  1.9232  1.6816
  111OSM   C13S11511   5.302  -0.038   9.475  0.7300 -0.0448 -0.6673
  111OSM   H13S11512   5.398  -0.093   9.462  2.4018  2.3056  0.8757
  111OSM   H13T11513   5.320   0.060   9.424  1.8728  0.0930 -0.0457
  111OSM   C14S11514   5.181  -0.105   9.417  0.2430  0.2183 -0.1971
  111OSM   H14S11515   5.097  -0.038   9.445  0.1396  0.9509 -2.1381
  111OSM   H14T11516   5.174  -0.208   9.459 -1.1168  0.3773  0.0257
  111OSM   C15S11517   5.186  -0.114   9.269 -0.2808  0.4941 -0.3629
  111OSM   H15S11518   5.173  -0.018   9.214  2.4188  0.5135 -1.1209
  111OSM   H15T11519   5.098  -0.174   9.237  0.1774 -0.4005  0.0226
  111OSM   C16S11520   5.318  -0.181   9.204 -0.4707 -0.1418  0.3468
  111OSM   H16S11521   5.359  -0.253   9.278  0.8254 -0.1822 -0.3756
  111OSM   H16T11522   5.404  -0.112   9.200 -1.0975  1.0917  4.1455
  111OSM   C17S11523   5.277  -0.246   9.081  0.3582  0.2258 -0.2353
  111OSM   H17S11524   5.256  -0.178   8.996 -0.0036 -0.3869 -0.6439
  111OSM   H17T11525   5.194  -0.319   9.090  1.2092 -0.4932  2.9298
  111OSM   C18S11526   5.395  -0.326   9.019 -0.0742 -0.9118 -0.1052
  111OSM   H18S11527   5.485  -0.260   9.025  0.1758 -1.0741 -1.6208
  111OSM   H18T11528   5.375  -0.349   8.912  2.5319 -2.6717 -0.3087
  111OSM   H18U11529   5.399  -0.427   9.066  1.2086 -0.7296  0.2151
  111OSM    C1F11530   5.205   0.138  10.380 -0.3543 -0.3070  0.0854
  111OSM     OF11531   5.156   0.249  10.408 -0.1740 -0.1556 -1.4026
  111OSM    C2F11532   5.133   0.037  10.293 -0.4896 -0.4796 -0.2297
  111OSM    H2F11533   5.040   0.028  10.354 -1.1823  0.5671 -1.0829
  111OSM    H2G11534   5.189  -0.059  10.290  1.9031  0.8467  0.1927
  111OSM    C3F11535   5.091   0.086  10.150  0.3624 -0.6805 -0.2399
  111OSM    H3F11536   5.169   0.142  10.096  0.3707 -1.3497 -0.9365
  111OSM    H3G11537   5.007   0.159  10.153  1.0579  0.0978  1.2227
  111OSM    C4F11538   5.048  -0.029  10.059  0.4997  0.3342  0.3420
  111OSM    H4F11539   4.955  -0.063  10.109  1.2646 -2.5701  0.0174
  111OSM    H4G11540   5.110  -0.122  10.062  0.0412 -0.0666 -1.3272
  111OSM    C5F11541   5.015  -0.003   9.915 -0.3983 -0.0070 -0.5178
  111OSM    H5F11542   5.102   0.029   9.853 -0.8328  1.0371 -0.6081
  111OSM    H5G11543   4.945   0.082   9.902 -1.6166 -0.7611  0.8418
  111OSM    C6F11544   4.951  -0.120   9.840  0.3272 -0.2209 -0.1332
  111OSM    H6F11545   4.869  -0.160   9.903 -0.5696  0.9694 -0.5127
  111OSM    H6G11546   5.031  -0.197   9.832  0.5069 -0.0230 -0.2656
  111OSM    C7F11547   4.904  -0.081   9.693 -0.0830 -0.2472  0.0221
  111OSM    H7F11548   4.993  -0.059   9.631  2.1091 -2.8991  1.9819
  111OSM    H7G11549   4.851   0.016   9.688  2.5129  1.2241 -0.9982
  111OSM    C8F11550   4.822  -0.197   9.634  0.0572 -0.5854  0.3910
  111OSM    H8F11551   4.721  -0.199   9.680 -0.2223 -0.1165 -0.1862
  111OSM    H8G11552   4.876  -0.292   9.654  3.0266  0.5679 -1.4673
  111OSM    C9F11553   4.792  -0.183   9.486  0.3360 -0.3597 -0.1359
  111OSM    H9F11554   4.721  -0.103   9.462  0.1313 -0.7582 -0.9109
  111OSM   C10F11555   4.833  -0.264   9.386  0.0147 -0.4807 -0.6224
  111OSM   H10F11556   4.790  -0.245   9.287 -0.7627  2.2068  0.1477
  111OSM   C11F11557   4.911  -0.390   9.395 -0.4002  0.5479 -0.4011
  111OSM   H11F11558   4.912  -0.413   9.503  1.1773 -0.3227 -0.5730
  111OSM   H11G11559   5.018  -0.381   9.365 -0.0364 -0.4433  0.5332
  111OSM   C12F11560   4.848  -0.519   9.322 -0.0423 -0.0551  0.2340
  111OSM   H12F11561   4.739  -0.520   9.344 -0.2274 -0.6799 -0.6627
  111OSM   H12G11562   4.899  -0.601   9.377 -2.2804 -0.2708  2.1446
  111OSM   C13F11563   4.864  -0.523   9.171 -0.1220  0.6601 -0.0385
  111OSM   H13F11564   4.970  -0.541   9.145 -0.0777  0.5658  0.2080
  111OSM   H13G11565   4.838  -0.423   9.130 -1.8030  0.2338 -0.0784
  111OSM   C14F11566   4.789  -0.644   9.105  0.4142 -0.0495 -0.0037
  111OSM   H14F11567   4.811  -0.636   8.996 -0.6035 -0.3715 -0.2523
  111OSM   H14G11568   4.679  -0.639   9.120  0.4444  2.1648 -0.2943
  111OSM   C15F11569   4.859  -0.778   9.144  0.2128  0.0976  0.1875
  111OSM   H15F11570   4.807  -0.817   9.234  2.1733  0.6955  1.6450
  111OSM   H15G11571   4.961  -0.742   9.168 -0.5317  1.7349  1.0169
  111OSM   C16F11572   4.865  -0.879   9.021 -0.3193 -0.3523  0.0460
  111OSM   H16F11573   4.939  -0.957   9.051 -2.2676 -2.5393 -0.4745
  111OSM   H16G11574   4.905  -0.836   8.927  0.6109 -1.0429  0.1099
  111OSM   C17F11575   4.728  -0.936   8.980 -0.3651  1.1248  0.3199
  111OSM   H17F11576   4.638  -0.869   8.978 -2.3778 -1.4106 -2.5381
  111OSM   H17G11577   4.699  -0.995   9.070  0.4429 -1.0895 -0.8140
  111OSM   C18F11578   4.734  -1.031   8.859  0.9926 -0.4611 -0.5054
  111OSM   H18F11579   4.791  -1.124   8.880  2.2009  0.3266 -0.1519
  111OSM   H18G11580   4.773  -0.981   8.768 -1.7727 -1.5872 -2.4224
  111OSM   H18H11581   4.629  -1.062   8.840  0.3235  0.5881  1.2664
  112OSM      N11582   1.166   0.533  11.322  0.4668  0.0455  0.2859
  112OSM    C1511583   1.311   0.489  11.317 -0.1698  0.4613 -0.4866
  112OSM   H15A11584   1.357   0.488  11.415 -0.4436  1.1435 -0.3443
  112OSM   H15B11585   1.369   0.550  11.250  2.2458  1.0300  1.9268
  112OSM   H15C11586   1.325   0.391  11.273 -0.5986  0.3258 -0.3361
  112OSM    C1411587   1.075   0.465  11.421 -0.5476  0.4214  0.2019
  112OSM   H14A11588   0.976   0.509  11.415 -1.8009 -2.0935  1.0270
  112OSM   H14B11589   1.124   0.470  11.517  2.3636  1.1421 -1.2042
  112OSM   H14C11590   1.071   0.364  11.384  2.8249  0.6478 -1.1062
  112OSM    C1311591   1.176   0.680  11.361  0.4979  0.4500  0.1310
  112OSM   H13A11592   1.232   0.738  11.289  1.6719  1.6862  1.9165
  112OSM   H13B11593   1.214   0.693  11.462 -0.4051  2.1303  0.2825
  112OSM   H13C11594   1.081   0.731  11.366  0.8683  1.1157  0.5541
  112OSM    C1211595   1.105   0.528  11.182  0.3367 -0.1578  0.0216
  112OSM   H12A11596   1.162   0.593  11.117 -0.6195  0.9969  0.3046
  112OSM   H12B11597   1.008   0.577  11.179 -0.0327 -0.7792  1.1871
  112OSM    C1111598   1.087   0.385  11.131 -0.1416  0.1317 -0.5354
  112OSM   H11A11599   1.178   0.325  11.149 -0.6129 -0.6790 -0.8021
  112OSM   H11B11600   1.082   0.388  11.021  0.0071 -1.5192 -0.6129
  112OSM      P11601   0.840   0.370  11.130  0.1083 -0.3071 -0.4120
  112OSM    O1311602   0.724   0.323  11.210 -0.3527  0.0833  1.0423
  112OSM    O1411603   0.841   0.513  11.102 -0.1163 -0.3864  0.1395
  112OSM    O1111604   0.833   0.291  10.994  0.8442 -0.3000  0.3689
  112OSM    O1211605   0.977   0.309  11.187 -0.5936  0.0748  0.3429
  112OSM    C1S11606   0.895   0.168  10.967 -0.9274  0.3877  0.1668
  112OSM    H1S11607   0.878   0.086  11.041  1.7258  1.2196  1.8661
  112OSM    H1T11608   1.006   0.171  10.957 -0.9541 -0.3826 -0.4851
  112OSM     NF11609   0.877  -0.023  10.810 -0.5007 -0.1422 -0.0903
  112OSM    HNF11610   0.962  -0.049  10.766  0.0320  0.1853  0.7153
  112OSM    C2S11611   0.850   0.124  10.827 -0.3150 -0.6529 -0.3543
  112OSM    H2S11612   0.739   0.131  10.828 -0.3669 -1.3478 -0.3590
  112OSM    C3S11613   0.919   0.217  10.726 -0.2368 -0.5596  0.3605
  112OSM    H3S11614   1.030   0.205  10.729 -0.0593  0.7214 -0.3183
  112OSM     O311615   0.897   0.361  10.751  0.1164 -0.0860  0.1131
  112OSM    HO311616   0.880   0.359  10.845 -0.5717  1.5005  0.0507
  112OSM    C4S11617   0.874   0.183  10.590  0.1041  0.2367  0.2942
  112OSM    H4S11618   0.768   0.203  10.567  0.4850  0.4688 -1.4481
  112OSM    C5S11619   0.938   0.105  10.504  0.3840 -0.4101  1.4610
  112OSM    H5S11620   1.025   0.053  10.545  0.4846 -2.7547 -1.3869
  112OSM    C6S11621   0.893   0.059  10.362 -0.0914  0.3977 -0.6001
  112OSM    H6S11622   0.871  -0.050  10.367 -0.5068  0.4969 -0.2151
  112OSM    H6T11623   0.969   0.070  10.282 -1.1289 -0.4677 -1.7504
  112OSM    C7S11624   0.779   0.128  10.299  0.5205  0.0451  0.7649
  112OSM    H7S11625   0.819   0.231  10.288  2.9297 -1.0250 -1.9312
  112OSM    H7T11626   0.686   0.131  10.360  0.0044  0.6856 -0.0166
  112OSM    C8S11627   0.752   0.074  10.148 -0.0260 -0.2331 -0.3148
  112OSM    H8S11628   0.777  -0.033  10.161  1.2297 -0.0161 -0.8399
  112OSM    H8T11629   0.826   0.118  10.079 -0.3300 -0.4873 -0.8060
  112OSM    C9S11630   0.615   0.118  10.096 -0.8441  0.6953  0.1138
  112OSM    H9S11631   0.621   0.229  10.095 -0.4179  0.6807 -1.2534
  112OSM    H9T11632   0.534   0.075  10.159 -0.7726 -1.9231 -1.4583
  112OSM   C10S11633   0.602   0.060   9.952 -0.5201 -0.4049 -0.4868
  112OSM   H10S11634   0.497   0.028   9.937 -0.4428 -1.4737  1.0447
  112OSM   H10T11635   0.662  -0.033   9.945  0.0430  0.0457 -2.0685
  112OSM   C11S11636   0.639   0.163   9.847 -0.4016  0.3215  0.2539
  112OSM   H11S11637   0.734   0.214   9.875  0.0307  0.9656 -2.1328
  112OSM   H11T11638   0.563   0.244   9.838  0.8128  1.3213 -1.7251
  112OSM   C12S11639   0.665   0.092   9.703  0.5504  0.1517  0.0918
  112OSM   H12S11640   0.576   0.029   9.685  0.1812  0.2080  1.5868
  112OSM   H12T11641   0.758   0.033   9.717 -1.1016 -2.3374  1.2827
  112OSM   C13S11642   0.678   0.198   9.598  0.0948  0.8522  0.4443
  112OSM   H13S11643   0.774   0.250   9.620  1.0188 -0.5854 -0.0789
  112OSM   H13T11644   0.598   0.275   9.612 -1.6076 -0.8323  0.3595
  112OSM   C14S11645   0.679   0.143   9.457 -0.3835 -0.7961  0.3884
  112OSM   H14S11646   0.594   0.079   9.424  0.9113 -1.0363 -2.9235
  112OSM   H14T11647   0.760   0.067   9.464 -2.0242 -2.7953 -0.9710
  112OSM   C15S11648   0.678   0.258   9.351 -0.3695 -0.1738  1.1210
  112OSM   H15S11649   0.764   0.322   9.380 -0.0410 -0.2595  0.3494
  112OSM   H15T11650   0.586   0.320   9.346  1.3062  2.4004 -1.3038
  112OSM   C16S11651   0.702   0.209   9.209 -0.2099  0.5528  0.2062
  112OSM   H16S11652   0.784   0.134   9.214  0.7451  1.0291 -4.2819
  112OSM   H16T11653   0.738   0.298   9.154  1.4127 -0.2234 -0.0405
  112OSM   C17S11654   0.576   0.157   9.140 -0.5920  0.4475 -0.0393
  112OSM   H17S11655   0.503   0.239   9.124 -0.6955  0.5760  1.0242
  112OSM   H17T11656   0.531   0.080   9.206 -0.7805  1.6415  1.2568
  112OSM   C18S11657   0.609   0.098   8.998 -0.2913  0.3553  0.1833
  112OSM   H18S11658   0.518   0.051   8.953 -0.6121  1.9065 -0.8659
  112OSM   H18T11659   0.681   0.013   8.993  0.1336  0.6788  0.7769
  112OSM   H18U11660   0.649   0.176   8.931 -2.4955  0.3608 -1.2240
  112OSM    C1F11661   0.804  -0.121  10.870  0.1069 -0.0037 -0.6631
  112OSM     OF11662   0.717  -0.102  10.949 -0.3456 -0.4962 -1.1866
  112OSM    C2F11663   0.843  -0.260  10.830  0.2822  0.6866 -0.1829
  112OSM    H2F11664   0.799  -0.340  10.892  0.7374 -1.0423 -1.9926
  112OSM    H2G11665   0.954  -0.264  10.832  0.3076  0.3202 -1.3362
  112OSM    C3F11666   0.801  -0.288  10.679  0.1845 -0.2821 -0.3907
  112OSM    H3F11667   0.812  -0.199  10.613  0.5511 -0.3057 -0.3626
  112OSM    H3G11668   0.693  -0.313  10.675  0.3128 -1.7122  2.4636
  112OSM    C4F11669   0.876  -0.404  10.602  0.1972  0.8643  0.0898
  112OSM    H4F11670   0.874  -0.496  10.663 -1.0699  0.3380 -0.7088
  112OSM    H4G11671   0.980  -0.371  10.581  0.5184 -0.0001  0.2731
  112OSM    C5F11672   0.809  -0.452  10.475 -0.6405 -0.7194  0.0803
  112OSM    H5F11673   0.709  -0.492  10.501 -0.6624 -1.6325 -1.3205
  112OSM    H5G11674   0.869  -0.538  10.437 -0.1246 -0.7927  1.0275
  112OSM    C6F11675   0.807  -0.352  10.358  0.0652  0.3162 -0.2763
  112OSM    H6F11676   0.911  -0.330  10.327  0.0159  0.8380 -0.0903
  112OSM    H6G11677   0.754  -0.260  10.391 -1.4678 -1.1196  1.5348
  112OSM    C7F11678   0.728  -0.407  10.235  0.0757 -0.7084 -0.3523
  112OSM    H7F11679   0.629  -0.432  10.280  1.1057 -1.9306  1.3356
  112OSM    H7G11680   0.770  -0.502  10.196  0.4907 -0.8807  0.4910
  112OSM    C8F11681   0.712  -0.299  10.130  0.7448  0.8446  0.7239
  112OSM    H8F11682   0.808  -0.247  10.112  0.1949  1.4703 -0.4747
  112OSM    H8G11683   0.648  -0.216  10.166 -0.4295 -0.5615  2.0063
  112OSM    C9F11684   0.651  -0.357  10.004  0.1501 -0.5104  0.5432
  112OSM    H9F11685   0.549  -0.395  10.021  0.5875 -1.2753  1.6150
  112OSM   C10F11686   0.710  -0.372   9.884  0.4441  0.7999 -0.0264
  112OSM   H10F11687   0.645  -0.420   9.810  0.1750 -0.5700  1.0741
  112OSM   C11F11688   0.857  -0.342   9.851  0.5066  0.1007  0.0552
  112OSM   H11F11689   0.896  -0.446   9.838  2.1905  0.7409 -0.1761
  112OSM   H11G11690   0.919  -0.295   9.930  2.4143  0.9623 -1.8653
  112OSM   C12F11691   0.872  -0.263   9.721  0.2869 -0.2397 -0.7370
  112OSM   H12F11692   0.969  -0.208   9.720  0.6326 -0.8036 -2.7846
  112OSM   H12G11693   0.791  -0.187   9.722 -1.8078 -2.3749 -1.5467
  112OSM   C13F11694   0.879  -0.349   9.594  0.5072  0.1650 -0.1126
  112OSM   H13F11695   0.779  -0.394   9.583  0.6829  0.0263 -1.3322
  112OSM   H13G11696   0.950  -0.434   9.608  0.8897  0.7386  1.7321
  112OSM   C14F11697   0.917  -0.254   9.481  0.3608  0.2901 -0.0351
  112OSM   H14F11698   1.016  -0.205   9.496  0.8782 -1.1112  1.4757
  112OSM   H14G11699   0.846  -0.169   9.482  2.4504  2.2690 -3.2990
  112OSM   C15F11700   0.918  -0.317   9.346 -0.2781 -0.0731  0.1493
  112OSM   H15F11701   0.821  -0.363   9.316 -0.0401 -1.3628  1.2456
  112OSM   H15G11702   0.992  -0.400   9.342  0.0974  0.0560  2.5589
  112OSM   C16F11703   0.949  -0.208   9.240 -0.5909  0.0671 -0.3522
  112OSM   H16F11704   1.038  -0.155   9.281 -1.0620 -1.1745  2.5563
  112OSM   H16G11705   0.864  -0.136   9.234 -0.9869 -0.4727 -1.4548
  112OSM   C17F11706   0.971  -0.256   9.097  0.0738 -0.3860 -0.5177
  112OSM   H17F11707   0.893  -0.334   9.086 -1.7473  1.3613 -0.6284
  112OSM   H17G11708   1.070  -0.303   9.081  0.1355  0.1566 -1.8936
  112OSM   C18F11709   0.956  -0.141   8.997  0.2851 -0.4699  0.0122
  112OSM   H18F11710   0.862  -0.089   9.027  0.9115  2.1526 -2.1658
  112OSM   H18G11711   0.944  -0.185   8.896  2.3394  1.2531 -1.0641
  112OSM   H18H11712   1.040  -0.068   9.004 -0.1125 -0.0964  1.1635
  113OSM      N11713   3.146   2.898  11.349 -0.0564 -0.2134  0.4187
  113OSM    C1511714   3.271   2.954  11.409  0.8539  0.2233 -0.0916
  113OSM   H15A11715   3.254   2.977  11.514 -0.3026 -0.8465 -0.0103
  113OSM   H15B11716   3.288   3.052  11.368  0.0830  1.4324  2.2611
  113OSM   H15C11717   3.359   2.894  11.390  1.7278  1.5210 -0.2644
  113OSM    C1411718   3.115   2.765  11.410  0.1228  1.2391  0.4490
  113OSM   H14A11719   3.026   2.738  11.354  2.5227 -0.4944 -2.8778
  113OSM   H14B11720   3.105   2.780  11.516  0.5081 -0.0493  0.6814
  113OSM   H14C11721   3.196   2.696  11.390 -0.7517  0.0364  0.9427
  113OSM    C1311722   3.026   2.989  11.374 -0.4105 -0.3409  0.6879
  113OSM   H13A11723   2.995   2.993  11.477 -0.3730 -0.6212  0.7124
  113OSM   H13B11724   2.939   2.981  11.309 -0.6450 -1.1758  1.0838
  113OSM   H13C11725   3.065   3.086  11.349 -1.4817  0.6238  2.5406
  113OSM    C1211726   3.157   2.874  11.200  0.9885  0.1799 -0.3212
  113OSM   H12A11727   3.061   2.841  11.163  0.8740 -2.2715  1.8574
  113OSM   H12B11728   3.211   2.783  11.182 -2.8588 -2.6833  1.1752
  113OSM    C1111729   3.202   2.988  11.105 -0.9870 -0.0656 -0.2039
  113OSM   H11A11730   3.131   3.072  11.113 -0.5176  0.2263  1.1955
  113OSM   H11B11731   3.195   2.942  11.004  0.3595  1.6148 -1.1110
  113OSM      P11732   3.376   3.186  11.119  0.0266 -0.0949  0.6583
  113OSM    O1311733   3.312   3.272  11.221  0.3477  0.3067 -0.1842
  113OSM    O1411734   3.526   3.179  11.123  0.0631  0.1765  0.2826
  113OSM    O1111735   3.328   3.223  10.975  0.3078  0.1517  0.2183
  113OSM    O1211736   3.331   3.029  11.138  0.1161 -0.1718  0.2014
  113OSM    C1S11737   3.382   3.324  10.894 -0.4955 -1.0483 -0.0854
  113OSM    H1S11738   3.454   3.386  10.951 -0.9445 -0.5337 -0.0780
  113OSM    H1T11739   3.304   3.394  10.857  0.3573 -0.6529 -1.1889
  113OSM     NF11740   3.535   3.361  10.691 -0.5252 -0.5728 -0.0180
  113OSM    HNF11741   3.500   3.394  10.604 -0.0045  0.4654  0.1502
  113OSM    C2S11742   3.453   3.265  10.764 -0.3195 -0.5252  0.4999
  113OSM    H2S11743   3.516   3.180  10.795 -0.3575  0.3173  3.0906
  113OSM    C3S11744   3.344   3.204  10.670  0.2623  0.3725 -0.7550
  113OSM    H3S11745   3.289   3.299  10.650 -1.4000 -0.0083  1.6610
  113OSM     O311746   3.252   3.110  10.724 -0.6106 -0.9976 -0.5416
  113OSM    HO311747   3.264   3.120  10.818 -2.0082  2.5146 -0.5839
  113OSM    C4S11748   3.410   3.148  10.553  0.2416  0.4303 -0.0989
  113OSM    H4S11749   3.518   3.133  10.568  0.7099  2.9259 -0.6330
  113OSM    C5S11750   3.352   3.147  10.430 -0.3461 -0.2741  0.5562
  113OSM    H5S11751   3.252   3.191  10.421 -0.9735 -1.8601 -0.7773
  113OSM    C6S11752   3.417   3.081  10.303  0.1393 -0.2365 -0.5150
  113OSM    H6S11753   3.361   2.987  10.285  0.3903 -0.7836  1.3870
  113OSM    H6T11754   3.517   3.042  10.331 -0.3095 -1.1432 -0.1529
  113OSM    C7S11755   3.427   3.180  10.190  0.3374 -0.9370  0.4005
  113OSM    H7S11756   3.491   3.268  10.209 -0.1515 -0.5352  0.2019
  113OSM    H7T11757   3.325   3.218  10.169  0.3382 -0.8836  0.4956
  113OSM    C8S11758   3.464   3.121  10.049 -0.1460  0.5299 -0.4490
  113OSM    H8S11759   3.384   3.049  10.026  1.8355 -1.3234 -1.9770
  113OSM    H8T11760   3.565   3.074  10.052 -1.0497 -1.4860  0.6096
  113OSM    C9S11761   3.464   3.229   9.934 -0.3526 -0.4274 -0.4138
  113OSM    H9S11762   3.549   3.295   9.963  2.3714 -3.1321 -1.6619
  113OSM    H9T11763   3.367   3.281   9.949  1.1362  2.1605  1.1134
  113OSM   C10S11764   3.485   3.180   9.794 -0.3334  0.1715  0.2464
  113OSM   H10S11765   3.568   3.106   9.793 -0.2346  0.2839 -0.1008
  113OSM   H10T11766   3.515   3.268   9.733  0.3953 -0.3635 -0.1821
  113OSM   C11S11767   3.357   3.128   9.735  0.0539  0.7423 -0.6643
  113OSM   H11S11768   3.271   3.197   9.749  1.4000  2.1883  0.8222
  113OSM   H11T11769   3.329   3.026   9.770  2.5214 -0.3783 -1.7110
  113OSM   C12S11770   3.381   3.117   9.581  0.0471 -0.6290 -0.7828
  113OSM   H12S11771   3.481   3.069   9.565  0.9255  0.6318  0.6554
  113OSM   H12T11772   3.403   3.222   9.552 -0.1437 -0.0778  0.9730
  113OSM   C13S11773   3.279   3.038   9.503  0.3426 -0.3200  0.3873
  113OSM   H13S11774   3.178   3.084   9.507 -0.7430 -2.4506 -0.7264
  113OSM   H13T11775   3.261   2.935   9.541  0.5517 -1.2340 -1.7936
  113OSM   C14S11776   3.317   3.026   9.349  0.2174  0.6561  0.4374
  113OSM   H14S11777   3.416   2.977   9.338 -0.1549  0.3385 -2.3290
  113OSM   H14T11778   3.309   3.127   9.305  1.6881  0.4316 -0.4270
  113OSM   C15S11779   3.204   2.947   9.264  0.0959 -0.5501 -0.7732
  113OSM   H15S11780   3.107   2.997   9.289  0.7777  0.6025 -0.3730
  113OSM   H15T11781   3.206   2.843   9.303  1.3659 -0.9920 -1.9450
  113OSM   C16S11782   3.236   2.969   9.118 -0.4618 -0.3477 -0.4533
  113OSM   H16S11783   3.343   2.947   9.095 -0.3228 -0.2491  0.0758
  113OSM   H16T11784   3.210   3.074   9.092 -1.5608 -0.3211  0.6682
  113OSM   C17S11785   3.147   2.882   9.030 -0.4096  0.5182  0.0875
  113OSM   H17S11786   3.045   2.911   9.061 -0.2399 -1.7059  3.2849
  113OSM   H17T11787   3.168   2.774   9.049  1.6078  0.8614  0.0132
  113OSM   C18S11788   3.165   2.902   8.881  0.5693  0.1611 -0.3602
  113OSM   H18S11789   3.255   2.848   8.843  0.3582  0.8246 -1.8872
  113OSM   H18T11790   3.165   3.005   8.840  2.0877  0.1404 -0.4589
  113OSM   H18U11791   3.082   2.850   8.828  1.2399  0.0481 -1.3252
  113OSM    C1F11792   3.641   3.414  10.756  0.0485 -0.1944  0.3424
  113OSM     OF11793   3.690   3.356  10.847 -0.1397 -0.4149  0.0186
  113OSM    C2F11794   3.694   3.543  10.709 -0.4900 -0.6510  0.2721
  113OSM    H2F11795   3.745   3.590  10.796 -1.3139 -0.1442  0.4896
  113OSM    H2G11796   3.619   3.620  10.682  0.8709 -0.0636 -2.0684
  113OSM    C3F11797   3.813   3.542  10.597 -0.1086 -0.3137  0.5305
  113OSM    H3F11798   3.795   3.463  10.521  1.7575 -1.2740  1.0429
  113OSM    H3G11799   3.901   3.530  10.663  0.1333  3.5697  1.1641
  113OSM    C4F11800   3.831   3.673  10.521 -0.6834 -0.2459 -0.1440
  113OSM    H4F11801   3.933   3.688  10.480 -1.3199 -0.6145 -1.9643
  113OSM    H4G11802   3.834   3.756  10.595 -0.6956  1.7581 -2.2607
  113OSM    C5F11803   3.730   3.709  10.420 -0.1754 -0.2834 -0.1651
  113OSM    H5F11804   3.749   3.813  10.388  0.7310 -0.3634  0.0713
  113OSM    H5G11805   3.631   3.726  10.468  0.5333 -0.7372  1.5664
  113OSM    C6F11806   3.724   3.619  10.293 -0.2349 -0.6686 -0.2012
  113OSM    H6F11807   3.674   3.523  10.318  1.7524 -2.4046 -2.4501
  113OSM    H6G11808   3.828   3.604  10.259  0.3977 -2.4730  2.2977
  113OSM    C7F11809   3.641   3.686  10.183 -0.3563 -0.1701  0.2922
  113OSM    H7F11810   3.691   3.777  10.145 -0.3756  0.9583  2.7772
  113OSM    H7G11811   3.542   3.716  10.224 -0.1300 -0.0857  0.7808
  113OSM    C8F11812   3.632   3.595  10.047  0.4330 -0.2792 -0.7299
  113OSM    H8F11813   3.559   3.650   9.984  1.1308  1.4606 -0.0787
  113OSM    H8G11814   3.587   3.498  10.075 -2.1982  1.7376  2.8679
  113OSM    C9F11815   3.757   3.581   9.974 -0.1465  0.7976  0.4544
  113OSM    H9F11816   3.824   3.501  10.009  0.5953  1.0535 -0.3398
  113OSM   C10F11817   3.815   3.654   9.878 -0.0358  0.0548 -0.0915
  113OSM   H10F11818   3.913   3.621   9.840  0.2314 -0.0835  0.6863
  113OSM   C11F11819   3.766   3.777   9.808  1.0508  0.4322 -0.5184
  113OSM   H11F11820   3.844   3.855   9.825  0.7224  0.4787  0.9334
  113OSM   H11G11821   3.679   3.829   9.855  1.6485  3.3513 -2.3576
  113OSM   C12F11822   3.734   3.754   9.662  0.2712  0.5724  0.3255
  113OSM   H12F11823   3.642   3.692   9.659  1.0001 -0.4821 -1.2650
  113OSM   H12G11824   3.806   3.699   9.598  0.3241 -0.4352  1.2125
  113OSM   C13F11825   3.703   3.888   9.590 -0.1979 -0.0768 -0.0337
  113OSM   H13F11826   3.787   3.961   9.604  0.5555 -0.4847 -2.0647
  113OSM   H13G11827   3.610   3.928   9.636 -0.2982 -0.3533  0.0011
  113OSM   C14F11828   3.683   3.873   9.438 -0.0644 -0.3162 -0.1499
  113OSM   H14F11829   3.609   3.792   9.420 -1.1883  0.5826  0.3053
  113OSM   H14G11830   3.787   3.847   9.410 -0.0163 -1.5547  1.0241
  113OSM   C15F11831   3.648   4.005   9.368 -0.2522  0.6776 -0.2463
  113OSM   H15F11832   3.721   4.087   9.382 -1.9476  1.8841  2.2496
  113OSM   H15G11833   3.550   4.045   9.402 -0.6686 -1.2348  0.9594
  113OSM   C16F11834   3.638   3.988   9.216  0.3043 -0.3814  0.2409
  113OSM   H16F11835   3.582   3.895   9.195  3.6679 -2.5529  0.0097
  113OSM   H16G11836   3.738   3.959   9.177  1.0515 -1.8610  2.9521
  113OSM   C17F11837   3.584   4.105   9.141 -0.0960  0.2832  0.4768
  113OSM   H17F11838   3.656   4.189   9.144 -0.0812  0.2708  0.4655
  113OSM   H17G11839   3.492   4.130   9.198 -0.9045 -2.4194  0.5293
  113OSM   C18F11840   3.544   4.066   8.997  0.1503  0.4225 -0.4113
  113OSM   H18F11841   3.462   3.991   9.001  0.6660 -0.0847  1.0631
  113OSM   H18G11842   3.633   4.025   8.944 -1.3787 -2.7464 -0.7654
  113OSM   H18H11843   3.504   4.153   8.941  1.2088  1.1736 -0.0231
  114OSM      N11844   5.397   5.599  11.052 -0.1193 -0.2932  0.4599
  114OSM    C1511845   5.442   5.609  10.905  0.1816 -0.3554  0.0164
  114OSM   H15A11846   5.547   5.627  10.886  0.5993 -0.6514  1.8972
  114OSM   H15B11847   5.387   5.685  10.852  0.3442 -1.3227 -1.6483
  114OSM   H15C11848   5.411   5.523  10.848  2.1358 -1.1193  0.0007
  114OSM    C1411849   5.250   5.572  11.049 -0.0886  0.7120 -0.0750
  114OSM   H14A11850   5.209   5.574  11.148 -1.6419  2.1997 -0.7092
  114OSM   H14B11851   5.239   5.472  11.009 -2.7254  0.9895 -0.2090
  114OSM   H14C11852   5.199   5.640  10.982 -0.1566  0.8491  0.1167
  114OSM    C1311853   5.470   5.476  11.106  0.2421  0.2882  0.2769
  114OSM   H13A11854   5.577   5.488  11.090  0.2697  1.2452  1.1176
  114OSM   H13B11855   5.443   5.387  11.051  0.8345 -0.7791  1.6500
  114OSM   H13C11856   5.447   5.443  11.206 -0.3319 -0.2840 -0.0354
  114OSM    C1211857   5.432   5.723  11.139 -0.1937 -0.5316 -0.2507
  114OSM   H12A11858   5.536   5.751  11.131 -1.0125  2.9813 -0.4129
  114OSM   H12B11859   5.414   5.702  11.244 -0.4078 -0.7658 -0.3344
  114OSM    C1111860   5.357   5.855  11.094  0.5687 -0.0136  0.8517
  114OSM   H11A11861   5.367   5.869  10.984  0.7700  0.8082  0.9662
  114OSM   H11B11862   5.396   5.951  11.134  0.1488  0.5277 -0.0128
  114OSM      P11863   5.119   5.944  11.074 -0.1625 -0.0164  0.4415
  114OSM    O1311864   4.985   5.926  11.130  0.3866  0.0581 -0.2183
  114OSM    O1411865   5.171   6.082  11.078 -0.2619  0.0822  0.3193
  114OSM    O1111866   5.114   5.910  10.918 -0.6402  0.0342  0.3239
  114OSM    O1211867   5.220   5.843  11.133  0.5705  0.0290 -0.1882
  114OSM    C1S11868   5.016   5.816  10.872  0.1163 -0.5446 -0.2734
  114OSM    H1S11869   4.912   5.841  10.903 -0.2065  1.2563 -2.5085
  114OSM    H1T11870   5.047   5.723  10.923  0.1991 -2.0004 -2.8087
  114OSM     NF11871   4.925   5.656  10.721  0.3920  0.0773  0.0685
  114OSM    HNF11872   4.979   5.573  10.710 -0.4469 -0.4887  0.1364
  114OSM    C2S11873   5.003   5.779  10.720  0.3717 -0.1534 -0.7478
  114OSM    H2S11874   4.948   5.863  10.674  0.4030  0.7803  0.8290
  114OSM    C3S11875   5.138   5.768  10.651  0.3578  0.2699  0.5060
  114OSM    H3S11876   5.197   5.684  10.693 -0.7124 -0.7415  0.0456
  114OSM     O311877   5.217   5.882  10.672  0.0234 -0.5145  0.0018
  114OSM    HO311878   5.188   5.912  10.758  0.4636 -2.3575  0.8375
  114OSM    C4S11879   5.113   5.740  10.507 -0.6469 -0.1423  0.4929
  114OSM    H4S11880   5.088   5.633  10.494  1.4037 -0.6662  0.5388
  114OSM    C5S11881   5.103   5.832  10.410 -0.5731  0.1454  0.6157
  114OSM    H5S11882   5.135   5.931  10.446 -0.8995 -0.7969  3.7810
  114OSM    C6S11883   5.066   5.819  10.266 -0.6542 -0.7576  0.3883
  114OSM    H6S11884   5.122   5.889  10.201  0.3776 -0.2337  1.8047
  114OSM    H6T11885   4.964   5.863  10.256 -0.6728 -0.4686  1.7586
  114OSM    C7S11886   5.089   5.681  10.200  0.0691 -0.8668  0.0232
  114OSM    H7S11887   5.026   5.609  10.256  0.7035 -0.5202  1.2476
  114OSM    H7T11888   5.192   5.650  10.227  0.0726 -0.8610  0.0185
  114OSM    C8S11889   5.053   5.676  10.051  0.6109 -1.5235 -0.6292
  114OSM    H8S11890   5.115   5.745   9.990  2.6493 -1.9154  0.8976
  114OSM    H8T11891   4.947   5.707  10.039  1.2732  0.3462 -2.1330
  114OSM    C9S11892   5.073   5.535   9.995  0.4581  0.0212 -0.1539
  114OSM    H9S11893   5.006   5.462  10.045 -0.1015  0.1589 -0.6805
  114OSM    H9T11894   5.177   5.507  10.022  0.1618  1.8346  3.4524
  114OSM   C10S11895   5.065   5.511   9.840  0.2264 -0.7050 -0.2089
  114OSM   H10S11896   4.957   5.534   9.825  1.0257  1.7869 -2.7906
  114OSM   H10T11897   5.095   5.406   9.819 -0.1171 -0.8782  0.1402
  114OSM   C11S11898   5.151   5.602   9.744 -0.4368  0.4217 -0.5313
  114OSM   H11S11899   5.258   5.598   9.774  0.1492  0.8298 -2.4364
  114OSM   H11T11900   5.108   5.703   9.761  0.4992  0.6484  0.5969
  114OSM   C12S11901   5.127   5.567   9.591  0.2731  0.0581  0.2279
  114OSM   H12S11902   5.141   5.457   9.584  0.2688  0.1399 -1.2996
  114OSM   H12T11903   5.195   5.629   9.530  1.7098 -1.6233  0.0561
  114OSM   C13S11904   4.986   5.606   9.545  0.6109  0.0175 -0.2911
  114OSM   H13S11905   4.951   5.704   9.584 -2.1975 -0.6362 -0.9217
  114OSM   H13T11906   4.922   5.523   9.581 -0.7785 -0.1494 -2.9139
  114OSM   C14S11907   4.972   5.617   9.391 -0.9391  0.0618 -0.0728
  114OSM   H14S11908   5.050   5.680   9.344 -1.6534  0.4353 -0.7887
  114OSM   H14T11909   4.869   5.655   9.372 -1.0243  1.0437  2.0175
  114OSM   C15S11910   4.957   5.484   9.316 -0.2645  0.1838 -0.2505
  114OSM   H15S11911   4.922   5.407   9.388 -0.3439  0.3681 -0.0916
  114OSM   H15T11912   5.059   5.460   9.279 -0.0389  1.1920 -0.3074
  114OSM   C16S11913   4.864   5.484   9.192 -0.5091 -1.1564  0.3906
  114OSM   H16S11914   4.896   5.562   9.119 -2.3483 -1.9894 -1.3759
  114OSM   H16T11915   4.761   5.518   9.215 -0.8523 -0.8173 -1.4880
  114OSM   C17S11916   4.858   5.346   9.126 -0.4713 -0.4626 -0.5765
  114OSM   H17S11917   4.960   5.310   9.101  0.0919  0.3800  0.4464
  114OSM   H17T11918   4.798   5.373   9.037 -0.7272 -0.1202 -0.3045
  114OSM   C18S11919   4.789   5.243   9.208  0.9770  0.0639 -0.5877
  114OSM   H18S11920   4.753   5.155   9.151 -1.1859  0.1354  0.5570
  114OSM   H18T11921   4.695   5.279   9.256  1.2327  0.4937 -0.3966
  114OSM   H18U11922   4.849   5.212   9.297  1.8238  1.2508 -0.7183
  114OSM    C1F11923   4.796   5.641  10.734 -0.0690 -0.2318  0.1272
  114OSM     OF11924   4.728   5.740  10.761  0.2342 -0.2973 -0.1414
  114OSM    C2F11925   4.744   5.502  10.706 -0.2433 -0.0897  0.8801
  114OSM    H2F11926   4.713   5.447  10.798 -0.6056 -2.3907 -0.5378
  114OSM    H2G11927   4.822   5.442  10.655 -0.2728  0.0139  0.7121
  114OSM    C3F11928   4.627   5.500  10.608  0.2061 -0.7015 -0.0209
  114OSM    H3F11929   4.658   5.553  10.515  0.9472  2.2079  1.7422
  114OSM    H3G11930   4.538   5.555  10.647  0.4917  1.5387 -2.2183
  114OSM    C4F11931   4.572   5.365  10.574  0.3684 -0.7468  0.4924
  114OSM    H4F11932   4.462   5.356  10.580  0.3718 -0.6266  0.7529
  114OSM    H4G11933   4.618   5.293  10.645 -1.2898 -5.5232 -2.7931
  114OSM    C5F11934   4.617   5.328  10.432  0.5436 -0.4238  0.0231
  114OSM    H5F11935   4.728   5.326  10.428  1.0438 -0.5653  5.5156
  114OSM    H5G11936   4.575   5.393  10.353  0.9628  1.1159  1.0153
  114OSM    C6F11937   4.544   5.195  10.396 -0.2473  0.5717  0.2851
  114OSM    H6F11938   4.558   5.166  10.289 -1.4934 -2.9770  0.9625
  114OSM    H6G11939   4.436   5.202  10.421 -0.1501 -2.4164  1.9668
  114OSM    C7F11940   4.592   5.080  10.476 -1.1357  0.2205  0.4528
  114OSM    H7F11941   4.588   5.093  10.586 -0.2835 -0.7741  0.6205
  114OSM    H7G11942   4.702   5.069  10.464 -1.0258  1.4080  0.3262
  114OSM    C8F11943   4.519   4.947  10.439  0.2199  0.3313  0.4852
  114OSM    H8F11944   4.543   4.913  10.336 -2.5109 -0.5621  0.0653
  114OSM    H8G11945   4.410   4.966  10.448 -0.3765 -1.1323 -2.5912
  114OSM    C9F11946   4.579   4.836  10.532 -0.2304  0.0931  0.1385
  114OSM    H9F11947   4.673   4.862  10.584 -0.9169  0.7403  1.0913
  114OSM   C10F11948   4.512   4.720  10.559 -0.1105  0.0465 -0.9446
  114OSM   H10F11949   4.567   4.650  10.623  2.0734  2.8117  0.3897
  114OSM   C11F11950   4.373   4.681  10.512 -0.3336 -0.1776 -0.5900
  114OSM   H11F11951   4.341   4.760  10.441  2.8245  0.9734 -0.9064
  114OSM   H11G11952   4.297   4.668  10.592  0.9340 -1.8694  0.4081
  114OSM   C12F11953   4.369   4.552  10.431 -0.9245  0.1551 -0.9061
  114OSM   H12F11954   4.264   4.541  10.397 -1.1254  0.8183 -0.4969
  114OSM   H12G11955   4.406   4.466  10.491  0.7515  0.1556 -1.8590
  114OSM   C13F11956   4.455   4.556  10.303 -0.0667 -0.0763  0.7347
  114OSM   H13F11957   4.434   4.459  10.253  0.6756  0.4288 -0.6398
  114OSM   H13G11958   4.561   4.573  10.332 -0.0789  1.9124 -0.1939
  114OSM   C14F11959   4.403   4.650  10.198  0.3365  0.1923 -0.4383
  114OSM   H14F11960   4.380   4.744  10.253 -1.0966  1.2800 -2.7349
  114OSM   H14G11961   4.311   4.618  10.144  1.3481  0.4964 -2.4404
  114OSM   C15F11962   4.514   4.681  10.093 -0.2922 -0.1428 -0.4904
  114OSM   H15F11963   4.539   4.591  10.034 -1.0822 -0.5904 -0.1649
  114OSM   H15G11964   4.605   4.713  10.147 -0.5274 -0.9056  0.3826
  114OSM   C16F11965   4.466   4.782   9.983 -0.5190  1.1713  0.2987
  114OSM   H16F11966   4.373   4.741   9.936  0.0975  2.1254 -1.8835
  114OSM   H16G11967   4.553   4.783   9.914 -0.3361  2.4006  0.5355
  114OSM   C17F11968   4.466   4.933  10.024  0.8496  0.6576 -0.3669
  114OSM   H17F11969   4.568   4.945  10.064  2.6314 -2.0107 -3.6051
  114OSM   H17G11970   4.383   4.943  10.098 -0.4016 -0.7662 -1.5026
  114OSM   C18F11971   4.458   5.032   9.910  0.2380 -0.6279 -0.0026
  114OSM   H18F11972   4.379   5.012   9.834 -2.1498  1.4927  1.7635
  114OSM   H18G11973   4.557   5.050   9.864  0.7214 -0.1246  1.2122
  114OSM   H18H11974   4.435   5.137   9.937 -0.3954 -1.1231  1.4935
  115OSM      N11975   1.837   5.022  11.361 -1.2336 -0.0187 -0.3558
  115OSM    C1511976   1.778   5.153  11.407  0.3953  0.4854 -0.4785
  115OSM   H15A11977   1.682   5.146  11.456  0.6221  1.4285  0.1259
  115OSM   H15B11978   1.759   5.223  11.327  0.7089  2.1341  0.8312
  115OSM   H15C11979   1.842   5.209  11.473 -1.7386  0.6453  1.5726
  115OSM    C1411980   1.909   4.943  11.470  0.0093 -0.7501 -0.4407
  115OSM   H14A11981   1.927   4.838  11.454  1.2893 -0.8392  1.3433
  115OSM   H14B11982   1.858   4.938  11.565  1.0497  0.3068  0.1987
  115OSM   H14C11983   2.006   4.982  11.496  0.0685 -1.8172  1.0430
  115OSM    C1311984   1.725   4.942  11.305 -0.0837  0.6710  0.2509
  115OSM   H13A11985   1.761   4.849  11.265  0.8639  0.0608  2.3977
  115OSM   H13B11986   1.684   4.997  11.221 -0.8866  0.0797  0.2481
  115OSM   H13C11987   1.647   4.919  11.377  1.4666 -2.6819  1.0258
  115OSM    C1211988   1.936   5.058  11.252  0.3900  0.5909  0.1325
  115OSM   H12A11989   1.987   4.966  11.229 -0.4583  0.1792 -0.1509
  115OSM   H12B11990   2.024   5.111  11.285  1.2798 -0.6573 -0.1510
  115OSM    C1111991   1.888   5.113  11.117 -0.0241 -0.8262 -0.1713
  115OSM   H11A11992   1.799   5.059  11.078 -1.3236  0.6548  0.6200
  115OSM   H11B11993   1.980   5.104  11.055  1.2208 -0.5073  1.5829
  115OSM      P11994   1.881   5.373  11.059  0.2456 -0.1538  0.2011
  115OSM    O1311995   1.840   5.495  11.131 -1.1134 -0.0235 -0.3021
  115OSM    O1411996   2.021   5.365  11.015 -0.1201 -0.1128  0.2883
  115OSM    O1111997   1.790   5.349  10.938  0.3807 -0.1971  0.6331
  115OSM    O1211998   1.841   5.248  11.145 -0.2933 -0.0933 -0.2719
  115OSM    C1S11999   1.647   5.322  10.942 -0.0985  0.1517  0.1075
  115OSM    H1S12000   1.595   5.396  11.007 -0.5093  0.5517 -0.6733
  115OSM    H1T12001   1.627   5.220  10.981  0.4411  0.4743  1.2949
  115OSM     NF12002   1.443   5.345  10.797  0.8477  0.1785 -0.0893
  115OSM    HNF12003   1.395   5.259  10.781 -0.8253  1.4276 -2.3735
  115OSM    C2S12004   1.593   5.338  10.790  0.0721  0.0532  0.2128
  115OSM    H2S12005   1.637   5.433  10.754 -1.6212  0.2517 -1.5101
  115OSM    C3S12006   1.646   5.225  10.698  0.0637 -0.3371 -0.2995
  115OSM    H3S12007   1.615   5.124  10.733  2.8936 -0.3937  2.4889
  115OSM     O312008   1.787   5.212  10.693 -0.1196  0.3055  0.2432
  115OSM    HO312009   1.812   5.258  10.773 -1.0037 -1.1569  1.4178
  115OSM    C4S12010   1.601   5.245  10.556 -0.0878 -0.2423  0.2765
  115OSM    H4S12011   1.640   5.339  10.513  0.7066 -1.5574 -2.0193
  115OSM    C5S12012   1.532   5.164  10.477  0.1800  0.4696  0.1686
  115OSM    H5S12013   1.501   5.064  10.512  0.7877  0.3302  0.3208
  115OSM    C6S12014   1.506   5.190  10.337  0.1273  0.4921 -0.4546
  115OSM    H6S12015   1.397   5.189  10.315 -0.1278 -1.0691  0.6981
  115OSM    H6T12016   1.553   5.113  10.272  2.1328  1.2114  0.0584
  115OSM    C7S12017   1.557   5.320  10.269  0.3160 -0.0706  0.1528
  115OSM    H7S12018   1.668   5.320  10.269  0.3538 -0.6172 -1.8522
  115OSM    H7T12019   1.520   5.414  10.316  0.4836  1.8202 -3.1884
  115OSM    C8S12020   1.504   5.337  10.127 -0.4524 -0.2131  0.5524
  115OSM    H8S12021   1.526   5.439  10.089 -1.9551 -0.4959 -1.2571
  115OSM    H8T12022   1.393   5.337  10.136 -0.5098 -1.0828  0.0149
  115OSM    C9S12023   1.560   5.241  10.026  0.2318  0.9788  0.0643
  115OSM    H9S12024   1.526   5.136  10.041  0.8355  0.6517 -0.7776
  115OSM    H9T12025   1.671   5.238  10.030  0.2480 -1.7668  0.0847
  115OSM   C10S12026   1.521   5.291   9.885  0.1464 -0.1031  0.5240
  115OSM   H10S12027   1.541   5.400   9.884 -0.2484 -0.0312 -0.5066
  115OSM   H10T12028   1.411   5.284   9.876  0.0971  0.9669  0.1419
  115OSM   C11S12029   1.602   5.221   9.775 -0.3160 -0.4213 -0.5818
  115OSM   H11S12030   1.600   5.110   9.767  1.6871 -0.4185 -2.0520
  115OSM   H11T12031   1.708   5.237   9.805 -0.7935  1.5026  0.2452
  115OSM   C12S12032   1.581   5.283   9.640 -0.2709 -0.7528 -0.0877
  115OSM   H12S12033   1.629   5.381   9.622  0.5491 -1.5903 -2.9392
  115OSM   H12T12034   1.472   5.297   9.624 -0.1110 -1.1173 -1.6415
  115OSM   C13S12035   1.633   5.199   9.519  0.4619 -0.5598  0.1813
  115OSM   H13S12036   1.579   5.102   9.527 -0.3002 -0.1412  0.2211
  115OSM   H13T12037   1.738   5.199   9.554  0.6448  1.7725 -0.2062
  115OSM   C14S12038   1.616   5.259   9.379 -0.3587  0.5214 -0.3028
  115OSM   H14S12039   1.679   5.192   9.317  0.2809  0.5906  0.2546
  115OSM   H14T12040   1.652   5.363   9.361 -2.6601  0.9019 -3.5695
  115OSM   C15S12041   1.473   5.250   9.324  0.8977 -0.4563  0.6821
  115OSM   H15S12042   1.408   5.294   9.403 -0.5671 -0.1237 -0.6494
  115OSM   H15T12043   1.446   5.146   9.297  1.5727 -0.6433  0.7357
  115OSM   C16S12044   1.449   5.332   9.195  0.3935 -0.2561  0.2564
  115OSM   H16S12045   1.367   5.296   9.128  1.1849 -1.8421  0.0979
  115OSM   H16T12046   1.538   5.323   9.129  0.2838  0.4734  0.0050
  115OSM   C17S12047   1.444   5.487   9.202 -0.0508 -0.0866  0.0207
  115OSM   H17S12048   1.528   5.531   9.260  0.2856 -0.0635 -0.4823
  115OSM   H17T12049   1.360   5.512   9.271  1.7639  0.9641  1.9868
  115OSM   C18S12050   1.432   5.556   9.073  0.5399  0.3653 -0.4956
  115OSM   H18S12051   1.523   5.547   9.009  0.5611 -3.2973 -0.1451
  115OSM   H18T12052   1.397   5.661   9.083 -2.0158 -0.3582 -1.1024
  115OSM   H18U12053   1.350   5.505   9.018  0.1422 -0.1727  0.5689
  115OSM    C1F12054   1.386   5.455  10.841 -0.1498  0.6443 -0.1525
  115OSM     OF12055   1.450   5.555  10.854  0.6364 -0.2151  0.1660
  115OSM    C2F12056   1.244   5.438  10.881 -0.1061  0.5729 -0.2888
  115OSM    H2F12057   1.236   5.421  10.991  3.6308 -2.4234 -0.2616
  115OSM    H2G12058   1.199   5.349  10.831 -3.7225  0.5134  2.5847
  115OSM    C3F12059   1.173   5.572  10.857  0.8001  0.0082  0.6451
  115OSM    H3F12060   1.174   5.603  10.750  4.5101  2.5262  1.1975
  115OSM    H3G12061   1.221   5.661  10.904 -0.1000 -0.7494  3.1298
  115OSM    C4F12062   1.021   5.568  10.891 -0.1959 -0.8677  0.0483
  115OSM    H4F12063   1.014   5.523  10.992 -2.4105  0.0962  0.3850
  115OSM    H4G12064   0.962   5.511  10.816 -1.6639  0.8075 -0.1542
  115OSM    C5F12065   0.966   5.716  10.902  0.5850  0.4187  0.5432
  115OSM    H5F12066   1.037   5.782  10.956 -0.9202  1.3860  1.4135
  115OSM    H5G12067   0.870   5.712  10.957  0.1501  3.0906  0.1180
  115OSM    C6F12068   0.939   5.780  10.765  0.5286 -0.3182 -0.4167
  115OSM    H6F12069   0.869   5.709  10.716 -0.4989 -2.9594  4.2303
  115OSM    H6G12070   1.025   5.775  10.695  0.1288 -2.5343 -0.8255
  115OSM    C7F12071   0.894   5.927  10.779  0.2090 -1.1099 -0.6450
  115OSM    H7F12072   0.886   5.983  10.683  0.5518 -1.6482 -1.0009
  115OSM    H7G12073   0.976   5.974  10.836 -2.6721  1.3838  1.7652
  115OSM    C8F12074   0.769   5.955  10.865  0.0684  0.3543 -1.1022
  115OSM    H8F12075   0.780   5.902  10.963 -0.5338 -0.1753 -1.3102
  115OSM    H8G12076   0.679   5.903  10.826  0.3939 -1.0007 -0.1480
  115OSM    C9F12077   0.730   6.094  10.886  0.3770 -0.3778 -0.0640
  115OSM    H9F12078   0.818   6.154  10.911  0.5312 -0.2358 -0.9367
  115OSM   C10F12079   0.606   6.150  10.848  0.5581  0.0254 -0.8220
  115OSM   H10F12080   0.595   6.257  10.868  2.3247 -0.2308  2.0147
  115OSM   C11F12081   0.481   6.086  10.793 -0.1973 -0.3156 -0.5957
  115OSM   H11F12082   0.404   6.136  10.855 -0.2030 -0.1448 -0.7407
  115OSM   H11G12083   0.475   5.978  10.818  1.0587  0.4968  4.0929
  115OSM   C12F12084   0.460   6.111  10.650 -0.5854 -0.1579  0.4404
  115OSM   H12F12085   0.487   6.214  10.620  2.2801 -0.8819  0.2011
  115OSM   H12G12086   0.351   6.098  10.632 -0.6235 -1.4021  1.3851
  115OSM   C13F12087   0.553   6.024  10.562  0.3408  0.2529 -0.2225
  115OSM   H13F12088   0.508   5.925  10.585  1.2136  0.1497  1.1029
  115OSM   H13G12089   0.656   6.019  10.605  0.4740  2.3427 -0.1901
  115OSM   C14F12090   0.554   6.054  10.407  0.2713  0.5117  0.3970
  115OSM   H14F12091   0.593   6.157  10.390 -0.8881  0.8831 -0.0841
  115OSM   H14G12092   0.451   6.042  10.369  1.4076  0.8538 -3.2683
  115OSM   C15F12093   0.644   5.954  10.319  0.7033  0.0150 -0.2601
  115OSM   H15F12094   0.630   5.848  10.349 -0.8841  0.9451  2.6584
  115OSM   H15G12095   0.749   5.984  10.341  0.6509 -0.3889  0.5821
  115OSM   C16F12096   0.625   5.957  10.169 -0.3920  0.3124  0.4313
  115OSM   H16F12097   0.643   6.060  10.132  0.5023  0.0208  0.0026
  115OSM   H16G12098   0.517   5.931  10.159 -0.2457  0.2403 -1.4325
  115OSM   C17F12099   0.707   5.862  10.083 -0.3711  0.3027  0.5913
  115OSM   H17F12100   0.669   5.760  10.103 -0.4544 -0.4620 -2.8526
  115OSM   H17G12101   0.816   5.865  10.109  0.2037  1.7051 -1.6545
  115OSM   C18F12102   0.684   5.871   9.933 -0.6352 -0.7664  0.3684
  115OSM   H18F12103   0.742   5.794   9.877 -0.3509 -1.2229  1.2675
  115OSM   H18G12104   0.711   5.967   9.885 -3.0599 -0.4450 -0.5027
  115OSM   H18H12105   0.582   5.838   9.905 -0.2027 -1.1541 -0.8495
  116OSM      N12106   5.014   6.612  10.984  0.0158 -1.0531 -0.1236
  116OSM    C1512107   5.065   6.711  10.889  0.3641  0.0819  0.5169
  116OSM   H15A12108   5.013   6.806  10.896  1.1462  0.4576  1.6278
  116OSM   H15B12109   5.057   6.665  10.792  1.3523 -0.1831  0.5496
  116OSM   H15C12110   5.168   6.738  10.911  1.5388 -2.9013 -0.7781
  116OSM    C1412111   4.873   6.579  10.945  0.2333 -0.1609 -0.0698
  116OSM   H14A12112   4.805   6.662  10.939  1.9483  1.3200 -0.0201
  116OSM   H14B12113   4.834   6.511  11.019 -1.5091  0.7298 -0.1299
  116OSM   H14C12114   4.868   6.529  10.849 -0.7773 -1.4601  0.6307
  116OSM    C1312115   5.103   6.491  10.971 -0.2057 -0.1956  0.9355
  116OSM   H13A12116   5.206   6.520  10.985 -0.1788 -0.1502  0.6469
  116OSM   H13B12117   5.096   6.435  10.878  0.0618  0.2185  0.6619
  116OSM   H13C12118   5.085   6.413  11.044 -0.1493 -0.5374  0.5917
  116OSM    C1212119   5.025   6.664  11.127  0.2116 -0.1039  0.3143
  116OSM   H12A12120   5.129   6.672  11.156  0.1517  2.1260  0.0775
  116OSM   H12B12121   4.983   6.589  11.192 -1.2497 -0.1251 -0.6156
  116OSM    C1112122   4.968   6.798  11.155  0.0210  1.0292 -0.4572
  116OSM   H11A12123   5.029   6.878  11.109  2.5955 -0.9064 -0.6223
  116OSM   H11B12124   4.981   6.816  11.264 -1.4459  2.7493 -0.5104
  116OSM      P12125   4.749   6.931  11.117  0.4711  0.2725 -0.2796
  116OSM    O1312126   4.615   6.900  11.058  0.1248 -0.0048 -0.3069
  116OSM    O1412127   4.748   6.987  11.256  0.1817  0.0606  0.9643
  116OSM    O1112128   4.821   7.038  11.022  0.1254  0.6160  0.9598
  116OSM    O1212129   4.830   6.797  11.119 -0.6531 -0.0112  0.0845
  116OSM    C1S12130   4.865   7.000  10.891 -0.4107 -0.3301 -0.0660
  116OSM    H1S12131   4.886   6.893  10.874 -1.6715 -0.5477 -0.3404
  116OSM    H1T12132   4.961   7.050  10.869 -0.6346 -0.1755 -0.7185
  116OSM     NF12133   4.804   6.982  10.651 -0.4783  0.7653 -0.4793
  116OSM    HNF12134   4.864   7.025  10.585 -0.0178 -0.6283 -0.9974
  116OSM    C2S12135   4.773   7.051  10.780  0.0806  0.0622 -0.0230
  116OSM    H2S12136   4.670   7.022  10.810  0.7431 -2.7021 -0.0631
  116OSM    C3S12137   4.775   7.208  10.784 -0.2207  0.1091 -0.4476
  116OSM    H3S12138   4.881   7.236  10.769 -0.2157 -0.6887 -2.2225
  116OSM     O312139   4.738   7.265  10.910 -0.2471 -0.1182 -0.2212
  116OSM    HO312140   4.726   7.197  10.977  1.9898 -2.0065 -1.5882
  116OSM    C4S12141   4.690   7.258  10.668  0.4520  0.1056  0.1632
  116OSM    H4S12142   4.753   7.274  10.579 -0.7501 -0.1573 -0.7551
  116OSM    C5S12143   4.559   7.267  10.675  0.2398  0.0258  0.7136
  116OSM    H5S12144   4.506   7.245  10.769 -0.7415 -0.1969  0.1260
  116OSM    C6S12145   4.471   7.308  10.562  0.2122 -0.3520 -0.1758
  116OSM    H6S12146   4.524   7.332  10.467  1.0246 -3.1330 -0.5007
  116OSM    H6T12147   4.405   7.396  10.582  1.1418  0.3013  0.1010
  116OSM    C7S12148   4.377   7.186  10.530 -0.0457  0.5013 -0.0528
  116OSM    H7S12149   4.323   7.148  10.620 -0.5641 -2.6086 -1.5550
  116OSM    H7T12150   4.440   7.103  10.491  0.2293  0.9356 -0.5429
  116OSM    C8S12151   4.287   7.233  10.419  0.2307 -0.9386  0.3438
  116OSM    H8S12152   4.352   7.273  10.338 -2.6539 -0.3933 -1.8669
  116OSM    H8T12153   4.222   7.319  10.448  1.2185  0.6284 -1.7679
  116OSM    C9S12154   4.197   7.122  10.366  0.0021  0.5663  0.2402
  116OSM    H9S12155   4.121   7.086  10.438 -0.3646  1.8620  0.5183
  116OSM    H9T12156   4.261   7.037  10.333  0.5940  0.1573  2.3209
  116OSM   C10S12157   4.121   7.167  10.242  0.0897 -0.0256 -0.7104
  116OSM   H10S12158   4.064   7.261  10.258  0.4015  0.3388 -1.6779
  116OSM   H10T12159   4.040   7.093  10.226  2.2998 -3.0536  1.0680
  116OSM   C11S12160   4.210   7.149  10.117  0.2804  0.6498 -0.5678
  116OSM   H11S12161   4.223   7.039  10.107  2.6995  0.8391 -0.2665
  116OSM   H11T12162   4.312   7.191  10.132  0.5616 -0.3604  0.5291
  116OSM   C12S12163   4.140   7.206   9.992  0.4451  0.2773  0.8975
  116OSM   H12S12164   4.140   7.317  10.004 -3.1473  0.2201  2.6130
  116OSM   H12T12165   4.033   7.175   9.993 -0.2707  2.5225  0.5951
  116OSM   C13S12166   4.227   7.173   9.861 -0.0577 -0.5327 -0.1199
  116OSM   H13S12167   4.221   7.064   9.840 -2.1272 -0.6784  0.8955
  116OSM   H13T12168   4.328   7.208   9.887  0.5339 -1.8790 -0.4861
  116OSM   C14S12169   4.176   7.241   9.742  0.9103  0.0436  0.6477
  116OSM   H14S12170   4.151   7.349   9.750 -0.4022 -0.0412 -1.5011
  116OSM   H14T12171   4.084   7.185   9.717  0.7274  0.9866 -0.9539
  116OSM   C15S12172   4.258   7.226   9.616  0.3437 -0.5032 -0.2405
  116OSM   H15S12173   4.271   7.116   9.607  0.7737 -0.6388  1.6626
  116OSM   H15T12174   4.351   7.287   9.625 -1.2890  2.1605 -0.2180
  116OSM   C16S12175   4.186   7.270   9.484 -0.0758  0.6860 -0.1027
  116OSM   H16S12176   4.139   7.370   9.492 -1.2995  0.2204 -1.0063
  116OSM   H16T12177   4.105   7.196   9.466  0.5644  0.1317 -0.8219
  116OSM   C17S12178   4.264   7.268   9.355 -0.1859  0.0950  0.1806
  116OSM   H17S12179   4.185   7.295   9.281 -0.4084  1.9585  1.0355
  116OSM   H17T12180   4.311   7.171   9.328  1.0737  0.8073 -0.2929
  116OSM   C18S12181   4.357   7.389   9.361  0.2153  0.2874 -0.1124
  116OSM   H18S12182   4.433   7.371   9.282 -0.2785  0.4476 -0.6298
  116OSM   H18T12183   4.412   7.387   9.457  3.1972 -1.2027 -1.7058
  116OSM   H18U12184   4.302   7.485   9.352  1.4679  0.9096 -1.6669
  116OSM    C1F12185   4.766   6.851  10.627  0.0256 -0.0636  0.6514
  116OSM     OF12186   4.701   6.789  10.708  0.3936  0.3851  0.2537
  116OSM    C2F12187   4.816   6.792  10.498 -0.6314  1.2134 -0.3205
  116OSM    H2F12188   4.911   6.738  10.517 -0.6203  0.6945 -1.7251
  116OSM    H2G12189   4.853   6.879  10.439 -0.1235  0.3228 -1.3506
  116OSM    C3F12190   4.706   6.714  10.423 -0.2407  0.8813  0.2836
  116OSM    H3F12191   4.618   6.779  10.406 -1.7080 -1.3685 -1.1459
  116OSM    H3G12192   4.676   6.630  10.489 -0.6897  2.1031  1.7057
  116OSM    C4F12193   4.742   6.630  10.302 -0.4246  0.3291  0.2454
  116OSM    H4F12194   4.835   6.572  10.319 -0.5231  0.5655  1.7012
  116OSM    H4G12195   4.769   6.710  10.229 -1.8614  0.8567  0.2699
  116OSM    C5F12196   4.638   6.544  10.240  0.1700 -0.3197 -0.5221
  116OSM    H5F12197   4.541   6.596  10.257  1.5685  2.1973  0.2299
  116OSM    H5G12198   4.617   6.451  10.297 -2.1511  0.4936  0.0816
  116OSM    C6F12199   4.660   6.506  10.090 -0.8333 -0.6845  0.1789
  116OSM    H6F12200   4.743   6.432  10.082 -0.2280  0.1581 -1.8798
  116OSM    H6G12201   4.677   6.587  10.016  1.9572 -1.0013  0.3575
  116OSM    C7F12202   4.544   6.412  10.042 -0.5880 -0.1851  0.2142
  116OSM    H7F12203   4.443   6.457  10.038 -0.3359  0.2860 -1.9389
  116OSM    H7G12204   4.536   6.322  10.108 -0.9483 -0.1272  0.2485
  116OSM    C8F12205   4.542   6.363   9.889 -0.0190 -0.3704 -0.3532
  116OSM    H8F12206   4.550   6.448   9.818  1.7055 -0.0021  0.2472
  116OSM    H8G12207   4.440   6.321   9.875 -0.3990 -0.3140  1.8157
  116OSM    C9F12208   4.649   6.255   9.877  0.0132  0.5674  0.0302
  116OSM    H9F12209   4.732   6.259   9.949 -0.1880  3.3210  0.2196
  116OSM   C10F12210   4.676   6.185   9.763 -0.0984  0.8915 -0.0171
  116OSM   H10F12211   4.768   6.125   9.766 -1.2875 -1.0071  0.3779
  116OSM   C11F12212   4.606   6.184   9.628  0.8460 -0.0287  0.1067
  116OSM   H11F12213   4.647   6.268   9.568  0.8591  0.0491  0.2242
  116OSM   H11G12214   4.498   6.203   9.642  0.4286 -2.4739  0.6386
  116OSM   C12F12215   4.624   6.054   9.553 -0.5693  0.0901 -0.1482
  116OSM   H12F12216   4.585   5.969   9.614 -0.7886  1.2123  1.3103
  116OSM   H12G12217   4.731   6.033   9.533 -0.5955  1.6526 -2.3505
  116OSM   C13F12218   4.547   6.036   9.413 -0.4390  0.1281  0.2181
  116OSM   H13F12219   4.590   5.958   9.347  0.1017 -0.5120  1.2863
  116OSM   H13G12220   4.548   6.128   9.351  1.1540  0.3011  0.4723
  116OSM   C14F12221   4.405   5.985   9.429  0.2885 -0.1195 -0.1184
  116OSM   H14F12222   4.362   6.042   9.514  2.9091 -1.1494  2.0575
  116OSM   H14G12223   4.411   5.878   9.455 -3.7975 -0.4651 -0.0734
  116OSM   C15F12224   4.324   5.984   9.297  0.5957  0.2005 -0.7995
  116OSM   H15F12225   4.320   6.088   9.257 -3.1041  0.4160 -0.2752
  116OSM   H15G12226   4.221   5.946   9.315  0.7030  0.2332 -0.0827
  116OSM   C16F12227   4.391   5.895   9.194 -0.1702  0.0106 -0.4347
  116OSM   H16F12228   4.428   5.802   9.242  2.0064  0.0069 -1.9324
  116OSM   H16G12229   4.489   5.931   9.154  0.5195 -0.9483  0.3224
  116OSM   C17F12230   4.303   5.861   9.074 -0.4173 -0.0812  0.1179
  116OSM   H17F12231   4.210   5.815   9.113  0.5465 -0.2810  2.3568
  116OSM   H17G12232   4.343   5.788   9.001 -1.2685  1.3438 -1.8364
  116OSM   C18F12233   4.258   5.987   8.999  0.0917 -0.1604 -0.8140
  116OSM   H18F12234   4.348   6.044   8.968 -1.2927  2.8929  0.3954
  116OSM   H18G12235   4.195   6.052   9.063 -1.0112  0.1290 -2.1270
  116OSM   H18H12236   4.204   5.968   8.903 -0.8828  2.7153 -0.9310
  117OSM      N12237   2.221   2.428  10.998  0.0852 -0.4419 -0.1724
  117OSM    C1512238   2.197   2.309  10.907  0.3964 -0.9982  0.2976
  117OSM   H15A12239   2.146   2.341  10.818 -2.0608 -0.3295  1.8618
  117OSM   H15B12240   2.134   2.235  10.953 -1.7411  0.8473  0.4883
  117OSM   H15C12241   2.291   2.261  10.885  0.5292 -0.6605  0.1194
  117OSM    C1412242   2.299   2.524  10.921 -0.1765 -0.6120 -0.1671
  117OSM   H14A12243   2.321   2.614  10.977  2.3344 -1.1171 -0.2046
  117OSM   H14B12244   2.248   2.551  10.829 -2.2736 -0.6514  0.9346
  117OSM   H14C12245   2.397   2.485  10.896  0.3987  1.3242 -1.1776
  117OSM    C1312246   2.091   2.486  11.039  0.0355  0.4987 -0.0986
  117OSM   H13A12247   2.098   2.572  11.104 -2.5971  1.4232 -0.9226
  117OSM   H13B12248   2.025   2.411  11.081 -1.3494 -0.3488 -3.4956
  117OSM   H13C12249   2.042   2.510  10.946 -2.1903 -1.8422  0.3370
  117OSM    C1212250   2.309   2.390  11.121 -0.5896  0.5290  0.2485
  117OSM   H12A12251   2.251   2.325  11.184  1.6895 -3.6560 -1.5874
  117OSM   H12B12252   2.318   2.482  11.177 -0.6320  0.9498 -0.4260
  117OSM    C1112253   2.451   2.326  11.104 -0.1473  0.4543  0.1582
  117OSM   H11A12254   2.439   2.245  11.029  2.4449  1.0529 -1.0166
  117OSM   H11B12255   2.482   2.272  11.197  1.3134  1.5749  0.3539
  117OSM      P12256   2.592   2.531  11.180  0.1915 -0.0006  0.0740
  117OSM    O1312257   2.494   2.531  11.289 -0.0726 -0.1887 -0.2732
  117OSM    O1412258   2.730   2.516  11.218 -0.5889  0.0527 -0.9679
  117OSM    O1112259   2.567   2.672  11.097 -0.2445  0.5427 -0.2512
  117OSM    O1212260   2.551   2.421  11.072 -0.6106 -0.0426  0.5431
  117OSM    C1S12261   2.668   2.715  11.001  0.4071 -0.0448 -0.9578
  117OSM    H1S12262   2.665   2.654  10.908  0.2590 -0.2637 -0.8084
  117OSM    H1T12263   2.768   2.695  11.046 -1.3218 -0.4930  3.1867
  117OSM     NF12264   2.713   2.897  10.838 -0.4804 -0.2114  0.5633
  117OSM    HNF12265   2.774   2.975  10.834 -0.0173 -0.4722  1.8467
  117OSM    C2S12266   2.659   2.868  10.975 -0.1973  1.0277 -0.4403
  117OSM    H2S12267   2.555   2.906  10.971 -0.7435 -0.3767  0.0158
  117OSM    C3S12268   2.738   2.953  11.085  0.4533  0.2468 -0.0759
  117OSM    H3S12269   2.710   3.061  11.079  0.8486  0.3610  0.1067
  117OSM     O312270   2.877   2.944  11.071 -0.6390 -0.4077  0.7848
  117OSM    HO312271   2.891   2.934  10.977 -0.4578  3.0601  0.3385
  117OSM    C4S12272   2.708   2.913  11.224 -0.1213 -0.2140 -0.3706
  117OSM    H4S12273   2.728   2.810  11.256  1.9280  1.0092  2.7193
  117OSM    C5S12274   2.668   2.993  11.319 -0.0048  0.1262 -0.8299
  117OSM    H5S12275   2.647   3.097  11.290  0.7809  0.0463 -1.7269
  117OSM    C6S12276   2.639   2.955  11.467 -0.1925 -0.2282 -0.8049
  117OSM    H6S12277   2.529   2.965  11.482  0.0609  2.1918 -0.2060
  117OSM    H6T12278   2.686   3.032  11.531  0.5341  0.4322 -2.0883
  117OSM    C7S12279   2.665   2.814  11.515 -0.2526  0.3938 -0.0712
  117OSM    H7S12280   2.645   2.741  11.433  0.9237  0.0834 -0.0987
  117OSM    H7T12281   2.613   2.775  11.606  1.5706 -3.7156 -0.5368
  117OSM    C8S12282   2.815   2.790  11.550 -0.0142  0.1593 -0.0298
  117OSM    H8S12283   2.870   2.873  11.598  1.8370 -1.5462  0.9428
  117OSM    H8T12284   2.864   2.768  11.452 -0.2467  0.7306 -0.2786
  117OSM    C9S12285   2.829   2.665  11.638  0.8009  0.5311  0.4546
  117OSM    H9S12286   2.762   2.673  11.727 -0.8320 -1.6220 -0.4818
  117OSM    H9T12287   2.934   2.665  11.674  0.8815  0.3041  0.2261
  117OSM   C10S12288   2.795   2.536  11.560 -0.1491  0.5813  0.0029
  117OSM   H10S12289   2.864   2.524  11.474 -0.4323 -1.6988  0.0191
  117OSM   H10T12290   2.690   2.554  11.527  0.6991  2.9858 -1.6680
  117OSM   C11S12291   2.817   2.408  11.646  1.1180 -0.4463 -0.1819
  117OSM   H11S12292   2.805   2.448  11.749 -0.4656  2.8196 -1.4675
  117OSM   H11T12293   2.922   2.374  11.634  0.6892 -1.2917 -1.9145
  117OSM   C12S12294   2.711   2.295  11.619 -0.7304 -0.0183  0.4695
  117OSM   H12S12295   2.717   2.280  11.509  0.2895  0.2909  0.4768
  117OSM   H12T12296   2.610   2.330  11.649  0.2875  2.7602  0.8909
  117OSM   C13S12297   2.748   2.162  11.678  0.7051 -0.3430 -0.5907
  117OSM   H13S12298   2.856   2.143  11.692  0.2011 -1.0984  3.4878
  117OSM   H13T12299   2.718   2.075  11.616 -0.2509 -0.0749 -0.5335
  117OSM   C14S12300   2.680   2.134  11.815  0.5643 -0.0883  0.9654
  117OSM   H14S12301   2.695   2.229  11.871  4.6874  1.2581 -1.9803
  117OSM   H14T12302   2.741   2.055  11.864  1.1678  1.0169  2.0488
  117OSM   C15S12303   2.534   2.098  11.793  0.0344  0.0053 -0.4354
  117OSM   H15S12304   2.537   2.044  11.696  3.8923 -0.8112 -0.0537
  117OSM   H15T12305   2.484   2.195  11.775  1.4434  0.7363 -0.5378
  117OSM   C16S12306   2.472   2.005  11.897  0.6292  0.2207  0.5315
  117OSM   H16S12307   2.499   2.046  11.997  1.6782 -0.6534  0.6398
  117OSM   H16T12308   2.532   1.912  11.887  3.1207  1.5216  2.2147
  117OSM   C17S12309   2.323   2.008  11.877 -0.1593 -0.6036 -0.0933
  117OSM   H17S12310   2.269   2.101  11.905 -3.3973 -1.7698 -1.8912
  117OSM   H17T12311   2.276   1.938  11.949 -0.2267 -0.2787  0.1826
  117OSM   C18S12312   2.264   1.957  11.743  0.4578  0.0545 -0.0520
  117OSM   H18S12313   2.154   1.945  11.740 -0.0600  3.0112  2.0735
  117OSM   H18T12314   2.300   1.855  11.719 -0.9081 -0.4536 -0.0202
  117OSM   H18U12315   2.293   2.027  11.661  2.4890 -0.7026 -0.0510
  117OSM    C1F12316   2.651   2.853  10.729 -0.7955  0.0298 -0.0447
  117OSM     OF12317   2.552   2.781  10.734  0.2028  0.0578 -0.4563
  117OSM    C2F12318   2.698   2.894  10.597 -0.3000  0.9321 -0.2898
  117OSM    H2F12319   2.725   2.801  10.544 -1.6336 -0.0241  0.6512
  117OSM    H2G12320   2.793   2.951  10.598  0.6595 -0.5165 -2.2395
  117OSM    C3F12321   2.595   2.965  10.504  0.0014  0.2865 -0.4946
  117OSM    H3F12322   2.553   3.060  10.545  0.7142  0.8684 -1.0883
  117OSM    H3G12323   2.507   2.898  10.498  0.8707 -0.7055 -3.8120
  117OSM    C4F12324   2.668   3.005  10.375  0.0910  0.4577 -0.5049
  117OSM    H4F12325   2.771   3.037  10.402  1.6054 -2.8886 -1.7153
  117OSM    H4G12326   2.620   3.091  10.324  0.4334  1.8488  1.4021
  117OSM    C5F12327   2.687   2.888  10.279  0.4444 -0.4208 -0.1545
  117OSM    H5F12328   2.583   2.854  10.261 -0.0626 -0.3946  2.3395
  117OSM    H5G12329   2.749   2.808  10.326  1.3703  0.8930  0.9209
  117OSM    C6F12330   2.763   2.930  10.156 -0.0884 -0.7119  0.0992
  117OSM    H6F12331   2.870   2.953  10.174 -0.2522 -0.1532  0.3965
  117OSM    H6G12332   2.723   3.027  10.119  0.6074 -0.2814  0.4543
  117OSM    C7F12333   2.750   2.821  10.055  0.2372  0.1064 -0.1502
  117OSM    H7F12334   2.641   2.808  10.041  0.0702  2.1138 -0.9949
  117OSM    H7G12335   2.790   2.730  10.105  1.4342  1.0509  0.6681
  117OSM    C8F12336   2.820   2.845   9.921  0.2314 -0.4391  0.1396
  117OSM    H8F12337   2.803   2.757   9.856 -2.0243  0.7123 -0.9414
  117OSM    H8G12338   2.928   2.848   9.949  0.1557  0.5352  0.3442
  117OSM    C9F12339   2.772   2.977   9.857 -0.3156  0.1833  0.7894
  117OSM    H9F12340   2.684   3.025   9.903 -0.6069 -1.6983  2.3444
  117OSM   C10F12341   2.808   3.010   9.735 -0.1646 -0.8835  0.0984
  117OSM   H10F12342   2.757   3.096   9.688  0.6924 -0.1367  0.5094
  117OSM   C11F12343   2.899   2.944   9.633 -0.3434 -0.5761 -0.2719
  117OSM   H11F12344   2.906   2.836   9.660 -0.0841 -0.1699  1.3681
  117OSM   H11G12345   3.004   2.979   9.644 -0.2975 -1.0892  1.0735
  117OSM   C12F12346   2.859   2.964   9.490 -0.7852  0.4749  0.0046
  117OSM   H12F12347   2.759   2.919   9.472 -0.6463  0.3045 -0.3441
  117OSM   H12G12348   2.935   2.921   9.421 -0.6960  2.4333 -1.1703
  117OSM   C13F12349   2.874   3.111   9.437  0.3257 -0.0218  0.8130
  117OSM   H13F12350   2.981   3.142   9.434  0.0958  1.2308  3.1075
  117OSM   H13G12351   2.818   3.184   9.500 -0.1105 -1.6965  2.4854
  117OSM   C14F12352   2.822   3.124   9.289 -0.5530 -0.4342  0.1091
  117OSM   H14F12353   2.717   3.089   9.279  0.0433 -3.4292  2.7847
  117OSM   H14G12354   2.889   3.053   9.236  0.5803 -0.4578  1.5090
  117OSM   C15F12355   2.834   3.262   9.221 -0.1223  0.3332  0.0970
  117OSM   H15F12356   2.936   3.291   9.187 -0.7789  1.0729 -1.3469
  117OSM   H15G12357   2.801   3.340   9.293  0.0385  1.9389 -1.4914
  117OSM   C16F12358   2.739   3.262   9.098 -0.1819 -0.4874 -0.0314
  117OSM   H16F12359   2.745   3.354   9.037 -0.3992 -0.1853  0.3921
  117OSM   H16G12360   2.636   3.269   9.140 -0.0115  0.8698  0.2207
  117OSM   C17F12361   2.764   3.146   8.996 -0.3490  0.2506  0.4831
  117OSM   H17F12362   2.834   3.065   9.027  2.4801  2.1888 -0.4025
  117OSM   H17G12363   2.828   3.185   8.914 -2.0262  0.0404 -0.9815
  117OSM   C18F12364   2.644   3.087   8.941  0.1814 -0.4875  0.0993
  117OSM   H18F12365   2.580   3.167   8.897 -0.5013 -1.4036 -0.6061
  117OSM   H18G12366   2.590   3.037   9.024 -0.1127  0.1453  0.2944
  117OSM   H18H12367   2.672   3.015   8.861  0.5760 -0.7336  0.4536
  118OSM      N12368   2.114   3.626  11.444 -0.1834  1.0342 -0.4427
  118OSM    C1512369   2.048   3.756  11.431 -0.1716 -0.2903 -0.0069
  118OSM   H15A12370   2.055   3.827  11.512  0.5244  1.9588 -1.9416
  118OSM   H15B12371   1.952   3.738  11.385  0.1254  1.4127 -1.3781
  118OSM   H15C12372   2.117   3.804  11.364 -2.1279  0.4007 -1.6199
  118OSM    C1412373   2.251   3.635  11.503 -0.2411 -0.1840 -0.5514
  118OSM   H14A12374   2.248   3.686  11.598  0.8743 -1.2593  0.0819
  118OSM   H14B12375   2.304   3.687  11.425  1.0659  1.5128  1.3923
  118OSM   H14C12376   2.286   3.534  11.515 -0.0314 -0.4172 -2.7691
  118OSM    C1312377   2.029   3.547  11.547  0.2763  0.3578 -0.4618
  118OSM   H13A12378   2.032   3.589  11.647 -1.7708  0.2997 -0.3364
  118OSM   H13B12379   2.058   3.443  11.541  1.2782  0.7237 -2.8293
  118OSM   H13C12380   1.924   3.559  11.525 -0.2349  1.5842  2.1447
  118OSM    C1212381   2.111   3.544  11.316  0.1195 -0.5095  0.2872
  118OSM   H12A12382   2.009   3.547  11.281  0.2319  1.3496  0.0357
  118OSM   H12B12383   2.131   3.438  11.325 -1.2564 -1.0552 -2.1540
  118OSM    C1112384   2.194   3.600  11.201  0.1314 -0.2755 -0.4637
  118OSM   H11A12385   2.157   3.698  11.165  0.9014 -0.1710 -1.0030
  118OSM   H11B12386   2.186   3.529  11.116 -0.9671  0.2787 -0.8419
  118OSM      P12387   2.415   3.491  11.254 -0.2658  0.5388 -0.1107
  118OSM    O1312388   2.516   3.532  11.356  0.2261 -0.3611  0.1465
  118OSM    O1412389   2.325   3.374  11.280  0.1148 -0.0602 -0.4970
  118OSM    O1112390   2.487   3.477  11.113 -0.2202 -0.4643  0.1960
  118OSM    O1212391   2.331   3.617  11.235  0.2000 -0.1635  0.2051
  118OSM    C1S12392   2.428   3.403  11.007  0.5751  0.3205  0.3259
  118OSM    H1S12393   2.323   3.436  10.988  0.1719  0.8348  3.0632
  118OSM    H1T12394   2.422   3.296  11.034 -0.2556  0.2258 -0.1956
  118OSM     NF12395   2.428   3.377  10.761 -0.4521  0.6943  0.4856
  118OSM    HNF12396   2.427   3.282  10.732  0.1213  0.8145  0.0493
  118OSM    C2S12397   2.511   3.408  10.878  0.4357  0.6381  0.0409
  118OSM    H2S12398   2.557   3.509  10.865  1.8036 -0.2186 -2.2686
  118OSM    C3S12399   2.628   3.310  10.893 -0.1807  0.2701  0.5803
  118OSM    H3S12400   2.594   3.205  10.888  1.4286 -0.2149 -1.4152
  118OSM     O312401   2.713   3.334  11.004  0.3896 -0.5439 -0.3072
  118OSM    HO312402   2.658   3.396  11.054 -2.1850  0.3491 -3.8656
  118OSM    C4S12403   2.713   3.331  10.775 -0.4473  0.3313 -1.0419
  118OSM    H4S12404   2.685   3.270  10.688  2.7910 -1.2415 -1.1255
  118OSM    C5S12405   2.821   3.412  10.762 -0.3739 -0.1158  0.7152
  118OSM    H5S12406   2.869   3.461  10.848  2.2840  0.5770 -1.0156
  118OSM    C6S12407   2.898   3.436  10.634  0.4465  0.7502  0.0672
  118OSM    H6S12408   3.003   3.419  10.665  0.7418  0.7345 -0.9106
  118OSM    H6T12409   2.883   3.541  10.600  2.5030  0.8388 -0.6890
  118OSM    C7S12410   2.870   3.346  10.505 -0.6725  0.1743  0.4740
  118OSM    H7S12411   2.760   3.348  10.490 -0.6026  0.2764 -0.0719
  118OSM    H7T12412   2.893   3.243  10.540 -1.6591  0.4717  2.0580
  118OSM    C8S12413   2.951   3.377  10.371 -0.0252 -0.5419 -0.4276
  118OSM    H8S12414   3.061   3.380  10.383  0.3792 -2.8818 -2.7082
  118OSM    H8T12415   2.913   3.476  10.339  0.3474  0.0349  0.8388
  118OSM    C9S12416   2.928   3.283  10.255  0.8482 -0.7527  0.2759
  118OSM    H9S12417   2.818   3.266  10.250  0.7735 -0.8984  1.9055
  118OSM    H9T12418   2.968   3.182  10.277 -0.6235 -1.9445 -2.1106
  118OSM   C10S12419   2.965   3.350  10.123  0.0882  0.1755  0.7155
  118OSM   H10S12420   3.062   3.404  10.125  0.4840 -0.4436 -0.6136
  118OSM   H10T12421   2.889   3.428  10.104 -0.6588  0.1301  3.1765
  118OSM   C11S12422   2.970   3.252  10.000 -0.0738  0.5178  0.3127
  118OSM   H11S12423   2.868   3.213   9.981  0.1192  1.4819 -3.6067
  118OSM   H11T12424   3.042   3.170  10.024 -0.6732  0.0994  0.7165
  118OSM   C12S12425   3.009   3.301   9.861 -0.3608  1.0170 -0.2038
  118OSM   H12S12426   2.992   3.221   9.786 -0.6519  2.4779 -1.7620
  118OSM   H12T12427   3.117   3.326   9.856  0.4954 -1.8881  1.2294
  118OSM   C13S12428   2.929   3.424   9.819 -0.5544  0.4997  0.4107
  118OSM   H13S12429   2.971   3.515   9.867  0.2242  0.1768  0.3489
  118OSM   H13T12430   2.825   3.423   9.858 -0.9468  0.9764 -0.5954
  118OSM   C14S12431   2.913   3.436   9.667  0.4709  0.5068  0.7007
  118OSM   H14S12432   2.839   3.517   9.647 -1.3774 -1.7222 -2.5970
  118OSM   H14T12433   2.860   3.347   9.628 -1.3690  2.0503 -0.5399
  118OSM   C15S12434   3.044   3.460   9.590 -0.2090 -0.9148  0.1327
  118OSM   H15S12435   3.010   3.464   9.484 -0.6772 -1.6972  0.2447
  118OSM   H15T12436   3.098   3.365   9.611  3.1463  1.5241  4.0214
  118OSM   C16S12437   3.125   3.587   9.622  0.1129  0.0557  0.3182
  118OSM   H16S12438   3.120   3.605   9.731  3.3618  0.2432  0.5296
  118OSM   H16T12439   3.077   3.676   9.576 -2.6174 -1.0263  0.8464
  118OSM   C17S12440   3.272   3.584   9.595 -0.3387 -0.3459 -0.5559
  118OSM   H17S12441   3.315   3.686   9.606 -1.9724  0.2696  0.6110
  118OSM   H17T12442   3.282   3.559   9.487  0.6791  1.8843 -1.0376
  118OSM   C18S12443   3.357   3.493   9.687  0.2832  0.6015  0.2319
  118OSM   H18S12444   3.337   3.491   9.797  3.2770  0.3570  0.8514
  118OSM   H18T12445   3.464   3.514   9.666  0.9580 -1.9308  0.8378
  118OSM   H18U12446   3.349   3.387   9.656  1.3421  0.0473  1.7122
  118OSM    C1F12447   2.338   3.456  10.703 -0.0849  0.5706  0.1599
  118OSM     OF12448   2.303   3.559  10.764 -0.4775 -0.0320  0.8987
  118OSM    C2F12449   2.289   3.414  10.564 -0.4174 -0.2054  0.2936
  118OSM    H2F12450   2.181   3.436  10.556  0.1843  3.3426  0.0064
  118OSM    H2G12451   2.319   3.309  10.544  1.4549  0.3625 -0.1320
  118OSM    C3F12452   2.363   3.500  10.463  0.0860 -0.5672  0.1994
  118OSM    H3F12453   2.472   3.508  10.482 -0.2995  0.5136  2.1655
  118OSM    H3G12454   2.329   3.606  10.469 -1.1419 -0.8943 -0.5577
  118OSM    C4F12455   2.346   3.444  10.325 -0.5129  0.9488  0.3712
  118OSM    H4F12456   2.389   3.519  10.256  0.7445 -0.9108 -0.9786
  118OSM    H4G12457   2.238   3.432  10.301 -0.3694  0.7523 -0.1902
  118OSM    C5F12458   2.426   3.308  10.308 -0.8378  0.2061  0.3245
  118OSM    H5F12459   2.356   3.229  10.340 -1.0287 -0.5937 -1.8685
  118OSM    H5G12460   2.512   3.298  10.377  0.2680  0.6692 -0.9460
  118OSM    C6F12461   2.476   3.295  10.165  0.5315 -0.1844  0.9525
  118OSM    H6F12462   2.529   3.198  10.158  0.5046 -0.1501  0.1623
  118OSM    H6G12463   2.547   3.374  10.136  0.4515  0.2982  2.0409
  118OSM    C7F12464   2.356   3.309  10.071  0.0877 -0.3675  0.3963
  118OSM    H7F12465   2.325   3.415  10.066  2.6787  0.5388  1.6582
  118OSM    H7G12466   2.269   3.247  10.103 -0.7974  0.2881 -0.6628
  118OSM    C8F12467   2.395   3.243   9.935  0.2743  0.4280 -0.7220
  118OSM    H8F12468   2.314   3.261   9.861 -0.9951  1.3403  0.8373
  118OSM    H8G12469   2.392   3.134   9.959  1.9243  0.6752  0.8129
  118OSM    C9F12470   2.536   3.257   9.888 -0.4956 -0.1707  0.2712
  118OSM    H9F12471   2.616   3.232   9.960 -1.2030  2.6646  2.2262
  118OSM   C10F12472   2.575   3.292   9.765  0.3865 -0.1395  0.2058
  118OSM   H10F12473   2.685   3.301   9.755  0.5901 -1.0537  1.3646
  118OSM   C11F12474   2.484   3.336   9.656 -0.1841  0.2980 -0.3544
  118OSM   H11F12475   2.504   3.442   9.627  0.9501 -0.3986 -2.3078
  118OSM   H11G12476   2.378   3.342   9.691  0.3979  1.2625  1.3806
  118OSM   C12F12477   2.504   3.240   9.536 -0.0176 -0.4160 -0.2735
  118OSM   H12F12478   2.511   3.134   9.568 -2.0205 -0.0330  1.6137
  118OSM   H12G12479   2.596   3.271   9.481 -1.2343  1.0623 -1.5586
  118OSM   C13F12480   2.392   3.244   9.431 -0.1443  0.0943 -0.1377
  118OSM   H13F12481   2.386   3.348   9.391  2.1796 -0.2169 -1.5035
  118OSM   H13G12482   2.296   3.216   9.479 -0.1201 -2.8865 -1.5871
  118OSM   C14F12483   2.409   3.140   9.315 -0.5140  0.0460  0.0319
  118OSM   H14F12484   2.401   3.036   9.350 -0.5238 -0.4351 -1.3317
  118OSM   H14G12485   2.506   3.159   9.264  0.1058  0.9158  1.4715
  118OSM   C15F12486   2.297   3.160   9.204 -0.1772  0.3625  0.0008
  118OSM   H15F12487   2.315   3.239   9.127  2.9905 -1.5113 -1.4214
  118OSM   H15G12488   2.198   3.174   9.251 -0.3476  0.2282 -0.3133
  118OSM   C16F12489   2.278   3.032   9.120  0.4605 -0.9393 -0.2786
  118OSM   H16F12490   2.275   2.949   9.193 -2.3998 -1.1230 -0.4905
  118OSM   H16G12491   2.377   3.025   9.070  0.5482 -1.6787 -0.0173
  118OSM   C17F12492   2.165   3.043   9.021 -0.4342 -0.4700  0.0945
  118OSM   H17F12493   2.159   3.143   8.973 -2.3045 -0.8279 -0.4960
  118OSM   H17G12494   2.067   3.038   9.073  0.3584 -3.2227  1.5150
  118OSM   C18F12495   2.168   2.935   8.912 -0.5402 -0.0275  0.9523
  118OSM   H18F12496   2.269   2.938   8.864  0.5387  0.9331  3.1024
  118OSM   H18G12497   2.088   2.958   8.838  0.7578 -1.6849 -1.0976
  118OSM   H18H12498   2.153   2.833   8.952 -0.6827 -0.0209  0.9146
  119OSM      N12499   4.132   1.908  11.115  0.8113 -0.4233 -0.4719
  119OSM    C1512500   3.985   1.873  11.088 -0.0193  0.4073 -0.2188
  119OSM   H15A12501   3.977   1.858  10.981 -1.7448  3.2630 -0.5977
  119OSM   H15B12502   3.918   1.955  11.108 -1.2698 -0.2346 -1.5688
  119OSM   H15C12503   3.957   1.784  11.142  1.9983 -0.0805  0.1200
  119OSM    C1412504   4.134   1.933  11.258  0.1031 -0.3862 -0.4314
  119OSM   H14A12505   4.237   1.948  11.284 -0.6998  1.0179  2.2977
  119OSM   H14B12506   4.089   1.847  11.306  0.1140 -0.4562 -0.5469
  119OSM   H14C12507   4.078   2.022  11.284 -0.1421 -0.1738 -1.6265
  119OSM    C1312508   4.219   1.792  11.085  0.0611  0.0381 -0.2684
  119OSM   H13A12509   4.199   1.700  11.138  1.5199 -0.9248 -1.3236
  119OSM   H13B12510   4.321   1.825  11.098  0.3665  0.0470 -2.3711
  119OSM   H13C12511   4.214   1.773  10.979 -2.0846  0.6221 -0.3192
  119OSM    C1212512   4.175   2.025  11.026  0.1450  0.7986 -0.9116
  119OSM   H12A12513   4.099   2.101  11.026  0.1153  0.8018 -2.3683
  119OSM   H12B12514   4.177   1.993  10.923 -1.2436 -1.4601 -0.3057
  119OSM    C1112515   4.315   2.091  11.061  0.4314  0.0741  0.6729
  119OSM   H11A12516   4.304   2.138  11.161  1.3516  0.8128  0.4512
  119OSM   H11B12517   4.340   2.179  10.997  0.2201 -0.0877  0.3668
  119OSM      P12518   4.535   1.957  10.965 -0.3228  0.5975  0.1053
  119OSM    O1312519   4.655   2.033  10.999  0.1549 -0.4954  0.0717
  119OSM    O1412520   4.544   1.815  10.927 -0.2386 -0.7460 -0.9310
  119OSM    O1112521   4.465   2.017  10.848  0.1556 -0.0064 -0.5665
  119OSM    O1212522   4.422   1.994  11.079 -0.4077  0.1742 -0.1886
  119OSM    C1S12523   4.542   2.043  10.724 -0.4113 -0.4555 -0.6164
  119OSM    H1S12524   4.613   1.963  10.695  1.5166  0.5355  1.1471
  119OSM    H1T12525   4.599   2.136  10.743 -2.2810  0.2611  2.0389
  119OSM     NF12526   4.526   2.070  10.485  0.9025 -0.5892 -0.1502
  119OSM    HNF12527   4.532   2.163  10.450 -1.8651  0.8578  2.7365
  119OSM    C2S12528   4.448   2.054  10.611  0.1767  0.0193  0.5402
  119OSM    H2S12529   4.382   1.965  10.618 -2.0582  1.6033  0.6648
  119OSM    C3S12530   4.349   2.180  10.632  0.0557 -0.3113  0.2626
  119OSM    H3S12531   4.414   2.269  10.625 -0.1450 -0.2959 -2.3371
  119OSM     O312532   4.276   2.196  10.752  0.3223  0.2977  0.1111
  119OSM    HO312533   4.322   2.128  10.801  0.4323 -0.5125 -1.0944
  119OSM    C4S12534   4.247   2.182  10.521  0.3950  0.1200  0.3065
  119OSM    H4S12535   4.168   2.105  10.524 -0.3569  0.8146 -0.7344
  119OSM    C5S12536   4.242   2.278  10.425  0.1087  0.2059 -0.3708
  119OSM    H5S12537   4.315   2.360  10.436  1.0432 -0.6578  0.0804
  119OSM    C6S12538   4.147   2.281  10.310 -0.2074  0.1379 -0.2423
  119OSM    H6S12539   4.097   2.380  10.321  0.2508  0.6000 -2.0930
  119OSM    H6T12540   4.057   2.221  10.336 -0.0939 -0.0031 -0.1651
  119OSM    C7S12541   4.208   2.251  10.177 -0.6150  0.2251  0.7191
  119OSM    H7S12542   4.241   2.146  10.190 -0.2474  0.5153  2.3974
  119OSM    H7T12543   4.294   2.317  10.149 -1.0716  0.2580 -0.7065
  119OSM    C8S12544   4.108   2.276  10.062 -0.7799  0.1029 -0.4862
  119OSM    H8S12545   4.062   2.377  10.065 -1.1140 -0.0687  0.1499
  119OSM    H8T12546   4.030   2.199  10.075 -2.3921  1.7161 -0.2764
  119OSM    C9S12547   4.178   2.259   9.923 -0.2396 -0.4273 -0.4497
  119OSM    H9S12548   4.273   2.316   9.931 -0.3376 -0.2074 -0.8172
  119OSM    H9T12549   4.120   2.304   9.840 -2.1771 -2.2772 -0.1937
  119OSM   C10S12550   4.216   2.120   9.887  0.6922  0.6985  0.8033
  119OSM   H10S12551   4.278   2.077   9.969  1.3270  1.6661  0.8445
  119OSM   H10T12552   4.255   2.121   9.783 -3.2297  1.6260 -0.8448
  119OSM   C11S12553   4.088   2.036   9.883 -0.3410 -0.4083 -0.0864
  119OSM   H11S12554   4.004   2.089   9.834  0.1277  1.0184  0.5869
  119OSM   H11T12555   4.064   2.018   9.990  0.9671  1.2080  0.5296
  119OSM   C12S12556   4.116   1.899   9.820  0.4960  0.1091 -0.9639
  119OSM   H12S12557   4.035   1.823   9.827  1.2659 -0.6850 -0.3841
  119OSM   H12T12558   4.207   1.842   9.850 -0.9922 -1.2147  1.3231
  119OSM   C13S12559   4.127   1.917   9.670  0.3609  0.0674 -0.4987
  119OSM   H13S12560   4.226   1.963   9.649  2.5495 -3.6182  0.8153
  119OSM   H13T12561   4.038   1.981   9.650  0.8692  0.4088 -1.7329
  119OSM   C14S12562   4.105   1.784   9.601  0.0163  0.0136 -0.2127
  119OSM   H14S12563   3.998   1.754   9.608 -0.1201  0.7077  0.8881
  119OSM   H14T12564   4.156   1.701   9.657 -1.2369  0.5183  1.7884
  119OSM   C15S12565   4.153   1.791   9.462  0.0873  0.5428  0.2909
  119OSM   H15S12566   4.170   1.688   9.425  0.6638  0.4591  0.7815
  119OSM   H15T12567   4.257   1.830   9.466 -0.6040  2.5725 -0.0869
  119OSM   C16S12568   4.078   1.884   9.365 -0.6202  0.1235 -0.0737
  119OSM   H16S12569   4.092   1.986   9.407 -1.7657 -0.1396  1.0494
  119OSM   H16T12570   3.973   1.846   9.367 -0.1215 -1.3241  1.0574
  119OSM   C17S12571   4.134   1.863   9.223 -0.0010 -0.1689  0.9036
  119OSM   H17S12572   4.073   1.911   9.144  0.2815  0.0030  0.7908
  119OSM   H17T12573   4.144   1.753   9.206  0.6555 -0.0417  0.4415
  119OSM   C18S12574   4.271   1.921   9.193 -0.3991  0.0250  0.0415
  119OSM   H18S12575   4.336   1.916   9.283 -0.7026 -2.2695  0.1840
  119OSM   H18T12576   4.266   2.025   9.154  0.5566  0.0862  0.0619
  119OSM   H18U12577   4.324   1.850   9.127 -1.2054 -1.0952  0.5594
  119OSM    C1F12578   4.602   1.974  10.433 -1.0083 -0.2014 -0.9749
  119OSM     OF12579   4.602   1.857  10.479  0.7143  0.6405 -0.0119
  119OSM    C2F12580   4.685   2.018  10.321  0.1166 -0.1133  0.1258
  119OSM    H2F12581   4.788   2.003  10.361 -0.2577 -2.6709  0.3077
  119OSM    H2G12582   4.683   2.126  10.296  1.9789  1.4016  5.1564
  119OSM    C3F12583   4.666   1.926  10.196  0.1437  0.3115 -0.4169
  119OSM    H3F12584   4.556   1.912  10.194  0.2395 -1.1704  1.8410
  119OSM    H3G12585   4.715   1.828  10.209 -0.7822  0.0431  1.2377
  119OSM    C4F12586   4.723   1.990  10.065  0.1458  0.0279  0.3792
  119OSM    H4F12587   4.723   1.916   9.982 -0.0551  1.1410 -0.6399
  119OSM    H4G12588   4.831   2.008  10.077  0.2974  0.3423 -1.2169
  119OSM    C5F12589   4.647   2.117  10.032  0.3977 -0.3437  0.7273
  119OSM    H5F12590   4.679   2.214  10.076 -1.3817  1.0684 -0.9341
  119OSM    H5G12591   4.538   2.114  10.051  0.4961 -1.2673  1.1715
  119OSM    C6F12592   4.657   2.156   9.875  0.1850 -1.0590 -0.1873
  119OSM    H6F12593   4.570   2.212   9.833  0.2028 -0.6150  0.3587
  119OSM    H6G12594   4.657   2.058   9.824  1.8230 -0.6949 -0.9634
  119OSM    C7F12595   4.794   2.234   9.850 -0.2811  0.4709  0.6550
  119OSM    H7F12596   4.876   2.174   9.894  1.5483  0.6480 -2.2858
  119OSM    H7G12597   4.799   2.333   9.902  1.4031 -0.2742  2.0063
  119OSM    C8F12598   4.825   2.252   9.693 -0.3431  0.0021 -0.1752
  119OSM    H8F12599   4.828   2.143   9.672 -1.5154 -0.0499 -0.1560
  119OSM    H8G12600   4.927   2.290   9.673 -1.7405  4.4271  0.0669
  119OSM    C9F12601   4.726   2.321   9.605 -0.2036  0.2685  0.4389
  119OSM    H9F12602   4.684   2.413   9.647  1.9256  0.1201  3.0888
  119OSM   C10F12603   4.692   2.283   9.479 -0.3612 -0.0858 -0.0756
  119OSM   H10F12604   4.589   2.305   9.448  0.4808  2.0889 -1.5611
  119OSM   C11F12605   4.747   2.155   9.418 -0.0950 -0.6126 -0.3291
  119OSM   H11F12606   4.779   2.085   9.498  0.1071 -0.5405 -0.3461
  119OSM   H11G12607   4.846   2.179   9.375  1.4189 -2.9775  1.5758
  119OSM   C12F12608   4.684   2.081   9.300  0.0670  0.3838 -0.6065
  119OSM   H12F12609   4.596   2.019   9.327  0.8850 -1.0599 -1.1489
  119OSM   H12G12610   4.756   2.008   9.257 -1.1062 -0.6344 -0.8989
  119OSM   C13F12611   4.647   2.175   9.192 -0.8311 -0.1950 -0.1634
  119OSM   H13F12612   4.727   2.250   9.174 -0.3306 -0.4844  0.7484
  119OSM   H13G12613   4.560   2.237   9.219 -0.9929 -0.6297  0.3248
  119OSM   C14F12614   4.621   2.105   9.054  0.3125 -0.5258  0.3020
  119OSM   H14F12615   4.519   2.067   9.072  0.3509  0.2102  2.2993
  119OSM   H14G12616   4.689   2.023   9.022 -1.8571 -2.3951  0.2678
  119OSM   C15F12617   4.611   2.220   8.951  0.0339  0.1784  0.0292
  119OSM   H15F12618   4.708   2.239   8.900  0.7373 -1.8414  0.5078
  119OSM   H15G12619   4.590   2.313   9.009  0.9352  1.6791 -1.9349
  119OSM   C16F12620   4.513   2.181   8.835 -1.0139 -0.3258  0.0803
  119OSM   H16F12621   4.498   2.267   8.766  0.8251  0.8316  1.0552
  119OSM   H16G12622   4.416   2.147   8.877 -2.0168  2.6192  0.3860
  119OSM   C17F12623   4.557   2.069   8.751 -0.2292 -1.2880 -1.0978
  119OSM   H17F12624   4.470   2.039   8.688 -0.4751  0.1445 -1.4639
  119OSM   H17G12625   4.572   1.982   8.819 -0.5156  0.5491  1.4282
  119OSM   C18F12626   4.679   2.100   8.671 -0.4920 -0.7092 -0.4782
  119OSM   H18F12627   4.761   2.157   8.720 -0.3329 -0.2878 -1.2207
  119OSM   H18G12628   4.659   2.162   8.581 -2.0233  1.8496  1.4815
  119OSM   H18H12629   4.715   2.004   8.629 -0.0056 -1.3433  1.2854
  120OSM      N12630   2.888   1.074  10.921 -0.3170  0.3228  0.0657
  120OSM    C1512631   2.845   1.178  11.021 -0.5479  0.1945  0.1474
  120OSM   H15A12632   2.892   1.160  11.117 -1.9647 -1.5784  0.5640
  120OSM   H15B12633   2.737   1.176  11.032 -0.4144  0.3106  1.7794
  120OSM   H15C12634   2.882   1.273  10.986  1.7113 -0.6160  0.1866
  120OSM    C1412635   2.853   0.934  10.960  0.4431  0.2377 -0.1480
  120OSM   H14A12636   2.920   0.867  10.906 -2.0149 -1.6520 -1.0370
  120OSM   H14B12637   2.753   0.911  10.927 -0.3274  0.2912  2.0034
  120OSM   H14C12638   2.863   0.915  11.066  2.0728 -2.2395 -0.6501
  120OSM    C1312639   2.830   1.107  10.784 -0.0315  0.0740 -0.6822
  120OSM   H13A12640   2.891   1.067  10.704  2.0577  3.4355 -0.9564
  120OSM   H13B12641   2.824   1.214  10.769  2.3999  0.0936 -1.8953
  120OSM   H13C12642   2.726   1.084  10.765 -0.6177  0.2644  1.9016
  120OSM    C1212643   3.036   1.082  10.911  0.2314 -0.3786  0.0525
  120OSM   H12A12644   3.077   1.062  11.009 -1.5925 -0.1002  0.9128
  120OSM   H12B12645   3.070   1.182  10.887  0.9125 -0.9888 -1.6933
  120OSM    C1112646   3.123   0.990  10.810  0.0415 -0.3800  0.7873
  120OSM   H11A12647   3.095   0.889  10.847 -1.4172  0.3900  1.8911
  120OSM   H11B12648   3.231   1.006  10.831  0.0846 -1.3535  1.3367
  120OSM      P12649   3.060   0.875  10.575 -0.2638 -0.0631  0.0080
  120OSM    O1312650   3.199   0.838  10.538  0.2419  0.6054 -0.3782
  120OSM    O1412651   2.971   0.781  10.646 -1.0240 -0.3653 -0.1246
  120OSM    O1112652   2.987   0.940  10.451  0.3359 -0.1305 -0.4880
  120OSM    O1212653   3.082   1.001  10.674  0.3966  0.4001 -0.7325
  120OSM    C1S12654   3.019   1.074  10.410 -0.6819  0.1321 -0.4886
  120OSM    H1S12655   3.115   1.112  10.451 -1.8681  1.4762  1.2005
  120OSM    H1T12656   2.939   1.146  10.438  0.2925  0.6891  1.0316
  120OSM     NF12657   3.048   1.225  10.192  0.1235  0.0727  0.2970
  120OSM    HNF12658   2.963   1.268  10.163 -0.1588 -0.0289  0.9543
  120OSM    C2S12659   3.027   1.086  10.247  0.1820 -0.5336 -0.3193
  120OSM    H2S12660   3.105   1.015  10.215  1.6785  0.3886  1.1404
  120OSM    C3S12661   2.890   1.037  10.190  0.6368  0.1509 -0.4623
  120OSM    H3S12662   2.814   1.104  10.235  0.2770  0.0690 -0.9324
  120OSM     O312663   2.850   0.914  10.236  0.0715 -0.1383 -0.5170
  120OSM    HO312664   2.909   0.900  10.310 -2.1726 -0.7662  1.2761
  120OSM    C4S12665   2.892   1.056  10.037 -0.5667 -0.2466  0.4774
  120OSM    H4S12666   2.961   0.995   9.978 -1.2655 -0.3960 -0.1988
  120OSM    C5S12667   2.831   1.150   9.964  0.9736 -0.6258 -0.2869
  120OSM    H5S12668   2.764   1.221  10.014 -0.4041 -2.5076  0.6696
  120OSM    C6S12669   2.837   1.182   9.821 -0.1300 -0.4396 -0.3256
  120OSM    H6S12670   2.874   1.283   9.793 -1.8955 -0.0593 -1.4302
  120OSM    H6T12671   2.732   1.183   9.784  0.0711  0.3121 -0.8946
  120OSM    C7S12672   2.908   1.084   9.724  0.2154 -0.0106  0.1417
  120OSM    H7S12673   2.851   0.989   9.736  1.8220 -1.1044 -0.5513
  120OSM    H7T12674   3.018   1.078   9.743  0.6497  1.7353 -1.5239
  120OSM    C8S12675   2.894   1.123   9.574  0.6652 -0.2417 -0.3436
  120OSM    H8S12676   2.975   1.192   9.544  0.9949 -1.1586 -1.6363
  120OSM    H8T12677   2.799   1.180   9.566  1.4675  1.1834 -0.0549
  120OSM    C9S12678   2.880   1.007   9.479 -0.8079  0.2648  0.1461
  120OSM    H9S12679   2.786   0.954   9.506 -1.3027  0.7735 -0.5542
  120OSM    H9T12680   2.961   0.933   9.500  0.3816  1.5390  0.1456
  120OSM   C10S12681   2.864   1.030   9.330 -0.0332  0.1761 -0.1951
  120OSM   H10S12682   2.761   1.069   9.314 -0.4223  0.7255  2.9614
  120OSM   H10T12683   2.860   0.931   9.280 -2.8212  0.5557 -0.9280
  120OSM   C11S12684   2.968   1.118   9.270 -0.2090  0.6663 -0.1104
  120OSM   H11S12685   3.064   1.083   9.312 -0.8567 -0.3957  0.5305
  120OSM   H11T12686   2.952   1.226   9.291 -2.1718  0.3407  0.2576
  120OSM   C12S12687   2.969   1.096   9.118 -1.1295  0.2986  0.0019
  120OSM   H12S12688   3.018   1.005   9.076  0.1128  1.0273 -0.1436
  120OSM   H12T12689   3.017   1.187   9.078 -0.5856  0.1353  0.2764
  120OSM   C13S12690   2.827   1.094   9.056  0.1177  0.2069  0.5621
  120OSM   H13S12691   2.771   1.187   9.083 -1.4884 -0.3010 -0.8444
  120OSM   H13T12692   2.767   1.010   9.097  2.7201 -1.3029  1.4682
  120OSM   C14S12693   2.818   1.081   8.904  0.1036  0.1485  0.4034
  120OSM   H14S12694   2.866   0.986   8.873  0.2462  0.5271 -0.5712
  120OSM   H14T12695   2.866   1.168   8.855 -1.2803  0.6397 -0.1456
  120OSM   C15S12696   2.668   1.082   8.865  0.5176 -0.7171  0.5786
  120OSM   H15S12697   2.621   1.182   8.879  1.6125  0.3418 -2.4192
  120OSM   H15T12698   2.601   1.023   8.930 -0.2454  0.8630  1.2822
  120OSM   C16S12699   2.640   1.042   8.716  0.9312  0.6449  0.0945
  120OSM   H16S12700   2.723   1.068   8.648 -0.0153 -1.8725 -2.1900
  120OSM   H16T12701   2.544   1.084   8.679 -0.2125 -2.0517 -0.2858
  120OSM   C17S12702   2.634   0.888   8.703 -0.2317 -0.2468  0.4550
  120OSM   H17S12703   2.722   0.848   8.758  0.0365  0.6317  0.6725
  120OSM   H17T12704   2.653   0.866   8.595 -1.3496  0.1838  0.1609
  120OSM   C18S12705   2.501   0.831   8.763  0.1538 -0.0983 -0.5729
  120OSM   H18S12706   2.502   0.834   8.874 -0.8286 -0.5689 -0.5452
  120OSM   H18T12707   2.473   0.730   8.727 -0.1333 -0.1946 -0.0830
  120OSM   H18U12708   2.421   0.901   8.730  0.5145 -0.0898 -1.4635
  120OSM    C1F12709   3.165   1.292  10.210  0.4363  0.5366  0.2566
  120OSM     OF12710   3.264   1.237  10.262  0.3188  0.1188  0.2943
  120OSM    C2F12711   3.164   1.439  10.181 -0.8985 -0.4647 -0.5390
  120OSM    H2F12712   3.268   1.474  10.202 -0.7978 -1.2488  0.2770
  120OSM    H2G12713   3.092   1.494  10.246 -0.6072 -1.0302  0.2704
  120OSM    C3F12714   3.133   1.475  10.031 -0.0028  0.0511 -0.4573
  120OSM    H3F12715   3.147   1.584  10.015  2.4094 -0.0904  0.2144
  120OSM    H3G12716   3.036   1.432   9.999 -0.7505  0.3753  1.2615
  120OSM    C4F12717   3.234   1.407   9.931 -0.0902 -0.2278  0.2624
  120OSM    H4F12718   3.259   1.308   9.973 -0.0053 -0.7365 -0.9556
  120OSM    H4G12719   3.333   1.458   9.932  0.3327 -0.9827 -1.2343
  120OSM    C5F12720   3.185   1.403   9.784 -0.2935 -0.3955  0.7227
  120OSM    H5F12721   3.169   1.510   9.759  2.7811  0.1673  0.6724
  120OSM    H5G12722   3.084   1.359   9.782 -0.1012 -0.8709 -1.6735
  120OSM    C6F12723   3.284   1.326   9.696 -0.5499 -0.0324  0.4125
  120OSM    H6F12724   3.243   1.340   9.593 -0.2736 -2.0749 -0.0096
  120OSM    H6G12725   3.279   1.218   9.722  1.7014  0.0288  1.3274
  120OSM    C7F12726   3.426   1.380   9.710  0.0564  1.0662  0.1894
  120OSM    H7F12727   3.481   1.342   9.799  2.0138  3.2972  0.0322
  120OSM    H7G12728   3.418   1.491   9.713 -0.0120  1.2372 -2.9153
  120OSM    C8F12729   3.504   1.334   9.583  0.3060 -0.6148 -0.0334
  120OSM    H8F12730   3.601   1.389   9.576  0.5175 -1.1741 -3.2019
  120OSM    H8G12731   3.450   1.372   9.494 -1.5357 -2.3924  0.2605
  120OSM    C9F12732   3.526   1.187   9.569 -0.1286 -0.9727  0.3098
  120OSM    H9F12733   3.517   1.124   9.659  0.6386 -3.4836 -1.2577
  120OSM   C10F12734   3.581   1.133   9.455 -0.6338  1.1813 -0.0554
  120OSM   H10F12735   3.597   1.024   9.448  0.4778  1.4344 -2.1422
  120OSM   C11F12736   3.623   1.206   9.334  0.4733  0.8081  0.4764
  120OSM   H11F12737   3.728   1.182   9.306 -0.3690 -1.9154 -0.6953
  120OSM   H11G12738   3.619   1.314   9.359 -1.3567  1.0556 -0.6898
  120OSM   C12F12739   3.539   1.160   9.215  0.3349  0.0127 -0.4327
  120OSM   H12F12740   3.565   1.214   9.121  2.1852 -3.4801 -2.1077
  120OSM   H12G12741   3.433   1.190   9.235 -0.4165 -1.0463 -2.5253
  120OSM   C13F12742   3.550   1.007   9.184 -0.2822  0.3816 -0.3143
  120OSM   H13F12743   3.521   0.949   9.275  0.4104  1.3084  0.5222
  120OSM   H13G12744   3.659   0.991   9.174 -0.2258 -0.1446  0.9505
  120OSM   C14F12745   3.481   0.956   9.060  0.7949  0.1409 -0.2713
  120OSM   H14F12746   3.528   1.002   8.971  2.2596 -0.1025  0.3338
  120OSM   H14G12747   3.375   0.988   9.063  0.1435 -1.8244 -0.6753
  120OSM   C15F12748   3.498   0.810   9.038 -0.4731  0.3643  0.3184
  120OSM   H15F12749   3.436   0.762   9.116  0.4975 -0.6448  0.4970
  120OSM   H15G12750   3.605   0.782   9.049 -0.0491  0.7909 -2.1395
  120OSM   C16F12751   3.448   0.757   8.899  0.0933  0.2549 -0.1206
  120OSM   H16F12752   3.492   0.806   8.810 -0.1632  0.0193 -0.3833
  120OSM   H16G12753   3.337   0.768   8.897 -0.0125 -0.6731 -1.3196
  120OSM   C17F12754   3.477   0.605   8.886  0.5537  0.0182  0.2264
  120OSM   H17F12755   3.419   0.556   8.968  2.0457  0.7131  1.7571
  120OSM   H17G12756   3.580   0.575   8.916  0.0244 -1.7114  0.4482
  120OSM   C18F12757   3.427   0.541   8.753  0.0739  0.0817 -0.0239
  120OSM   H18F12758   3.420   0.433   8.775 -0.1261  0.0260 -0.3410
  120OSM   H18G12759   3.502   0.559   8.673  0.8823 -0.6180  0.5685
  120OSM   H18H12760   3.331   0.576   8.708  0.3062  1.5100  0.5248
  121OSM      N12761   1.002   4.015  11.573  1.1220  0.0019  0.1277
  121OSM    C1512762   0.868   3.956  11.607 -0.3605 -0.6866 -0.1592
  121OSM   H15A12763   0.863   3.914  11.707 -1.0419  0.3353  0.2532
  121OSM   H15B12764   0.857   3.873  11.539  3.1100 -1.0923 -0.3758
  121OSM   H15C12765   0.780   4.016  11.592 -0.2681 -0.1497  1.3120
  121OSM    C1412766   1.032   4.145  11.644 -0.1262  0.0264  0.5954
  121OSM   H14A12767   1.129   4.191  11.633 -0.4543  0.2935 -1.5735
  121OSM   H14B12768   0.992   4.131  11.743 -3.8060 -1.5971 -0.9600
  121OSM   H14C12769   0.967   4.224  11.609 -0.4652  0.2986  1.7963
  121OSM    C1312770   1.104   3.906  11.609  0.6299 -0.4251  0.0095
  121OSM   H13A12771   1.203   3.926  11.571  1.5383 -1.6933  1.5582
  121OSM   H13B12772   1.068   3.814  11.566 -1.5611 -0.7071  2.2242
  121OSM   H13C12773   1.118   3.885  11.714 -1.0074  0.5346  0.4572
  121OSM    C1212774   1.005   4.032  11.424  0.2609  0.4666  0.4615
  121OSM   H12A12775   1.102   4.068  11.391  0.0043 -0.0297 -0.9075
  121OSM   H12B12776   0.946   4.120  11.407 -1.4688 -1.1012 -2.4078
  121OSM    C1112777   0.963   3.923  11.316  0.2343  0.1413 -0.3618
  121OSM   H11A12778   0.983   3.953  11.211 -2.7816  0.4117 -0.9657
  121OSM   H11B12779   0.852   3.913  11.326 -0.0563  3.0945  0.2769
  121OSM      P12780   0.952   3.663  11.337 -0.4670  0.3913 -0.1927
  121OSM    O1312781   1.046   3.555  11.372 -0.3384  0.2390 -0.5176
  121OSM    O1412782   0.821   3.661  11.398 -0.4053  0.4565  0.3499
  121OSM    O1112783   0.927   3.652  11.178  0.1231  0.2266 -0.0767
  121OSM    O1212784   1.021   3.802  11.355 -1.3830 -0.1146  0.0319
  121OSM    C1S12785   1.047   3.664  11.099 -0.0456 -0.0093  0.5668
  121OSM    H1S12786   1.110   3.572  11.105  2.1121  1.3494 -0.0311
  121OSM    H1T12787   1.109   3.752  11.124  2.1551 -0.2328 -3.2719
  121OSM     NF12788   1.120   3.728  10.879  0.0488  0.4872  0.7203
  121OSM    HNF12789   1.125   3.820  10.840 -0.6546 -0.4778 -1.8610
  121OSM    C2S12790   1.004   3.697  10.955 -0.2719  0.3397 -0.3428
  121OSM    H2S12791   0.964   3.602  10.914  0.5218 -0.4403  0.6348
  121OSM    C3S12792   0.893   3.806  10.935 -0.2961 -0.6095  0.2558
  121OSM    H3S12793   0.941   3.903  10.960  2.1380 -1.2086 -1.6474
  121OSM     O312794   0.776   3.790  11.020 -1.3395  0.1398  0.8567
  121OSM    HO312795   0.809   3.740  11.095  1.0624 -1.5040 -1.1154
  121OSM    C4S12796   0.840   3.812  10.785 -0.5196  0.1519  0.2528
  121OSM    H4S12797   0.848   3.908  10.731  0.5949 -0.5623 -0.9052
  121OSM    C5S12798   0.776   3.711  10.722  0.2576 -0.3312 -0.7814
  121OSM    H5S12799   0.756   3.625  10.787  0.4004  0.4916  0.3827
  121OSM    C6S12800   0.697   3.718  10.598 -0.2228 -0.4133  0.0258
  121OSM    H6S12801   0.594   3.683  10.621  0.3896 -0.8905  2.3166
  121OSM    H6T12802   0.726   3.640  10.525  0.6631 -0.3256  0.2765
  121OSM    C7S12803   0.681   3.855  10.532 -0.6251  1.2753  0.2674
  121OSM    H7S12804   0.779   3.902  10.511  1.3494 -2.1003  1.2169
  121OSM    H7T12805   0.619   3.914  10.603 -0.3226  0.0106  1.6226
  121OSM    C8S12806   0.607   3.842  10.392 -0.4519 -0.5318 -0.4942
  121OSM    H8S12807   0.507   3.793  10.401 -0.5875 -0.5234 -1.8147
  121OSM    H8T12808   0.667   3.776  10.325 -1.1251 -0.2241 -1.4136
  121OSM    C9S12809   0.604   3.967  10.313  0.6429 -0.5563 -0.2559
  121OSM    H9S12810   0.710   3.993  10.289  1.0652  0.6605  2.5509
  121OSM    H9T12811   0.576   4.056  10.373  2.6935  0.7111 -1.0752
  121OSM   C10S12812   0.509   3.956  10.185 -0.5380  0.2744  0.3818
  121OSM   H10S12813   0.413   4.003  10.218  0.8681  3.5154  0.3161
  121OSM   H10T12814   0.500   3.847  10.168 -0.8012  0.0305  1.9729
  121OSM   C11S12815   0.553   4.029  10.053  0.5019 -0.1230 -0.1920
  121OSM   H11S12816   0.545   4.138  10.074  0.7458 -0.2536  0.6175
  121OSM   H11T12817   0.484   3.997   9.971 -0.1847  2.6162 -0.7918
  121OSM   C12S12818   0.691   3.987   9.996 -0.1384 -0.4060 -0.2141
  121OSM   H12S12819   0.780   4.034  10.044 -0.1632 -0.1043 -0.4549
  121OSM   H12T12820   0.694   4.020   9.890  1.3757 -1.5264 -0.5516
  121OSM   C13S12821   0.709   3.832   9.987 -0.4283 -0.1464 -0.2616
  121OSM   H13S12822   0.613   3.796   9.944 -1.4503 -0.6765  2.2916
  121OSM   H13T12823   0.724   3.799  10.092  1.0984  1.5565  0.1003
  121OSM   C14S12824   0.813   3.795   9.886 -0.2477 -0.2174 -0.4417
  121OSM   H14S12825   0.839   3.687   9.897 -0.5873 -0.2529  0.0134
  121OSM   H14T12826   0.903   3.853   9.915 -2.9220  3.9139  0.4366
  121OSM   C15S12827   0.765   3.816   9.735  0.6880 -0.1082 -0.0879
  121OSM   H15S12828   0.787   3.921   9.706 -1.9448  0.3385 -0.7227
  121OSM   H15T12829   0.657   3.791   9.725  0.7808 -0.5600  0.0331
  121OSM   C16S12830   0.840   3.726   9.643 -0.1433 -0.2934 -0.1951
  121OSM   H16S12831   0.826   3.621   9.676  1.2145  0.0597  1.6826
  121OSM   H16T12832   0.947   3.756   9.645 -0.3628  0.7810 -2.0662
  121OSM   C17S12833   0.795   3.743   9.500  0.9597 -0.1238  0.2871
  121OSM   H17S12834   0.789   3.853   9.484 -1.7945 -0.3268 -0.5834
  121OSM   H17T12835   0.689   3.712   9.497  0.5451  1.2939 -1.0221
  121OSM   C18S12836   0.874   3.679   9.390 -0.2234  0.8323  0.4767
  121OSM   H18S12837   0.983   3.700   9.396  0.1573 -0.8536  0.0673
  121OSM   H18T12838   0.837   3.711   9.290 -3.5668  0.7012  1.5596
  121OSM   H18U12839   0.853   3.570   9.398  0.2648  0.5091 -1.8957
  121OSM    C1F12840   1.225   3.638  10.859  0.0880  0.1388  0.1337
  121OSM     OF12841   1.219   3.516  10.876  0.1762  0.1297  0.1078
  121OSM    C2F12842   1.354   3.699  10.817 -0.8409 -0.3347  0.1585
  121OSM    H2F12843   1.424   3.705  10.903  0.1926 -1.7239 -0.5597
  121OSM    H2G12844   1.330   3.803  10.787 -0.3753  0.0354  1.0450
  121OSM    C3F12845   1.427   3.607  10.713 -0.5553 -0.8538 -0.7084
  121OSM    H3F12846   1.359   3.593  10.626  0.1003  1.2739 -1.6356
  121OSM    H3G12847   1.446   3.517  10.775  0.9020 -1.6003 -2.1922
  121OSM    C4F12848   1.561   3.671  10.665  0.7628 -0.0666 -0.3834
  121OSM    H4F12849   1.619   3.718  10.748  2.7746  0.2155 -1.8811
  121OSM    H4G12850   1.524   3.751  10.597  1.0719 -1.7090 -2.6030
  121OSM    C5F12851   1.654   3.586  10.576  0.0487 -0.0948 -0.3058
  121OSM    H5F12852   1.593   3.547  10.492 -0.7517  1.0157 -0.2558
  121OSM    H5G12853   1.686   3.496  10.632  2.3898  0.8979  0.0825
  121OSM    C6F12854   1.774   3.658  10.525  0.2011  0.2410  0.1718
  121OSM    H6F12855   1.833   3.692  10.613  0.1470  0.6713  0.0431
  121OSM    H6G12856   1.743   3.746  10.464  0.6213 -0.8167 -1.6483
  121OSM    C7F12857   1.876   3.577  10.437  0.1352 -0.0067  0.0705
  121OSM    H7F12858   1.830   3.552  10.339  1.6882 -0.2931 -0.6035
  121OSM    H7G12859   1.905   3.482  10.486  0.3484 -0.6138 -1.1802
  121OSM    C8F12860   2.012   3.655  10.408  1.2885 -0.1974 -0.2982
  121OSM    H8F12861   2.092   3.587  10.372  1.7307 -0.0579  0.4006
  121OSM    H8G12862   2.049   3.693  10.506 -0.6337 -0.0011  0.3790
  121OSM    C9F12863   1.997   3.763  10.301 -0.2826  0.9687 -0.0151
  121OSM    H9F12864   1.951   3.856  10.336 -0.6895  1.2852 -1.3287
  121OSM   C10F12865   2.025   3.754  10.173 -0.4755  1.1168  0.5357
  121OSM   H10F12866   2.005   3.844  10.113  1.5184  1.4638  0.3268
  121OSM   C11F12867   2.077   3.638  10.086  0.0170 -0.6866 -0.7431
  121OSM   H11F12868   2.019   3.545  10.102 -2.6875  1.0592  0.4213
  121OSM   H11G12869   2.181   3.621  10.119 -0.7130  0.9614  2.8511
  121OSM   C12F12870   2.042   3.660   9.936 -0.0795  0.1155 -0.0613
  121OSM   H12F12871   2.086   3.760   9.916  0.8777  0.6263  3.8019
  121OSM   H12G12872   1.935   3.677   9.909  0.3413 -0.3526 -2.2691
  121OSM   C13F12873   2.099   3.554   9.842 -0.8274  0.3906 -0.3390
  121OSM   H13F12874   2.032   3.467   9.825 -0.6954  0.5086 -1.5877
  121OSM   H13G12875   2.185   3.508   9.895 -1.0410  0.9471  0.4978
  121OSM   C14F12876   2.142   3.616   9.708 -0.4306 -0.1052  0.6196
  121OSM   H14F12877   2.253   3.614   9.701 -0.4837  0.0001 -0.4711
  121OSM   H14G12878   2.102   3.719   9.707  2.1782  0.9742  0.0403
  121OSM   C15F12879   2.100   3.537   9.583 -0.8041  0.1407 -0.1517
  121OSM   H15F12880   1.989   3.537   9.579 -0.8610  3.3194 -0.8633
  121OSM   H15G12881   2.136   3.432   9.593  1.9955  1.0111 -0.0820
  121OSM   C16F12882   2.151   3.597   9.453 -0.3956  0.0650  0.5174
  121OSM   H16F12883   2.261   3.608   9.463 -0.1831 -0.5969 -0.9434
  121OSM   H16G12884   2.095   3.691   9.435  0.7618  0.6157 -0.2965
  121OSM   C17F12885   2.128   3.508   9.328  0.2466  0.0559  0.4358
  121OSM   H17F12886   2.018   3.505   9.313  0.2671 -0.8412  0.4553
  121OSM   H17G12887   2.175   3.409   9.346  0.6963  0.1377 -0.2298
  121OSM   C18F12888   2.184   3.577   9.200 -0.2066  0.0903  0.4342
  121OSM   H18F12889   2.150   3.525   9.109 -0.9044  0.7227  0.3257
  121OSM   H18G12890   2.295   3.588   9.206 -0.2715  1.5588 -0.5736
  121OSM   H18H12891   2.152   3.683   9.194  2.4344  1.0475  1.5898
  122OSM      N12892   2.793   1.886  10.848  0.5876  0.3546  0.8653
  122OSM    C1512893   2.778   1.752  10.921  0.2584  0.2906  0.1482
  122OSM   H15A12894   2.859   1.734  10.991  0.6861  1.7419  0.0651
  122OSM   H15B12895   2.770   1.674  10.847 -1.4621 -0.8292  1.4295
  122OSM   H15C12896   2.680   1.760  10.965 -0.4813  0.7682 -1.5232
  122OSM    C1412897   2.901   1.872  10.748 -0.7846  0.1436  0.3229
  122OSM   H14A12898   2.993   1.883  10.802 -0.6211  2.9713 -0.3776
  122OSM   H14B12899   2.908   1.952  10.675  3.6988 -0.7969 -0.5244
  122OSM   H14C12900   2.898   1.772  10.706 -0.4116  0.1013  0.3936
  122OSM    C1312901   2.662   1.918  10.785  0.3227 -0.1146 -0.2632
  122OSM   H13A12902   2.652   2.012  10.733  1.2588 -0.8913 -1.8974
  122OSM   H13B12903   2.579   1.918  10.855  1.2191  0.7377  0.8542
  122OSM   H13C12904   2.642   1.837  10.718  1.8161 -0.1337 -0.7210
  122OSM    C1212905   2.828   1.991  10.949 -0.7723  0.3105  0.4210
  122OSM   H12A12906   2.738   1.999  11.009  1.0870  0.0146  3.4697
  122OSM   H12B12907   2.855   2.085  10.904  0.3802  0.5259  1.5048
  122OSM    C1112908   2.933   1.965  11.061 -0.4826  0.4403 -0.5121
  122OSM   H11A12909   2.910   1.886  11.135  1.8074  1.7925  1.8602
  122OSM   H11B12910   2.939   2.060  11.120 -1.6475 -0.2076  0.6813
  122OSM      P12911   3.190   2.018  10.996 -0.4080 -0.1422  0.0176
  122OSM    O1312912   3.173   2.156  11.042  0.3266  0.2087  0.8033
  122OSM    O1412913   3.286   1.936  11.075 -0.3996 -0.3319  0.1050
  122OSM    O1112914   3.229   2.007  10.843  0.3813  0.3732 -0.6149
  122OSM    O1212915   3.055   1.933  10.999 -0.3060  0.4013 -0.2781
  122OSM    C1S12916   3.269   2.122  10.772 -0.6952 -0.3668  0.3838
  122OSM    H1S12917   3.358   2.170  10.818  0.0987 -0.0534 -1.3843
  122OSM    H1T12918   3.196   2.207  10.771  0.0334  0.3106 -1.6016
  122OSM     NF12919   3.382   2.221  10.579  0.3006 -0.0426  0.7569
  122OSM    HNF12920   3.321   2.270  10.517 -0.5421  1.5592  2.7073
  122OSM    C2S12921   3.322   2.100  10.630  0.1055 -0.5691  0.0875
  122OSM    H2S12922   3.406   2.028  10.624  0.8945  0.4192 -2.7034
  122OSM    C3S12923   3.217   2.048  10.526  0.2669  0.0597  0.4018
  122OSM    H3S12924   3.139   2.126  10.512  2.2795  2.0165 -0.4158
  122OSM     O312925   3.151   1.925  10.575  0.0426 -0.0775 -0.2038
  122OSM    HO312926   3.137   1.947  10.667  1.5264  2.5900 -0.5180
  122OSM    C4S12927   3.270   2.027  10.385 -0.4434  0.5376  0.5069
  122OSM    H4S12928   3.335   1.939  10.375 -0.6286  0.2912  1.3867
  122OSM    C5S12929   3.239   2.088  10.272  0.1211 -0.7365  0.0092
  122OSM    H5S12930   3.160   2.164  10.264 -0.5367 -1.5619 -2.0283
  122OSM    C6S12931   3.291   2.043  10.137 -0.0423  0.6124 -0.3768
  122OSM    H6S12932   3.379   1.978  10.153 -0.3631  0.2630 -0.0061
  122OSM    H6T12933   3.330   2.126  10.074  0.2586  0.4346 -0.4255
  122OSM    C7S12934   3.180   1.982  10.050 -0.5130  0.0680 -0.4757
  122OSM    H7S12935   3.103   2.052  10.012 -0.2749 -0.5869 -2.2623
  122OSM    H7T12936   3.127   1.902  10.105 -2.1261  2.3738  1.5330
  122OSM    C8S12937   3.247   1.923   9.926  0.1884  0.3580 -0.0756
  122OSM    H8S12938   3.321   1.843   9.947  0.2452 -0.1140 -1.9321
  122OSM    H8T12939   3.303   2.010   9.887  1.7653  0.0211  1.3125
  122OSM    C9S12940   3.147   1.882   9.825  0.8122  0.3741  0.2963
  122OSM    H9S12941   3.070   1.961   9.809 -0.2263 -0.7342 -0.3550
  122OSM    H9T12942   3.088   1.794   9.858  2.1706  0.1091  2.1874
  122OSM   C10S12943   3.205   1.855   9.683  0.2667 -0.3336  0.7724
  122OSM   H10S12944   3.125   1.816   9.617  0.0872  0.2622  0.6272
  122OSM   H10T12945   3.277   1.772   9.691  2.8199  1.5474 -0.9783
  122OSM   C11S12946   3.280   1.970   9.617  0.0975  0.4513 -0.4223
  122OSM   H11S12947   3.384   1.969   9.656  0.1431 -0.7801 -0.5447
  122OSM   H11T12948   3.232   2.064   9.655  1.7068  1.7309 -1.4283
  122OSM   C12S12949   3.285   1.959   9.460 -0.7877  0.1313  0.1046
  122OSM   H12S12950   3.184   1.988   9.423 -1.3180  0.1194  1.4488
  122OSM   H12T12951   3.311   1.852   9.447  1.1989  0.6006 -0.1119
  122OSM   C13S12952   3.403   2.037   9.382  0.3415 -0.4362 -0.7381
  122OSM   H13S12953   3.506   1.996   9.392  1.5067  1.8713 -2.4824
  122OSM   H13T12954   3.406   2.135   9.433 -0.3360 -1.1123  0.6880
  122OSM   C14S12955   3.378   2.064   9.237 -0.1880  0.8035 -0.5115
  122OSM   H14S12956   3.462   2.112   9.183 -1.4127  1.4683 -1.8977
  122OSM   H14T12957   3.292   2.132   9.220 -2.1255 -1.6640 -1.2261
  122OSM   C15S12958   3.333   1.930   9.171 -0.2365  0.0257  0.6950
  122OSM   H15S12959   3.229   1.902   9.195 -0.4802 -0.6569 -0.9746
  122OSM   H15T12960   3.396   1.845   9.206  0.6280  0.6560  0.7150
  122OSM   C16S12961   3.320   1.933   9.013  0.3408 -0.2941  0.3074
  122OSM   H16S12962   3.293   1.828   8.990 -1.6084  0.3754 -0.7005
  122OSM   H16T12963   3.414   1.947   8.957 -0.5727 -2.1715 -1.8436
  122OSM   C17S12964   3.214   2.033   8.965  0.6244  0.4573  0.0488
  122OSM   H17S12965   3.233   2.135   9.004  0.4402  0.4593  0.1313
  122OSM   H17T12966   3.121   1.998   9.014  0.4907 -1.1824 -1.2718
  122OSM   C18S12967   3.189   2.047   8.814  0.5265  0.3715 -0.2766
  122OSM   H18S12968   3.280   2.073   8.756  0.3247  0.8208 -0.3928
  122OSM   H18T12969   3.110   2.123   8.797  1.0435  1.5122  2.0537
  122OSM   H18U12970   3.154   1.951   8.770 -1.0795  0.8704 -0.1357
  122OSM    C1F12971   3.484   2.285  10.634  0.3381 -0.1643 -0.6225
  122OSM     OF12972   3.554   2.234  10.724 -0.2860 -0.3027  0.1649
  122OSM    C2F12973   3.506   2.430  10.595  0.0662 -0.1833  0.7445
  122OSM    H2F12974   3.544   2.482  10.685  0.8746 -0.2483  0.4457
  122OSM    H2G12975   3.406   2.469  10.564 -0.6695 -1.7409  1.0751
  122OSM    C3F12976   3.626   2.445  10.495 -0.0269 -0.3944  0.2708
  122OSM    H3F12977   3.709   2.389  10.542  0.2565  1.2716  1.8435
  122OSM    H3G12978   3.661   2.550  10.487 -2.7650  0.8415  2.6442
  122OSM    C4F12979   3.608   2.384  10.357  0.7062 -0.5078 -0.6032
  122OSM    H4F12980   3.547   2.448  10.289 -0.0824 -0.8641 -0.2385
  122OSM    H4G12981   3.548   2.291  10.362 -0.5387  0.2654 -0.7813
  122OSM    C5F12982   3.730   2.357  10.273 -0.1648  0.2966  0.3793
  122OSM    H5F12983   3.807   2.330  10.349 -0.1247 -1.6492 -0.3122
  122OSM    H5G12984   3.759   2.456  10.231 -1.4290  0.5068 -0.0339
  122OSM    C6F12985   3.716   2.242  10.169 -0.6008  0.1750 -0.0775
  122OSM    H6F12986   3.729   2.153  10.234 -0.1088  1.3492  1.4705
  122OSM    H6G12987   3.805   2.244  10.102 -0.0346 -1.6870  0.5628
  122OSM    C7F12988   3.591   2.232  10.093  0.2425  0.7182  0.0119
  122OSM    H7F12989   3.508   2.233  10.166  0.6126 -1.6797  0.5499
  122OSM    H7G12990   3.587   2.134  10.041 -1.4066 -0.1809  1.7175
  122OSM    C8F12991   3.568   2.349   9.998  0.2392 -0.9706  0.1573
  122OSM    H8F12992   3.660   2.358   9.937  0.6084  2.4302  1.0184
  122OSM    H8G12993   3.562   2.442  10.057  1.4678 -0.3444 -0.6545
  122OSM    C9F12994   3.442   2.331   9.908 -0.4200 -0.3324  0.9557
  122OSM    H9F12995   3.353   2.297   9.964  0.6293 -1.5285  1.9802
  122OSM   C10F12996   3.442   2.325   9.776 -0.7229  0.6285  0.0459
  122OSM   H10F12997   3.349   2.294   9.727 -1.7668  2.4191  0.8140
  122OSM   C11F12998   3.563   2.357   9.689 -0.2693 -0.3956  0.2127
  122OSM   H11F12999   3.633   2.433   9.731 -1.5119  1.4641 -0.9304
  122OSM   H11G13000   3.518   2.416   9.607 -0.5246  0.7661  1.1641
  122OSM   C12F13001   3.627   2.237   9.619  0.2487  0.0018  0.3693
  122OSM   H12F13002   3.538   2.191   9.570 -0.8137  1.1726  1.1196
  122OSM   H12G13003   3.670   2.165   9.692 -0.2411  1.3462  2.0688
  122OSM   C13F13004   3.729   2.270   9.511 -0.6884 -0.2933  0.0615
  122OSM   H13F13005   3.688   2.324   9.424  0.8959 -0.4126 -0.8149
  122OSM   H13G13006   3.757   2.169   9.473 -1.8753 -1.1312  1.3049
  122OSM   C14F13007   3.855   2.344   9.568  0.8489 -0.5307 -0.0425
  122OSM   H14F13008   3.898   2.280   9.649 -0.5537 -1.0551  0.3251
  122OSM   H14G13009   3.820   2.442   9.606 -3.0608 -0.7115 -2.5680
  122OSM   C15F13010   3.964   2.379   9.467  0.5852  0.2332 -0.0253
  122OSM   H15F13011   4.005   2.481   9.479  0.4992  0.1744  0.8603
  122OSM   H15G13012   3.926   2.377   9.363  2.2791  2.6098 -0.7743
  122OSM   C16F13013   4.081   2.282   9.478  0.3521 -0.1864  0.5243
  122OSM   H16F13014   4.053   2.176   9.460  0.0093  0.1406 -0.9902
  122OSM   H16G13015   4.122   2.281   9.581 -0.2618 -1.2568  0.7694
  122OSM   C17F13016   4.202   2.328   9.385 -0.4844 -0.2186 -0.8850
  122OSM   H17F13017   4.239   2.428   9.414 -1.4329  0.2109 -1.1135
  122OSM   H17G13018   4.163   2.320   9.281 -1.2510  2.6735 -0.9002
  122OSM   C18F13019   4.321   2.247   9.402 -0.1567  0.0490 -0.0355
  122OSM   H18F13020   4.384   2.274   9.490 -0.4723  0.2645  0.1251
  122OSM   H18G13021   4.369   2.278   9.307 -1.9790 -0.2171 -1.0824
  122OSM   H18H13022   4.308   2.137   9.394 -2.2543  0.2750 -0.1072
  123OSM      N13023   3.448   0.560   5.895 -0.1561 -0.0323  0.7807
  123OSM    C1513024   3.593   0.524   5.915 -0.2235 -1.0181  0.3889
  123OSM   H15A13025   3.652   0.525   5.825 -1.5203  2.3972 -0.5922
  123OSM   H15B13026   3.591   0.432   5.971 -0.1908 -0.0449  2.0677
  123OSM   H15C13027   3.643   0.595   5.980 -1.8625  2.2127 -1.6292
  123OSM    C1413028   3.439   0.691   5.816 -0.9668 -0.2519  0.0029
  123OSM   H14A13029   3.506   0.761   5.863 -0.8773  0.6918 -1.4965
  123OSM   H14B13030   3.339   0.725   5.797 -1.0693  0.1476  1.1908
  123OSM   H14C13031   3.489   0.677   5.722  1.5860  1.5318  0.9984
  123OSM    C1313032   3.367   0.455   5.818 -0.7360 -0.5352 -0.1195
  123OSM   H13A13033   3.360   0.360   5.869  2.4207  0.4598  2.5015
  123OSM   H13B13034   3.400   0.452   5.715 -1.1368  0.9186 -0.3258
  123OSM   H13C13035   3.264   0.482   5.799 -0.3788 -0.4950 -2.1380
  123OSM    C1213036   3.381   0.574   6.031  0.2157  0.8425 -0.0120
  123OSM   H12A13037   3.445   0.636   6.091 -0.4285  1.3232  0.1912
  123OSM   H12B13038   3.390   0.479   6.080  4.4570  1.0510 -0.0026
  123OSM    C1113039   3.237   0.628   6.043  0.0164  0.3642 -0.4339
  123OSM   H11A13040   3.247   0.734   6.012  3.4122 -0.0950 -1.3889
  123OSM   H11B13041   3.209   0.650   6.149 -1.0617  0.8164 -0.8014
  123OSM      P13042   3.103   0.415   6.049 -0.1921 -0.3782 -0.1050
  123OSM    O1313043   3.003   0.343   5.973  0.6230  1.1598 -0.0768
  123OSM    O1413044   3.229   0.344   6.096 -0.4302  0.2820  0.4739
  123OSM    O1113045   3.024   0.471   6.172  0.1739  0.3076  0.2854
  123OSM    O1213046   3.142   0.554   5.968  0.1962  0.0647  0.0836
  123OSM    C1S13047   3.051   0.425   6.306 -0.4363  0.4730  0.4174
  123OSM    H1S13048   3.159   0.433   6.331  0.8738 -2.8574 -3.1723
  123OSM    H1T13049   3.012   0.321   6.318  0.2501 -0.0336 -1.4566
  123OSM     NF13050   3.054   0.509   6.543 -0.2008 -0.2470 -0.1956
  123OSM    HNF13051   3.038   0.427   6.598 -0.7326 -0.2837 -0.3993
  123OSM    C2S13052   2.981   0.513   6.419 -0.4844  0.5120  0.5736
  123OSM    H2S13053   2.976   0.620   6.389  1.7325  0.4928 -0.0253
  123OSM    C3S13054   2.830   0.461   6.432  0.0182  0.1981 -0.0025
  123OSM    H3S13055   2.840   0.365   6.487 -1.6969 -0.8719 -1.4625
  123OSM     O313056   2.769   0.432   6.306 -0.1668  0.8258  0.5046
  123OSM    HO313057   2.840   0.438   6.242  0.0536 -0.1495  0.6385
  123OSM    C4S13058   2.749   0.549   6.522  0.0556 -0.1941  0.4205
  123OSM    H4S13059   2.764   0.516   6.626  2.5475 -0.0022  0.1844
  123OSM    C5S13060   2.679   0.665   6.499 -0.1343  0.3139 -0.0939
  123OSM    H5S13061   2.680   0.713   6.401 -0.7330  0.7779  0.1182
  123OSM    C6S13062   2.609   0.749   6.600 -0.0024  0.4189 -0.4042
  123OSM    H6S13063   2.499   0.735   6.598 -0.1162  1.1856 -2.2898
  123OSM    H6T13064   2.628   0.857   6.580 -0.5776  0.6158  0.0679
  123OSM    C7S13065   2.638   0.720   6.746  0.4765  0.3804  0.6238
  123OSM    H7S13066   2.747   0.740   6.754  0.1029  2.8352  0.3822
  123OSM    H7T13067   2.627   0.613   6.772 -3.2844  1.1166  2.8328
  123OSM    C8S13068   2.558   0.797   6.857  0.4545  1.0180  0.2806
  123OSM    H8S13069   2.451   0.778   6.836  1.0522 -0.1373 -1.9620
  123OSM    H8T13070   2.574   0.904   6.832 -0.0606  1.5779  2.1288
  123OSM    C9S13071   2.602   0.762   6.996 -0.1189 -0.4275 -0.1162
  123OSM    H9S13072   2.706   0.803   6.995 -0.0617 -0.5555  0.4609
  123OSM    H9T13073   2.606   0.653   7.015 -1.4664 -0.5312 -0.3580
  123OSM   C10S13074   2.529   0.825   7.108 -0.5604  0.0569 -0.0553
  123OSM   H10S13075   2.435   0.766   7.118 -0.8445  0.6966  1.4820
  123OSM   H10T13076   2.507   0.933   7.094  1.2394  0.2038 -2.3065
  123OSM   C11S13077   2.607   0.806   7.246 -0.0896 -0.7598 -0.2607
  123OSM   H11S13078   2.703   0.862   7.247 -1.2017  1.2148 -0.0941
  123OSM   H11T13079   2.653   0.705   7.250  1.4792 -0.0800 -0.6023
  123OSM   C12S13080   2.519   0.849   7.358 -0.2930 -0.6124 -0.2742
  123OSM   H12S13081   2.415   0.814   7.340 -0.7995  1.0383 -0.7822
  123OSM   H12T13082   2.519   0.960   7.370 -2.5807 -0.7931  2.3516
  123OSM   C13S13083   2.553   0.796   7.498  0.2412  0.4130 -0.1765
  123OSM   H13S13084   2.634   0.858   7.543 -0.1293  1.0850 -0.4184
  123OSM   H13T13085   2.580   0.688   7.495 -0.4533  0.2429 -0.6731
  123OSM   C14S13086   2.424   0.797   7.589  0.2682 -0.4744  0.4794
  123OSM   H14S13087   2.334   0.746   7.548 -1.0499  0.4824  2.0587
  123OSM   H14T13088   2.389   0.902   7.599  2.9078  0.2683  3.2690
  123OSM   C15S13089   2.451   0.742   7.724 -0.5084  0.2749 -0.5096
  123OSM   H15S13090   2.532   0.798   7.774  0.3614 -0.6227 -0.8807
  123OSM   H15T13091   2.473   0.634   7.707  1.5473  0.9315 -2.4271
  123OSM   C16S13092   2.334   0.759   7.830 -1.1712  0.0862 -0.1409
  123OSM   H16S13093   2.246   0.704   7.791 -1.3117  0.7416 -0.7597
  123OSM   H16T13094   2.323   0.870   7.838  3.8747  0.6869  5.8754
  123OSM   C17S13095   2.373   0.702   7.967 -0.2756  0.1840  0.0364
  123OSM   H17S13096   2.454   0.773   7.998  0.6748 -0.6434 -0.4860
  123OSM   H17T13097   2.412   0.598   7.965 -1.1705 -0.1518 -0.4564
  123OSM   C18S13098   2.257   0.710   8.062 -0.2050  0.5319  0.9828
  123OSM   H18S13099   2.234   0.817   8.083 -0.3028  0.7873 -0.3395
  123OSM   H18T13100   2.296   0.663   8.154 -0.5934  0.6256  1.1989
  123OSM   H18U13101   2.168   0.656   8.022  1.2789 -0.1595 -1.5915
  123OSM    C1F13102   3.173   0.563   6.551 -0.2526 -0.9227 -0.5295
  123OSM     OF13103   3.209   0.641   6.465  0.0185 -0.2636  0.5428
  123OSM    C2F13104   3.268   0.510   6.657  0.2600 -0.8451  0.6476
  123OSM    H2F13105   3.353   0.467   6.599  2.2875  2.3313  1.0276
  123OSM    H2G13106   3.218   0.430   6.715  0.0800 -1.6706 -0.6049
  123OSM    C3F13107   3.330   0.618   6.747 -0.0571 -0.8106  0.3005
  123OSM    H3F13108   3.247   0.678   6.788 -2.0006 -1.3582 -2.5181
  123OSM    H3G13109   3.409   0.676   6.693  0.3894 -1.7348 -0.0661
  123OSM    C4F13110   3.417   0.554   6.871  0.1553 -0.3989  0.2770
  123OSM    H4F13111   3.469   0.639   6.919 -1.6684 -0.1260  1.9446
  123OSM    H4G13112   3.485   0.484   6.817 -0.5599 -0.4115 -0.6309
  123OSM    C5F13113   3.333   0.474   6.979  0.0532 -0.1250 -0.3244
  123OSM    H5F13114   3.301   0.373   6.946  0.2255 -1.3064  2.7917
  123OSM    H5G13115   3.236   0.524   6.997  0.3089  1.8654 -3.6248
  123OSM    C6F13116   3.404   0.455   7.112 -0.4607 -0.5519 -0.1393
  123OSM    H6F13117   3.422   0.548   7.170  1.5597 -0.3467 -1.0163
  123OSM    H6G13118   3.506   0.422   7.084 -0.9547 -1.2473 -1.1410
  123OSM    C7F13119   3.349   0.346   7.201  0.0379 -0.0583 -0.2112
  123OSM    H7F13120   3.352   0.251   7.144 -2.0041  0.4267 -1.2351
  123OSM    H7G13121   3.240   0.367   7.213 -0.1452 -0.4450 -1.1128
  123OSM    C8F13122   3.415   0.323   7.341  0.0213  0.4343  0.0108
  123OSM    H8F13123   3.516   0.279   7.326 -0.6303 -1.1954  0.1640
  123OSM    H8G13124   3.349   0.243   7.381 -2.3157  1.8521 -0.8281
  123OSM    C9F13125   3.415   0.442   7.430  0.8558 -1.0405 -0.1050
  123OSM    H9F13126   3.463   0.528   7.381  0.1731 -1.2087 -1.0962
  123OSM   C10F13127   3.368   0.440   7.557  0.4359 -0.3412  0.1579
  123OSM   H10F13128   3.360   0.533   7.615 -1.4574 -0.2557 -0.1967
  123OSM   C11F13129   3.316   0.319   7.632  0.8387  0.1422 -0.5469
  123OSM   H11F13130   3.297   0.234   7.564 -1.4797 -0.2516  0.5112
  123OSM   H11G13131   3.219   0.348   7.676 -0.4356 -0.4006 -2.8524
  123OSM   C12F13132   3.402   0.254   7.744 -0.3830 -0.1939  0.4431
  123OSM   H12F13133   3.449   0.158   7.715  0.8517  0.2066  1.0418
  123OSM   H12G13134   3.329   0.235   7.825 -1.7774 -0.0335 -0.7532
  123OSM   C13F13135   3.502   0.358   7.805  0.1847  0.5247 -0.1386
  123OSM   H13F13136   3.447   0.454   7.820 -2.0919 -0.7188 -0.0641
  123OSM   H13G13137   3.582   0.371   7.730  0.2301 -0.4360 -0.2662
  123OSM   C14F13138   3.561   0.316   7.944 -0.3460  0.5551  0.3089
  123OSM   H14F13139   3.669   0.344   7.950 -0.4288  0.5681  3.1618
  123OSM   H14G13140   3.569   0.205   7.950 -0.6932  0.4437 -0.9534
  123OSM   C15F13141   3.489   0.373   8.064 -0.1197  0.0669 -0.6366
  123OSM   H15F13142   3.379   0.376   8.046  0.1500 -1.4689 -3.1551
  123OSM   H15G13143   3.519   0.480   8.068  2.1181 -0.5154 -0.5635
  123OSM   C16F13144   3.512   0.304   8.196  0.2898  0.5937 -0.2010
  123OSM   H16F13145   3.612   0.328   8.239  0.6075 -1.6104  0.4009
  123OSM   H16G13146   3.500   0.194   8.186  0.6369  0.5919 -0.5966
  123OSM   C17F13147   3.410   0.349   8.304 -0.4026 -0.4630  0.0511
  123OSM   H17F13148   3.427   0.287   8.395  2.4961  0.6786  0.3915
  123OSM   H17G13149   3.312   0.341   8.253  0.7798 -0.8290 -2.2572
  123OSM   C18F13150   3.424   0.500   8.341  0.7405  0.0070 -0.5546
  123OSM   H18F13151   3.522   0.537   8.376  0.9615 -1.0641  0.0022
  123OSM   H18G13152   3.348   0.523   8.419  2.3223 -0.6647  1.2652
  123OSM   H18H13153   3.385   0.559   8.255 -0.2566 -0.1273 -0.2144
  124OSM      N13154   4.832   3.915   6.049  0.0985 -0.4845 -0.1987
  124OSM    C1513155   4.963   3.916   5.969  0.7062  0.8463 -0.2047
  124OSM   H15A13156   5.024   3.846   6.024 -0.6399 -0.9143 -0.8386
  124OSM   H15B13157   5.011   4.012   5.955  0.9043  0.8572  0.5203
  124OSM   H15C13158   4.945   3.873   5.872 -1.8956  2.0937 -0.3782
  124OSM    C1413159   4.726   3.958   5.945 -0.1715  0.4589 -0.1813
  124OSM   H14A13160   4.744   4.060   5.915  0.2329  0.3477 -0.3112
  124OSM   H14B13161   4.630   3.956   5.996 -0.7548  0.7256 -1.2346
  124OSM   H14C13162   4.724   3.898   5.855 -1.9330 -1.6788  1.1463
  124OSM    C1313163   4.798   3.781   6.113  0.3051 -0.1550  0.3084
  124OSM   H13A13164   4.879   3.751   6.177  0.2337 -3.3299 -0.9230
  124OSM   H13B13165   4.775   3.710   6.035  1.4927 -0.5813  0.3362
  124OSM   H13C13166   4.711   3.786   6.177 -0.3727 -1.8205 -0.4109
  124OSM    C1213167   4.844   4.018   6.161 -0.2841 -0.2566 -0.0780
  124OSM   H12A13168   4.861   4.117   6.120 -0.4406 -0.2642 -0.1622
  124OSM   H12B13169   4.943   4.002   6.200 -0.8132 -0.7639  1.0881
  124OSM    C1113170   4.749   4.021   6.278 -0.0651  0.0851 -0.0780
  124OSM   H11A13171   4.794   4.109   6.330  1.0770 -0.3915 -0.2161
  124OSM   H11B13172   4.759   3.938   6.350  0.6409  1.1605  1.1051
  124OSM      P13173   4.487   3.982   6.285  0.0301 -0.1238 -0.1444
  124OSM    O1313174   4.377   3.993   6.189  0.3407 -0.1937 -0.3785
  124OSM    O1413175   4.526   3.843   6.323  0.6806 -0.3335  0.3269
  124OSM    O1113176   4.461   4.069   6.416 -0.5715 -0.0719 -0.0882
  124OSM    O1213177   4.623   4.051   6.223  0.0064  0.5137  0.1345
  124OSM    C1S13178   4.515   4.030   6.548 -0.9738  0.2749  0.4242
  124OSM    H1S13179   4.622   4.003   6.530 -1.4292  0.4833 -3.2628
  124OSM    H1T13180   4.467   3.939   6.590 -1.9352  1.5825  2.3044
  124OSM     NF13181   4.571   4.107   6.781 -0.0909  0.4384  0.3030
  124OSM    HNF13182   4.509   4.092   6.858  0.6646 -0.8915  0.6915
  124OSM    C2S13183   4.501   4.140   6.661 -0.0008  0.3035  0.4138
  124OSM    H2S13184   4.555   4.227   6.618 -0.0509  0.1231 -0.0144
  124OSM    C3S13185   4.352   4.174   6.682 -0.5070  0.1822 -0.0856
  124OSM    H3S13186   4.299   4.079   6.701 -1.1938  0.3441 -1.1370
  124OSM     O313187   4.291   4.221   6.560 -0.1403 -0.0927  0.5266
  124OSM    HO313188   4.363   4.202   6.500 -0.0557 -0.9344  0.8940
  124OSM    C4S13189   4.325   4.281   6.797 -0.3983 -0.0028  0.8265
  124OSM    H4S13190   4.307   4.227   6.891 -0.2336  2.0971  2.1245
  124OSM    C5S13191   4.316   4.420   6.795 -0.6520  0.6649  0.0661
  124OSM    H5S13192   4.324   4.466   6.695 -0.2417 -1.2692 -0.8340
  124OSM    C6S13193   4.300   4.501   6.920 -0.4503  0.0457 -0.0145
  124OSM    H6S13194   4.197   4.538   6.933 -0.0005  1.1644  0.4378
  124OSM    H6T13195   4.356   4.595   6.900 -2.9571  1.5260 -0.4412
  124OSM    C7S13196   4.337   4.428   7.049  0.0802  0.0484 -0.8766
  124OSM    H7S13197   4.434   4.376   7.037 -0.5380 -0.8194 -2.4936
  124OSM    H7T13198   4.257   4.357   7.079  0.4614  0.2926  0.7750
  124OSM    C8S13199   4.349   4.521   7.163  0.0242 -0.1595 -0.0106
  124OSM    H8S13200   4.413   4.610   7.143  0.3557 -0.6643 -1.2762
  124OSM    H8T13201   4.394   4.461   7.245 -0.1106  0.4702  0.5377
  124OSM    C9S13202   4.221   4.577   7.221  0.2418 -0.5385  0.5477
  124OSM    H9S13203   4.152   4.492   7.238 -1.9667  0.8471 -1.0113
  124OSM    H9T13204   4.177   4.641   7.142 -1.2258  0.6669  2.2667
  124OSM   C10S13205   4.239   4.651   7.358  0.3118 -0.0776  0.0127
  124OSM   H10S13206   4.139   4.699   7.371 -0.6222 -1.8673 -0.2262
  124OSM   H10T13207   4.321   4.725   7.348 -1.0301  1.5838  0.8119
  124OSM   C11S13208   4.265   4.557   7.478  0.3069  0.3900  0.2191
  124OSM   H11S13209   4.361   4.501   7.472  0.2623  0.3410 -0.0235
  124OSM   H11T13210   4.186   4.481   7.497  1.8771 -1.3749  0.0717
  124OSM   C12S13211   4.267   4.629   7.615 -0.0795  0.3082  0.4138
  124OSM   H12S13212   4.173   4.688   7.610  0.4642  1.1072 -0.9796
  124OSM   H12T13213   4.349   4.704   7.612  0.0769  0.1562  0.8909
  124OSM   C13S13214   4.264   4.534   7.734 -0.5159 -0.3274  0.6805
  124OSM   H13S13215   4.357   4.473   7.734 -0.0314  0.2363 -2.4934
  124OSM   H13T13216   4.177   4.466   7.745 -1.0478  0.1756 -0.2945
  124OSM   C14S13217   4.282   4.613   7.870 -0.3632 -0.4570  0.5703
  124OSM   H14S13218   4.180   4.651   7.895  0.0556  2.7905 -2.0094
  124OSM   H14T13219   4.342   4.706   7.868 -0.6504 -0.2659  0.7441
  124OSM   C15S13220   4.328   4.510   7.979 -0.1038  0.8731  0.5448
  124OSM   H15S13221   4.373   4.585   8.048  1.1867  1.4720 -0.8755
  124OSM   H15T13222   4.409   4.443   7.943 -1.1662 -0.3983  0.4691
  124OSM   C16S13223   4.214   4.432   8.042 -0.7635 -0.2822 -0.0204
  124OSM   H16S13224   4.175   4.366   7.961  0.2231  0.2416 -0.9545
  124OSM   H16T13225   4.133   4.498   8.079 -0.4822 -0.4078  0.8280
  124OSM   C17S13226   4.242   4.341   8.164  0.4933 -0.0591 -0.0243
  124OSM   H17S13227   4.290   4.406   8.240 -3.0515  0.7020  1.7716
  124OSM   H17T13228   4.315   4.261   8.137  1.6255  0.5919  0.9883
  124OSM   C18S13229   4.121   4.276   8.221  1.3577 -1.4073 -0.2995
  124OSM   H18S13230   4.086   4.193   8.155  0.9262 -2.0213  0.6859
  124OSM   H18T13231   4.041   4.351   8.204  2.1003 -0.4599  0.2379
  124OSM   H18U13232   4.142   4.252   8.327  1.6393 -3.5550 -0.7860
  124OSM    C1F13233   4.703   4.096   6.778 -0.6771  0.1523  0.5872
  124OSM     OF13234   4.767   4.135   6.678  0.5841 -0.1253 -0.5984
  124OSM    C2F13235   4.770   4.062   6.909  0.3283  0.2625  0.6398
  124OSM    H2F13236   4.755   3.952   6.922  0.6583 -0.1263 -1.7435
  124OSM    H2G13237   4.726   4.122   6.991 -1.2907 -0.2085  0.1548
  124OSM    C3F13238   4.918   4.084   6.902 -0.2565 -0.9180 -0.3435
  124OSM    H3F13239   4.943   4.191   6.890 -1.0902 -0.7061 -0.2694
  124OSM    H3G13240   4.954   4.042   6.806  0.6760  1.7382 -1.2157
  124OSM    C4F13241   5.011   4.023   7.013  0.6588 -0.4676 -0.1291
  124OSM    H4F13242   5.114   4.062   6.999 -0.6346  3.4390 -0.1880
  124OSM    H4G13243   5.017   3.916   6.985  1.1401  0.3223 -3.4735
  124OSM    C5F13244   4.957   4.061   7.148  0.5777 -0.0351 -0.5144
  124OSM    H5F13245   4.868   3.995   7.153  1.4015 -1.1109  0.7763
  124OSM    H5G13246   4.925   4.167   7.142  1.8351  0.3984  0.1741
  124OSM    C6F13247   5.045   4.035   7.265 -0.2567 -0.2718  0.4535
  124OSM    H6F13248   5.113   4.117   7.298 -2.3467  1.1816  1.4589
  124OSM    H6G13249   5.090   3.937   7.240  0.2324 -0.0302  0.3652
  124OSM    C7F13250   4.954   4.012   7.394 -1.1866  0.1240  0.0247
  124OSM    H7F13251   4.898   3.918   7.377 -1.6150  0.6455 -1.6460
  124OSM    H7G13252   4.883   4.097   7.391 -0.8059  0.4142 -1.1318
  124OSM    C8F13253   5.031   3.999   7.530 -0.5590 -0.6670 -0.4127
  124OSM    H8F13254   5.101   4.085   7.538 -0.1794 -1.0881  1.2808
  124OSM    H8G13255   5.090   3.905   7.515 -1.6191 -0.9336 -3.6874
  124OSM    C9F13256   4.935   3.986   7.649 -0.8443 -0.3775 -0.6055
  124OSM    H9F13257   4.831   4.007   7.617 -1.6433 -0.9562  1.4394
  124OSM   C10F13258   4.970   3.960   7.773  0.0528  0.1303  0.5419
  124OSM   H10F13259   4.898   3.977   7.855 -0.6385 -0.6526  0.1159
  124OSM   C11F13260   5.107   3.947   7.822 -0.2882  0.0473 -0.2983
  124OSM   H11F13261   5.182   3.958   7.742 -0.2359 -1.7462 -0.5373
  124OSM   H11G13262   5.122   3.845   7.865  0.4006  0.2033 -0.1656
  124OSM   C12F13263   5.152   4.050   7.936 -0.7138 -0.2579 -0.4586
  124OSM   H12F13264   5.091   4.034   8.027 -1.3194 -0.4784 -0.8940
  124OSM   H12G13265   5.139   4.155   7.904  1.4290  0.4209  0.6947
  124OSM   C13F13266   5.293   4.008   7.995 -0.2222  0.4910  0.3335
  124OSM   H13F13267   5.375   4.026   7.922 -0.8157 -1.9356 -1.0486
  124OSM   H13G13268   5.286   3.898   8.006 -0.0926  0.2923 -1.3355
  124OSM   C14F13269   5.325   4.060   8.132  0.2601  0.4449  0.0660
  124OSM   H14F13270   5.394   3.990   8.183  2.6487  1.4964 -1.5444
  124OSM   H14G13271   5.239   4.061   8.202  1.1799  1.1675  1.2063
  124OSM   C15F13272   5.389   4.193   8.135 -0.0874 -0.4590 -0.0968
  124OSM   H15F13273   5.310   4.272   8.135 -0.1419 -0.5143 -0.2004
  124OSM   H15G13274   5.464   4.210   8.055  1.4236  1.7443  1.6658
  124OSM   C16F13275   5.477   4.228   8.257 -0.9413 -0.1067 -1.3543
  124OSM   H16F13276   5.516   4.331   8.249  1.7217 -0.7944  0.9207
  124OSM   H16G13277   5.568   4.168   8.279 -0.6332  0.9902  0.5801
  124OSM   C17F13278   5.384   4.243   8.375  0.8343  1.0978 -0.4633
  124OSM   H17F13279   5.286   4.276   8.334  0.0751 -0.7229 -0.1844
  124OSM   H17G13280   5.429   4.317   8.445  1.6153  1.5471 -1.4053
  124OSM   C18F13281   5.353   4.122   8.455  0.1687  0.4828 -0.4348
  124OSM   H18F13282   5.443   4.058   8.465 -0.8483 -0.6654  2.2312
  124OSM   H18G13283   5.258   4.072   8.425 -1.7366  2.5740  1.7244
  124OSM   H18H13284   5.325   4.150   8.558  1.2727 -1.4278  0.4452
  125OSM      N13285   4.270   5.762   6.127  0.1262  0.3346 -0.3677
  125OSM    C1513286   4.219   5.665   6.029 -0.1660 -0.4159  0.0089
  125OSM   H15A13287   4.288   5.582   6.024  2.4893  1.7240 -2.2045
  125OSM   H15B13288   4.228   5.705   5.929  4.1789 -1.0600 -0.0331
  125OSM   H15C13289   4.123   5.627   6.060 -0.9091  3.1391  2.7540
  125OSM    C1413290   4.269   5.696   6.264  0.9989 -0.0845 -0.2530
  125OSM   H14A13291   4.321   5.758   6.335  0.9729 -0.8239  0.4189
  125OSM   H14B13292   4.296   5.592   6.274 -0.6302 -0.4965  0.2515
  125OSM   H14C13293   4.168   5.698   6.302  0.7601  0.5895 -0.8997
  125OSM    C1313294   4.413   5.787   6.094  0.6390  0.2088 -0.4153
  125OSM   H13A13295   4.456   5.861   6.160 -0.3684  0.0744  0.4143
  125OSM   H13B13296   4.412   5.828   5.994  0.4523  1.7173  0.1668
  125OSM   H13C13297   4.466   5.693   6.093 -1.4108 -1.0064 -0.8503
  125OSM    C1213298   4.202   5.887   6.137  0.6878 -0.1176  0.3304
  125OSM   H12A13299   4.216   5.943   6.046  0.9548  1.4239  1.2808
  125OSM   H12B13300   4.250   5.943   6.216  0.1861  0.0577  0.5137
  125OSM    C1113301   4.050   5.886   6.184  0.6550  0.2671  0.8353
  125OSM   H11A13302   4.001   5.797   6.140 -1.5042  1.5743  0.4546
  125OSM   H11B13303   3.998   5.976   6.146 -0.0405 -0.5508 -0.2291
  125OSM      P13304   4.095   6.014   6.405 -0.0154  0.1789 -0.3492
  125OSM    O1313305   4.238   6.037   6.387 -0.6200 -0.1889 -0.3336
  125OSM    O1413306   4.005   6.129   6.368  0.0512  0.5152 -0.2767
  125OSM    O1113307   4.047   5.981   6.553  0.1189 -0.9309 -0.0176
  125OSM    O1213308   4.051   5.882   6.324  0.5477  0.3068 -0.5838
  125OSM    C1S13309   4.084   5.850   6.603 -0.3314 -0.7680 -0.1970
  125OSM    H1S13310   4.194   5.836   6.598  0.0744  0.4970  2.8838
  125OSM    H1T13311   4.030   5.769   6.550  1.1391 -2.3933  0.6567
  125OSM     NF13312   4.088   5.698   6.796  0.5291  0.8847 -0.0923
  125OSM    HNF13313   4.014   5.630   6.796  1.1069  0.2433 -0.4299
  125OSM    C2S13314   4.053   5.831   6.755  0.0935 -0.2268 -0.3098
  125OSM    H2S13315   4.109   5.904   6.818 -1.0488 -1.2445  1.9846
  125OSM    C3S13316   3.897   5.868   6.788 -0.1533  0.5764  0.9089
  125OSM    H3S13317   3.838   5.786   6.744 -0.1700  0.4109  1.2365
  125OSM     O313318   3.846   5.989   6.739  0.0105  0.4067 -0.1685
  125OSM    HO313319   3.911   6.016   6.673 -0.5526 -0.2959 -1.0408
  125OSM    C4S13320   3.886   5.876   6.936  0.0820  0.1762  0.6711
  125OSM    H4S13321   3.954   5.953   6.975 -0.0916  0.7622 -0.1443
  125OSM    C5S13322   3.816   5.804   7.022  0.0615 -0.2003 -0.0338
  125OSM    H5S13323   3.750   5.724   6.984 -2.6327  1.3589  1.0726
  125OSM    C6S13324   3.806   5.828   7.169  0.1164 -0.2484 -0.5155
  125OSM    H6S13325   3.705   5.865   7.195 -0.2227 -1.9515  0.7901
  125OSM    H6T13326   3.886   5.893   7.212  0.5453 -2.5752  2.6354
  125OSM    C7S13327   3.841   5.698   7.242 -0.3144 -0.4833  0.5185
  125OSM    H7S13328   3.922   5.643   7.189 -1.0676 -0.4916 -0.6566
  125OSM    H7T13329   3.751   5.634   7.238 -1.2123  0.8044 -0.2490
  125OSM    C8S13330   3.861   5.725   7.392 -0.4988  0.0642  0.1865
  125OSM    H8S13331   3.928   5.812   7.402 -0.7020  0.4879 -1.7227
  125OSM    H8T13332   3.909   5.639   7.444  0.1530 -2.7286 -4.4031
  125OSM    C9S13333   3.738   5.773   7.467 -0.7300  0.3130 -0.0776
  125OSM    H9S13334   3.686   5.676   7.480  0.1669 -0.1694 -0.0221
  125OSM    H9T13335   3.683   5.834   7.392 -0.5856  2.0908  1.1916
  125OSM   C10S13336   3.761   5.849   7.601  0.0289  0.5694  0.1055
  125OSM   H10S13337   3.668   5.879   7.653 -0.9738 -0.8742 -0.8165
  125OSM   H10T13338   3.808   5.948   7.578  1.9885 -0.7592 -2.1036
  125OSM   C11S13339   3.854   5.782   7.708 -0.2680  0.0453  0.1949
  125OSM   H11S13340   3.956   5.785   7.665 -0.7135 -3.6559 -1.5284
  125OSM   H11T13341   3.828   5.676   7.731  2.2483 -0.2973  1.9094
  125OSM   C12S13342   3.836   5.862   7.838 -0.6311 -0.7344 -0.3018
  125OSM   H12S13343   3.732   5.846   7.873 -0.7414  0.3926 -0.0725
  125OSM   H12T13344   3.843   5.968   7.805 -2.0932 -0.4626  0.2158
  125OSM   C13S13345   3.939   5.827   7.953  0.3501 -0.2512 -0.3799
  125OSM   H13S13346   4.040   5.816   7.906  0.2039 -0.2312 -0.6996
  125OSM   H13T13347   3.910   5.735   8.008  0.4126 -0.7882 -1.2313
  125OSM   C14S13348   3.946   5.945   8.057 -0.7763 -0.2542  0.1247
  125OSM   H14S13349   3.847   5.996   8.054  0.6997  2.8328 -0.6544
  125OSM   H14T13350   4.019   6.021   8.023  0.5937 -2.1530 -1.4201
  125OSM   C15S13351   3.983   5.880   8.191  0.4383 -0.9313 -0.0658
  125OSM   H15S13352   3.917   5.795   8.217 -1.1332 -0.1332 -1.2672
  125OSM   H15T13353   3.961   5.957   8.268 -0.3924 -1.3735  0.1492
  125OSM   C16S13354   4.126   5.833   8.204  0.2541 -0.0971  0.1858
  125OSM   H16S13355   4.192   5.919   8.228  0.4952  0.2024 -1.4664
  125OSM   H16T13356   4.159   5.787   8.109 -3.3600  0.3131 -1.4381
  125OSM   C17S13357   4.147   5.728   8.314 -0.2250 -0.3487  0.4705
  125OSM   H17S13358   4.081   5.647   8.275  0.8246 -0.3601 -1.4153
  125OSM   H17T13359   4.109   5.775   8.407  0.6789 -1.0550  1.2190
  125OSM   C18S13360   4.290   5.676   8.327  0.1368 -0.4076  0.3651
  125OSM   H18S13361   4.331   5.648   8.228  1.2739 -2.6286  1.4024
  125OSM   H18T13362   4.302   5.592   8.399 -2.1420 -1.0488  0.1050
  125OSM   H18U13363   4.346   5.761   8.371 -2.7853  1.2963  1.0512
  125OSM    C1F13364   4.211   5.661   6.814 -0.5900 -0.3300 -0.3800
  125OSM     OF13365   4.308   5.737   6.817  0.0921 -0.3993  0.4708
  125OSM    C2F13366   4.244   5.513   6.835 -0.2389 -0.9400 -0.0268
  125OSM    H2F13367   4.300   5.480   6.745 -1.0371 -0.9078 -0.5392
  125OSM    H2G13368   4.150   5.455   6.846 -0.6698 -0.2758 -0.1735
  125OSM    C3F13369   4.342   5.483   6.965 -0.5299  0.8178  0.4731
  125OSM    H3F13370   4.438   5.535   6.944  0.5723 -0.6924  1.6113
  125OSM    H3G13371   4.358   5.374   6.954 -0.2264  1.0427 -1.9335
  125OSM    C4F13372   4.274   5.511   7.096  0.5903 -0.0723 -0.0076
  125OSM    H4F13373   4.182   5.450   7.111  0.6612 -0.1303  0.1924
  125OSM    H4G13374   4.235   5.615   7.105 -0.2834 -0.5070  1.6674
  125OSM    C5F13375   4.370   5.472   7.213  0.2589  0.4033  0.1706
  125OSM    H5F13376   4.439   5.559   7.208 -2.2057  2.4231 -1.6474
  125OSM    H5G13377   4.418   5.374   7.190 -2.2538 -0.9248  0.1848
  125OSM    C6F13378   4.313   5.470   7.355 -0.7111  0.3602 -0.3342
  125OSM    H6F13379   4.402   5.456   7.420  0.3455 -0.2874 -1.8665
  125OSM    H6G13380   4.254   5.377   7.364  0.6706 -0.4294  1.1792
  125OSM    C7F13381   4.238   5.603   7.395  0.6458  0.2953  1.3836
  125OSM    H7F13382   4.141   5.616   7.343 -0.4612  1.4546  3.5676
  125OSM    H7G13383   4.301   5.688   7.362  2.2561 -0.1362  3.1728
  125OSM    C8F13384   4.206   5.614   7.549 -0.1408  0.9109 -0.0423
  125OSM    H8F13385   4.146   5.706   7.561 -3.5694 -1.0616 -0.6349
  125OSM    H8G13386   4.304   5.626   7.599 -0.0503 -0.7703  0.2373
  125OSM    C9F13387   4.113   5.510   7.596  0.5369 -0.0316  0.4567
  125OSM    H9F13388   4.018   5.504   7.540 -0.7623 -0.4445  2.5572
  125OSM   C10F13389   4.123   5.432   7.700 -0.6544  0.0022 -0.2409
  125OSM   H10F13390   4.048   5.351   7.705  0.6815 -1.2964 -0.4024
  125OSM   C11F13391   4.238   5.423   7.791 -1.2724 -0.1679 -0.1845
  125OSM   H11F13392   4.320   5.495   7.770 -0.9572 -0.6206 -0.5085
  125OSM   H11G13393   4.277   5.319   7.793 -0.1217  0.2308  2.0986
  125OSM   C12F13394   4.177   5.453   7.934 -0.1406 -0.2201  0.2601
  125OSM   H12F13395   4.082   5.396   7.940 -0.9374  0.6196 -2.5598
  125OSM   H12G13396   4.150   5.560   7.938  1.8809  0.2811  3.2311
  125OSM   C13F13397   4.280   5.426   8.033  0.1749  0.7404 -0.2112
  125OSM   H13F13398   4.331   5.522   8.054  0.5924  0.9238 -1.9529
  125OSM   H13G13399   4.346   5.343   8.001 -0.7068 -1.6132  3.4212
  125OSM   C14F13400   4.211   5.366   8.152 -0.4298  0.0557  0.0483
  125OSM   H14F13401   4.146   5.280   8.124  1.0989 -1.7585  1.7352
  125OSM   H14G13402   4.163   5.450   8.206 -0.9899 -0.6092  0.6111
  125OSM   C15F13403   4.321   5.315   8.254  1.4229  0.1753  0.0190
  125OSM   H15F13404   4.381   5.401   8.291  2.8867 -0.5283 -0.6179
  125OSM   H15G13405   4.395   5.251   8.201 -0.0041  0.2488 -2.2019
  125OSM   C16F13406   4.271   5.242   8.377 -0.2874  0.0501 -1.4653
  125OSM   H16F13407   4.214   5.151   8.350  1.4897 -1.7322  0.4961
  125OSM   H16G13408   4.210   5.310   8.441  0.8188 -0.5505  0.2881
  125OSM   C17F13409   4.388   5.191   8.462 -0.8278 -0.1281 -0.6201
  125OSM   H17F13410   4.439   5.127   8.387 -3.6477 -1.8478 -1.2063
  125OSM   H17G13411   4.365   5.121   8.545  1.0490 -2.5442 -2.0190
  125OSM   C18F13412   4.472   5.298   8.519 -0.1979 -0.3212 -0.0116
  125OSM   H18F13413   4.558   5.264   8.580  0.7636  0.5281 -0.8537
  125OSM   H18G13414   4.409   5.368   8.579  0.1203  0.7328 -0.8746
  125OSM   H18H13415   4.525   5.365   8.448  1.4027 -0.4528  0.9997
  126OSM      N13416   1.052   4.895   6.777 -0.3430 -0.4907 -0.6303
  126OSM    C1513417   1.042   4.816   6.650 -0.0785 -0.0797 -0.7479
  126OSM   H15A13418   1.105   4.729   6.648 -0.8569 -0.6662 -0.3046
  126OSM   H15B13419   1.083   4.868   6.564 -1.2170  1.8741 -0.1806
  126OSM   H15C13420   0.941   4.793   6.617 -0.6419  2.9651 -1.5205
  126OSM    C1413421   0.980   5.026   6.755 -0.8610 -0.0766 -0.4097
  126OSM   H14A13422   1.033   5.081   6.679  0.7822  1.4061  1.7128
  126OSM   H14B13423   0.988   5.076   6.850  1.6310 -1.5461  0.2547
  126OSM   H14C13424   0.881   5.016   6.712  0.0574 -1.3505 -2.3736
  126OSM    C1313425   0.973   4.815   6.878  0.0657  0.4379  0.2153
  126OSM   H13A13426   1.033   4.735   6.919  0.8725  0.2036 -1.3073
  126OSM   H13B13427   0.895   4.753   6.836 -0.0840  0.6035  0.2523
  126OSM   H13C13428   0.929   4.869   6.959 -1.9538 -0.1228 -0.4540
  126OSM    C1213429   1.197   4.908   6.819  0.2078  0.2805 -0.9695
  126OSM   H12A13430   1.242   4.813   6.845  2.1218  1.7699  1.8067
  126OSM   H12B13431   1.193   4.962   6.913  0.2209 -2.9487  1.0637
  126OSM    C1113432   1.294   4.978   6.722 -0.2462  0.4695 -0.1603
  126OSM   H11A13433   1.279   4.926   6.625  5.9214 -0.8169 -0.8740
  126OSM   H11B13434   1.401   4.971   6.752 -0.0382  3.4245  0.1130
  126OSM      P13435   1.368   5.202   6.616 -0.1814  0.1361 -0.1138
  126OSM    O1313436   1.374   5.135   6.484 -0.2647 -0.0654 -0.0224
  126OSM    O1413437   1.328   5.344   6.627 -0.0482  0.6533 -0.0994
  126OSM    O1113438   1.518   5.175   6.678 -0.1202 -0.1143  0.0542
  126OSM    O1213439   1.273   5.123   6.712 -0.2827  0.1360 -0.1252
  126OSM    C1S13440   1.578   5.263   6.776 -0.3137 -0.9308 -1.2515
  126OSM    H1S13441   1.529   5.363   6.781 -1.1140 -1.3801  0.7331
  126OSM    H1T13442   1.687   5.277   6.759 -0.1606 -0.8619 -0.2683
  126OSM     NF13443   1.601   5.305   7.028  0.1231  0.6139 -0.6048
  126OSM    HNF13444   1.691   5.315   7.068 -0.9558  0.7195  1.9935
  126OSM    C2S13445   1.573   5.203   6.926  0.2723  0.3816  0.2073
  126OSM    H2S13446   1.469   5.166   6.928  1.1146 -2.1547  1.7297
  126OSM    C3S13447   1.662   5.081   6.926 -0.2512 -0.9169 -0.3345
  126OSM    H3S13448   1.767   5.105   6.898 -0.2249  0.3329  0.7436
  126OSM     O313449   1.625   4.988   6.832 -0.2564 -0.0536 -0.4200
  126OSM    HO313450   1.553   5.028   6.783 -0.1662  1.9828  0.9999
  126OSM    C4S13451   1.660   5.004   7.057  0.0227  1.2799  0.0692
  126OSM    H4S13452   1.574   4.940   7.082  0.1535  1.2805  0.5182
  126OSM    C5S13453   1.766   5.007   7.146 -1.0833  0.3948  0.7459
  126OSM    H5S13454   1.852   5.065   7.110 -1.1559 -0.1069 -0.2744
  126OSM    C6S13455   1.800   4.941   7.276  0.4838  0.1363 -0.3392
  126OSM    H6S13456   1.877   5.003   7.327  3.2608 -1.5377 -2.2544
  126OSM    H6T13457   1.857   4.848   7.257  0.4912 -0.2964  1.5873
  126OSM    C7S13458   1.671   4.927   7.364 -0.0625  1.2681  0.2642
  126OSM    H7S13459   1.590   4.887   7.300  1.5648 -1.6303 -0.1846
  126OSM    H7T13460   1.634   5.023   7.405 -1.0305  0.7129  0.7100
  126OSM    C8S13461   1.697   4.830   7.482 -0.4113  0.4463  0.5296
  126OSM    H8S13462   1.793   4.777   7.460 -0.6288  0.4523 -0.4754
  126OSM    H8T13463   1.609   4.762   7.483 -1.1245  1.3158 -0.4554
  126OSM    C9S13464   1.701   4.909   7.612 -0.0490  0.1978 -0.0789
  126OSM    H9S13465   1.603   4.958   7.632 -0.4268 -0.8599  0.7896
  126OSM    H9T13466   1.785   4.981   7.621 -0.3230  0.7264 -1.6196
  126OSM   C10S13467   1.719   4.814   7.730  0.9160 -0.5715  0.6820
  126OSM   H10S13468   1.822   4.773   7.734  0.5218 -1.7082 -0.3864
  126OSM   H10T13469   1.646   4.731   7.719  0.1299  0.3173 -1.0936
  126OSM   C11S13470   1.678   4.873   7.866 -0.6025 -0.7353  0.3671
  126OSM   H11S13471   1.569   4.894   7.869 -0.7290 -1.5130  2.2968
  126OSM   H11T13472   1.740   4.962   7.892  0.1462 -0.8403 -0.9427
  126OSM   C12S13473   1.696   4.784   7.983 -0.5553 -0.4958  0.1379
  126OSM   H12S13474   1.790   4.724   7.990 -0.2428 -0.1985 -1.2674
  126OSM   H12T13475   1.614   4.710   7.980 -0.3105 -1.0517  3.4100
  126OSM   C13S13476   1.684   4.871   8.113 -0.3253  0.1893  0.6747
  126OSM   H13S13477   1.589   4.927   8.100  1.7462  3.1724 -5.6811
  126OSM   H13T13478   1.768   4.943   8.124  0.2624 -0.1714 -1.0960
  126OSM   C14S13479   1.665   4.781   8.241  0.6874 -0.4759 -0.7451
  126OSM   H14S13480   1.742   4.702   8.230  1.5377  0.5348 -2.4257
  126OSM   H14T13481   1.572   4.721   8.236  1.0415 -0.9746 -1.5380
  126OSM   C15S13482   1.686   4.861   8.370 -0.2874 -0.0899  0.7415
  126OSM   H15S13483   1.596   4.924   8.387  0.7393  1.2976  1.1981
  126OSM   H15T13484   1.773   4.928   8.349  0.8277 -0.9924  2.3166
  126OSM   C16S13485   1.719   4.776   8.492 -0.0466 -0.1224 -0.4632
  126OSM   H16S13486   1.745   4.825   8.588  0.1305 -1.0041 -0.0512
  126OSM   H16T13487   1.811   4.714   8.482  1.0950  1.4710 -0.4250
  126OSM   C17S13488   1.607   4.686   8.540  0.4093 -0.3033 -0.0241
  126OSM   H17S13489   1.644   4.638   8.633  0.6131  2.3992  1.3664
  126OSM   H17T13490   1.589   4.603   8.468 -0.9656 -0.1369  0.1072
  126OSM   C18S13491   1.474   4.748   8.577  0.7512  0.1314 -0.2303
  126OSM   H18S13492   1.417   4.694   8.657  1.2667  3.3715  2.5326
  126OSM   H18T13493   1.414   4.769   8.486  2.2002  0.5564 -1.1010
  126OSM   H18U13494   1.495   4.849   8.618  0.5448  0.0042  0.2011
  126OSM    C1F13495   1.506   5.389   7.058 -0.6307 -0.2587  0.5054
  126OSM     OF13496   1.398   5.384   6.994 -0.3471 -0.2929 -0.4406
  126OSM    C2F13497   1.533   5.483   7.172  0.3038 -0.7075  0.0608
  126OSM    H2F13498   1.643   5.499   7.178 -0.0071  2.8373 -1.4210
  126OSM    H2G13499   1.505   5.434   7.268  1.3976 -1.9628 -0.2376
  126OSM    C3F13500   1.458   5.619   7.143 -0.2408 -0.3125 -0.3460
  126OSM    H3F13501   1.348   5.609   7.151 -0.2040  0.7665  3.2310
  126OSM    H3G13502   1.481   5.654   7.040 -1.9297  1.7640 -0.0704
  126OSM    C4F13503   1.500   5.734   7.241  0.0550  0.6253  0.1326
  126OSM    H4F13504   1.454   5.826   7.198 -0.6977  0.0566 -0.2977
  126OSM    H4G13505   1.609   5.754   7.228 -0.5563  2.6716 -2.8347
  126OSM    C5F13506   1.475   5.711   7.391  0.4201  0.3074  0.2926
  126OSM    H5F13507   1.538   5.626   7.426 -0.6112 -1.5087 -2.0228
  126OSM    H5G13508   1.372   5.670   7.395  0.4303  0.3440  1.4291
  126OSM    C6F13509   1.479   5.829   7.489  0.2063 -0.9778 -0.0441
  126OSM    H6F13510   1.436   5.913   7.429 -1.1127 -2.4565 -1.2544
  126OSM    H6G13511   1.582   5.852   7.524  0.8578 -0.8872 -1.8789
  126OSM    C7F13512   1.384   5.811   7.606 -0.0096 -0.0042 -0.7480
  126OSM    H7F13513   1.423   5.726   7.667  1.2284 -0.5760 -2.2895
  126OSM    H7G13514   1.280   5.794   7.570  0.2678 -0.0645 -1.5246
  126OSM    C8F13515   1.383   5.940   7.695  0.3664 -0.6092  0.2869
  126OSM    H8F13516   1.317   5.927   7.783  1.1829  0.1117  1.0313
  126OSM    H8G13517   1.342   6.018   7.627  0.9157 -0.6195 -0.0608
  126OSM    C9F13518   1.519   5.975   7.754  0.1868  0.2340  0.1823
  126OSM    H9F13519   1.579   5.898   7.804  1.8153  1.3581  0.0213
  126OSM   C10F13520   1.585   6.095   7.742 -1.2137 -0.3183 -0.2893
  126OSM   H10F13521   1.675   6.112   7.803 -0.9013 -2.6904  0.0205
  126OSM   C11F13522   1.528   6.213   7.670 -0.3134  0.1259  0.1074
  126OSM   H11F13523   1.427   6.189   7.630  0.3889  1.3440 -2.6516
  126OSM   H11G13524   1.585   6.242   7.579 -0.1094  1.3916  0.6235
  126OSM   C12F13525   1.536   6.337   7.764  0.1506 -1.0747  0.2243
  126OSM   H12F13526   1.640   6.364   7.789 -0.4443 -0.2361  1.9569
  126OSM   H12G13527   1.483   6.303   7.856  2.0795 -2.1495  1.0094
  126OSM   C13F13528   1.461   6.460   7.700  0.0217 -1.2212 -0.6605
  126OSM   H13F13529   1.359   6.431   7.665 -0.3233  1.0044 -1.6482
  126OSM   H13G13530   1.508   6.510   7.613 -2.2974  1.1820 -0.6723
  126OSM   C14F13531   1.440   6.573   7.809 -0.0348  0.8234  0.3686
  126OSM   H14F13532   1.534   6.580   7.868  1.0978  0.6828 -1.3636
  126OSM   H14G13533   1.366   6.552   7.889  0.0126 -0.3746  0.1120
  126OSM   C15F13534   1.408   6.709   7.749 -0.4448 -0.2750  0.3686
  126OSM   H15F13535   1.505   6.731   7.699 -1.5792 -1.2635 -2.4528
  126OSM   H15G13536   1.391   6.792   7.820 -0.7748 -1.0261  1.1935
  126OSM   C16F13537   1.294   6.720   7.647  0.6516 -0.0030 -0.0273
  126OSM   H16F13538   1.291   6.625   7.589 -1.0885  1.2364 -2.1162
  126OSM   H16G13539   1.306   6.806   7.577  1.9148  1.1123  1.4768
  126OSM   C17F13540   1.160   6.729   7.719  0.1416 -0.6393  0.4826
  126OSM   H17F13541   1.183   6.673   7.812  2.0954 -1.7341 -0.6098
  126OSM   H17G13542   1.082   6.673   7.664  1.2331 -1.5631 -0.1811
  126OSM   C18F13543   1.111   6.867   7.746 -0.4880  0.2036 -0.3630
  126OSM   H18F13544   1.106   6.922   7.649 -0.3474  0.4154 -0.2525
  126OSM   H18G13545   1.180   6.921   7.814 -0.2601  0.6236 -0.9171
  126OSM   H18H13546   1.005   6.869   7.778 -0.2636  0.3298  0.3885
  127OSM      N13547   2.669   3.086   6.108 -1.2314 -0.4297  0.0388
  127OSM    C1513548   2.611   3.005   5.995 -0.3415  0.2120  0.3975
  127OSM   H15A13549   2.541   2.931   6.031 -1.0130  0.6711  0.0670
  127OSM   H15B13550   2.693   2.967   5.936 -0.6482  2.4771 -1.6737
  127OSM   H15C13551   2.554   3.074   5.934  0.9852  0.5145 -0.5447
  127OSM    C1413552   2.775   3.180   6.057  0.2344 -0.6458  0.0495
  127OSM   H14A13553   2.747   3.233   5.967 -1.6852  0.5834  1.3023
  127OSM   H14B13554   2.870   3.132   6.040  1.5860  1.3303  1.6782
  127OSM   H14C13555   2.791   3.257   6.130 -1.6592 -0.7873  0.6850
  127OSM    C1313556   2.562   3.162   6.170  0.1690 -0.2780 -0.5429
  127OSM   H13A13557   2.487   3.100   6.217 -0.6440  1.3843  0.4733
  127OSM   H13B13558   2.506   3.220   6.098 -0.1625 -0.5438 -0.5019
  127OSM   H13C13559   2.604   3.227   6.246  0.3065  2.0082 -2.4340
  127OSM    C1213560   2.735   3.005   6.219  0.3027 -0.5998  0.2995
  127OSM   H12A13561   2.655   2.948   6.263 -1.6274  1.2894 -0.6007
  127OSM   H12B13562   2.774   3.070   6.296 -0.2211 -0.5903  0.5594
  127OSM    C1113563   2.844   2.912   6.167 -0.3101  0.0875  0.6005
  127OSM   H11A13564   2.812   2.851   6.080 -0.3780  0.4263  0.3872
  127OSM   H11B13565   2.866   2.839   6.248 -2.0354  0.8228  1.7707
  127OSM      P13566   3.068   3.044   6.216 -0.3770 -0.0408  0.2461
  127OSM    O1313567   3.194   3.076   6.137  0.2776 -0.1537 -0.0351
  127OSM    O1413568   3.003   3.154   6.293  0.0944 -0.5338 -0.1775
  127OSM    O1113569   3.097   2.935   6.313 -0.4969  0.1858  0.9740
  127OSM    O1213570   2.959   2.983   6.117  0.0285  0.2878  0.1012
  127OSM    C1S13571   3.211   2.939   6.397 -0.4192 -0.4123 -0.0605
  127OSM    H1S13572   3.239   3.041   6.431 -0.6368 -0.6026  0.7183
  127OSM    H1T13573   3.295   2.887   6.346 -0.3959 -0.4311 -0.0035
  127OSM     NF13574   3.300   2.878   6.620  0.2374 -0.2878 -0.3152
  127OSM    HNF13575   3.372   2.811   6.605 -0.3456 -0.8993 -0.4237
  127OSM    C2S13576   3.186   2.855   6.528  0.2059 -0.3825  0.0417
  127OSM    H2S13577   3.107   2.903   6.589  1.1373  1.3243 -0.0355
  127OSM    C3S13578   3.148   2.708   6.497 -0.8129  0.0843 -0.2199
  127OSM    H3S13579   3.233   2.647   6.460 -1.6183 -1.6097  0.6429
  127OSM     O313580   3.046   2.690   6.404  0.5594 -0.2129 -0.1254
  127OSM    HO313581   3.024   2.770   6.355 -2.1256 -0.5957  0.3005
  127OSM    C4S13582   3.108   2.647   6.625  0.4296  0.3553 -0.5271
  127OSM    H4S13583   3.023   2.694   6.678 -1.6682  0.3391 -3.6275
  127OSM    C5S13584   3.139   2.531   6.686 -0.3481  0.1410 -0.1195
  127OSM    H5S13585   3.213   2.465   6.639 -0.4004 -1.7354  2.2452
  127OSM    C6S13586   3.085   2.475   6.812 -0.1841 -0.1931 -0.1464
  127OSM    H6S13587   3.048   2.371   6.799  0.5029 -0.2420 -1.9417
  127OSM    H6T13588   3.003   2.541   6.847  1.2852  1.2597  0.6628
  127OSM    C7S13589   3.200   2.468   6.912  0.2308  0.0512  0.3689
  127OSM    H7S13590   3.256   2.564   6.912 -0.8188  0.6885  0.2071
  127OSM    H7T13591   3.277   2.400   6.871  0.9490  1.1690 -0.1775
  127OSM    C8S13592   3.151   2.451   7.060 -0.2547  0.1136  0.0082
  127OSM    H8S13593   3.090   2.358   7.067  0.6554 -0.4204  1.1874
  127OSM    H8T13594   3.088   2.538   7.089 -2.2097 -1.7205  1.5586
  127OSM    C9S13595   3.261   2.420   7.161  0.6255  0.5522 -0.5184
  127OSM    H9S13596   3.325   2.510   7.149 -0.1625  1.4263  1.5059
  127OSM    H9T13597   3.322   2.329   7.140 -0.8311 -0.1503 -1.9469
  127OSM   C10S13598   3.206   2.423   7.308 -0.3786  0.0791  0.4547
  127OSM   H10S13599   3.122   2.351   7.322  0.6186 -0.9530  1.2480
  127OSM   H10T13600   3.159   2.522   7.327 -1.0331  0.0470 -0.8429
  127OSM   C11S13601   3.312   2.405   7.413 -0.5075  0.8011  0.0933
  127OSM   H11S13602   3.393   2.479   7.402 -1.0667  1.5261  0.7494
  127OSM   H11T13603   3.349   2.302   7.394 -2.0230  0.0017  1.2218
  127OSM   C12S13604   3.257   2.420   7.562 -0.0354  0.3842 -0.6498
  127OSM   H12S13605   3.163   2.360   7.567  1.2279 -1.6435  0.3283
  127OSM   H12T13606   3.239   2.529   7.566  0.6336  0.4889 -0.3061
  127OSM   C13S13607   3.363   2.379   7.674  0.6421 -0.1496 -0.1416
  127OSM   H13S13608   3.454   2.439   7.693  1.4181 -1.3046 -0.1005
  127OSM   H13T13609   3.398   2.276   7.649 -0.3063 -1.1263  2.2766
  127OSM   C14S13610   3.293   2.374   7.812  0.4194 -0.3982 -0.7163
  127OSM   H14S13611   3.202   2.310   7.806 -0.7122  1.0323  0.4706
  127OSM   H14T13612   3.258   2.477   7.833 -0.1847 -0.6082 -0.6683
  127OSM   C15S13613   3.378   2.307   7.918 -0.5029 -0.0644 -0.0496
  127OSM   H15S13614   3.464   2.367   7.955 -2.2081  1.7411  1.1398
  127OSM   H15T13615   3.428   2.222   7.865  1.0022  0.9647 -0.3626
  127OSM   C16S13616   3.290   2.266   8.040  0.3080  0.7070  0.0645
  127OSM   H16S13617   3.333   2.184   8.101 -1.7628  0.4930  1.3322
  127OSM   H16T13618   3.195   2.214   8.016  1.6663  0.1063 -5.3717
  127OSM   C17S13619   3.253   2.389   8.121 -0.0821 -0.1053 -0.8612
  127OSM   H17S13620   3.185   2.443   8.052  0.1874 -0.2920 -1.2800
  127OSM   H17T13621   3.347   2.447   8.134  0.3850 -1.0109 -0.0866
  127OSM   C18S13622   3.182   2.364   8.256 -0.4695  0.5461  0.5763
  127OSM   H18S13623   3.134   2.456   8.296 -0.1567  0.9692  0.0017
  127OSM   H18T13624   3.243   2.326   8.341 -0.1204  0.6067  0.3563
  127OSM   H18U13625   3.106   2.286   8.235 -0.2264  0.3339  0.4867
  127OSM    C1F13626   3.323   2.999   6.678 -0.9822  0.1149  0.0862
  127OSM     OF13627   3.244   3.092   6.663 -0.2897 -0.4188 -0.1664
  127OSM    C2F13628   3.455   3.015   6.747  0.2063 -0.5024  0.6165
  127OSM    H2F13629   3.442   3.119   6.783 -1.8172 -1.0133  1.5046
  127OSM    H2G13630   3.533   2.998   6.669  0.0782  0.5382  0.2443
  127OSM    C3F13631   3.476   2.914   6.860  0.5087 -1.1204 -0.2051
  127OSM    H3F13632   3.578   2.926   6.903  0.0032  2.7777  0.3222
  127OSM    H3G13633   3.461   2.810   6.826 -4.1219 -0.6316 -0.2743
  127OSM    C4F13634   3.369   2.912   6.969 -0.1229 -0.2073 -0.0403
  127OSM    H4F13635   3.273   2.867   6.937 -1.1594  1.7348  0.1978
  127OSM    H4G13636   3.348   3.016   6.999 -2.7933 -0.9298  0.8780
  127OSM    C5F13637   3.414   2.844   7.096 -0.0564  0.1139  0.7541
  127OSM    H5F13638   3.517   2.867   7.129  1.1286 -1.3251 -1.6693
  127OSM    H5G13639   3.411   2.736   7.071 -0.4344  0.2896  0.0125
  127OSM    C6F13640   3.317   2.886   7.208  0.0312 -0.0156 -0.2113
  127OSM    H6F13641   3.212   2.867   7.179 -0.4574  2.0858  0.0299
  127OSM    H6G13642   3.342   2.994   7.219 -0.4072  0.1352 -0.6654
  127OSM    C7F13643   3.341   2.814   7.339  0.1873  0.2896  0.2176
  127OSM    H7F13644   3.438   2.845   7.385  1.4114 -1.6215 -0.9642
  127OSM    H7G13645   3.346   2.705   7.324 -2.6414 -0.1733  1.8831
  127OSM    C8F13646   3.229   2.842   7.438 -0.5142  0.0271 -0.3978
  127OSM    H8F13647   3.250   2.762   7.512 -0.4303 -0.2179 -0.6795
  127OSM    H8G13648   3.131   2.810   7.397  0.1823 -0.7440 -1.5529
  127OSM    C9F13649   3.213   2.983   7.482  0.2944  0.0030 -0.0605
  127OSM    H9F13650   3.219   3.069   7.414 -0.2994 -0.0565 -0.1960
  127OSM   C10F13651   3.180   3.017   7.608  0.2384 -0.6609 -0.2416
  127OSM   H10F13652   3.164   3.121   7.640 -0.6117 -0.5793 -0.8915
  127OSM   C11F13653   3.150   2.925   7.722  0.5886  0.1272 -0.0283
  127OSM   H11F13654   3.183   2.821   7.702 -0.0701  0.0343 -0.6785
  127OSM   H11G13655   3.039   2.918   7.721  0.5499  0.6943 -0.4776
  127OSM   C12F13656   3.185   2.964   7.867 -0.3009  0.6748  0.3058
  127OSM   H12F13657   3.159   3.071   7.881 -0.5277  1.1273 -2.8789
  127OSM   H12G13658   3.295   2.954   7.876 -0.1180  0.8236 -1.4275
  127OSM   C13F13659   3.102   2.888   7.973  0.1682 -0.2477 -0.0746
  127OSM   H13F13660   3.144   2.785   7.973  2.5459  0.6357 -0.9100
  127OSM   H13G13661   3.002   2.874   7.928  0.4485 -1.2358 -0.4046
  127OSM   C14F13662   3.088   2.959   8.111  0.7444  0.2483  0.0722
  127OSM   H14F13663   3.014   3.041   8.103 -0.0791  0.1229  4.1724
  127OSM   H14G13664   3.182   3.004   8.151  2.8720 -2.0695 -1.9370
  127OSM   C15F13665   2.998   2.867   8.199 -0.1879  0.3057 -0.1688
  127OSM   H15F13666   3.069   2.785   8.226  0.6944  1.4154  1.0066
  127OSM   H15G13667   2.913   2.833   8.136  1.2975 -1.0129 -1.5599
  127OSM   C16F13668   2.939   2.931   8.321 -0.9416 -0.1830 -0.1251
  127OSM   H16F13669   2.900   2.848   8.384 -0.6122 -1.1203 -1.1248
  127OSM   H16G13670   2.859   2.998   8.284 -1.6048 -0.3957  0.8658
  127OSM   C17F13671   3.033   3.022   8.394 -0.7592  0.0278  0.6294
  127OSM   H17F13672   3.054   3.112   8.333 -1.6136 -0.5909 -0.6358
  127OSM   H17G13673   3.136   2.981   8.399 -0.9547 -0.6046 -0.3171
  127OSM   C18F13674   2.991   3.061   8.535 -0.0882  0.2023 -0.6846
  127OSM   H18F13675   2.899   3.123   8.525 -1.2145 -1.0350  1.3647
  127OSM   H18G13676   3.077   3.117   8.577  2.0642 -2.4143 -1.3555
  127OSM   H18H13677   2.978   2.981   8.610  1.2084  0.1280 -0.5097
  128OSM      N13678   4.757   6.299   6.069  0.8474  0.1347  0.2231
  128OSM    C1513679   4.812   6.439   6.059 -0.1447 -0.1106 -0.0544
  128OSM   H15A13680   4.731   6.510   6.049 -0.0999  0.6868  3.6863
  128OSM   H15B13681   4.876   6.442   5.973  1.1950 -0.4499  0.8933
  128OSM   H15C13682   4.867   6.470   6.147  1.4990  2.0663 -1.7288
  128OSM    C1413683   4.668   6.271   5.952 -0.2214 -0.4322  0.1398
  128OSM   H14A13684   4.716   6.250   5.858  0.1360  1.8997 -0.2519
  128OSM   H14B13685   4.608   6.360   5.942  1.5380  0.8621  0.6302
  128OSM   H14C13686   4.609   6.181   5.968 -0.7568 -0.1058  0.0385
  128OSM    C1313687   4.870   6.201   6.049  0.2754 -0.2826  0.7078
  128OSM   H13A13688   4.831   6.101   6.061  0.4151 -0.3626  0.4930
  128OSM   H13B13689   4.950   6.218   6.119 -0.5209  1.1122  1.3314
  128OSM   H13C13690   4.913   6.209   5.950 -1.8558  0.4203 -0.2364
  128OSM    C1213691   4.689   6.277   6.205 -0.3393 -0.2900 -0.5019
  128OSM   H12A13692   4.634   6.184   6.207 -3.3133  1.3498  0.5646
  128OSM   H12B13693   4.628   6.365   6.219  1.3348  0.8544 -0.1196
  128OSM    C1113694   4.782   6.268   6.330  0.7025 -0.1637  0.1018
  128OSM   H11A13695   4.846   6.179   6.312 -0.1047 -1.1175  1.7810
  128OSM   H11B13696   4.708   6.242   6.409  0.8218  0.3035  0.3672
  128OSM      P13697   4.991   6.423   6.357 -0.0129  0.6859  0.3873
  128OSM    O1313698   5.063   6.317   6.282 -0.3936 -0.7419 -0.3961
  128OSM    O1413699   5.022   6.566   6.324 -0.1839  0.5952 -0.5588
  128OSM    O1113700   5.019   6.406   6.516 -0.0083 -0.8792 -0.1830
  128OSM    O1213701   4.836   6.396   6.360 -0.1270 -0.6400  0.1008
  128OSM    C1S13702   5.002   6.288   6.585 -0.7375 -0.4782  0.1630
  128OSM    H1S13703   5.094   6.226   6.573 -0.9714 -1.3347  2.3184
  128OSM    H1T13704   4.924   6.224   6.540  0.5134  0.0684 -3.0430
  128OSM     NF13705   4.942   6.189   6.805 -0.1491 -0.0167  0.5208
  128OSM    HNF13706   4.848   6.171   6.833 -0.9432  0.5613 -1.5609
  128OSM    C2S13707   4.959   6.307   6.733  0.1068 -0.3298 -0.1267
  128OSM    H2S13708   5.041   6.364   6.780 -0.3291  0.3638 -0.1967
  128OSM    C3S13709   4.833   6.397   6.752  0.0557 -1.2482  0.2244
  128OSM    H3S13710   4.749   6.351   6.696 -1.6222  1.6743  0.1338
  128OSM     O313711   4.834   6.526   6.679  0.2692 -0.0750 -0.2887
  128OSM    HO313712   4.904   6.529   6.613  1.6239 -0.7859  1.0562
  128OSM    C4S13713   4.789   6.406   6.896 -0.0502 -0.3470  0.6263
  128OSM    H4S13714   4.698   6.347   6.915  0.3039 -0.9185  0.5492
  128OSM    C5S13715   4.843   6.492   6.989  0.3823  0.2129 -0.7707
  128OSM    H5S13716   4.921   6.565   6.962  1.6554 -0.8759 -0.1849
  128OSM    C6S13717   4.784   6.493   7.130 -0.1783 -0.4270 -0.2878
  128OSM    H6S13718   4.728   6.400   7.155  1.4439 -1.2277  0.4817
  128OSM    H6T13719   4.728   6.589   7.138  0.2379 -0.2995  1.5385
  128OSM    C7S13720   4.893   6.506   7.242  0.2125  0.3889  0.1810
  128OSM    H7S13721   4.956   6.595   7.222  0.5542  0.7750  2.6693
  128OSM    H7T13722   4.957   6.417   7.256 -0.8356 -0.3850  0.1444
  128OSM    C8S13723   4.824   6.530   7.375  0.1444  0.6017 -0.4753
  128OSM    H8S13724   4.746   6.451   7.385 -2.1547  2.7978 -0.3322
  128OSM    H8T13725   4.773   6.627   7.360 -2.5933 -0.7235 -0.4401
  128OSM    C9S13726   4.919   6.532   7.486 -0.4693  0.1003 -0.1515
  128OSM    H9S13727   4.988   6.620   7.481 -1.6107  0.9856 -0.8148
  128OSM    H9T13728   4.983   6.442   7.483  0.7048  0.9143 -0.4045
  128OSM   C10S13729   4.853   6.538   7.625  0.0891 -0.0638 -0.1546
  128OSM   H10S13730   4.770   6.612   7.627 -1.1066 -1.3592  0.0371
  128OSM   H10T13731   4.925   6.565   7.705 -1.2910  0.1185  1.0729
  128OSM   C11S13732   4.802   6.397   7.666 -0.0922 -0.2862 -0.6594
  128OSM   H11S13733   4.893   6.334   7.667 -0.1553 -0.4903  2.3382
  128OSM   H11T13734   4.736   6.350   7.590 -0.3262  0.3114 -0.8319
  128OSM   C12S13735   4.742   6.390   7.807 -0.2052  0.0068  0.0014
  128OSM   H12S13736   4.704   6.286   7.819 -2.8233  0.8890  0.2310
  128OSM   H12T13737   4.655   6.459   7.806 -1.1291 -1.1331 -0.5313
  128OSM   C13S13738   4.834   6.411   7.921 -0.4001  0.3515 -0.1518
  128OSM   H13S13739   4.878   6.513   7.923  3.8452 -1.2822  1.7692
  128OSM   H13T13740   4.927   6.350   7.914 -0.6847 -0.0257 -0.6438
  128OSM   C14S13741   4.763   6.398   8.053  0.1825  0.2907  0.4507
  128OSM   H14S13742   4.743   6.289   8.068 -0.3290 -0.1882 -2.9145
  128OSM   H14T13743   4.660   6.437   8.035  0.8716  2.9680  1.7958
  128OSM   C15S13744   4.818   6.456   8.182  0.5912 -0.4500 -1.1637
  128OSM   H15S13745   4.816   6.567   8.174  0.7735 -0.3341  0.0717
  128OSM   H15T13746   4.923   6.420   8.190  0.3696 -0.7592  1.1168
  128OSM   C16S13747   4.732   6.412   8.307  0.1363  0.7222 -0.0867
  128OSM   H16S13748   4.749   6.302   8.319 -2.4911 -0.3375 -4.0927
  128OSM   H16T13749   4.622   6.423   8.299  0.3097  1.6852 -1.4061
  128OSM   C17S13750   4.792   6.478   8.434  0.7895  0.5468 -0.9979
  128OSM   H17S13751   4.767   6.586   8.423 -1.1039  0.4533  1.5569
  128OSM   H17T13752   4.901   6.463   8.449  0.3313 -0.1288  2.4252
  128OSM   C18S13753   4.716   6.446   8.563 -0.0128  0.8426  0.3082
  128OSM   H18S13754   4.610   6.463   8.536  0.2224  1.5051 -0.2174
  128OSM   H18T13755   4.740   6.509   8.651 -0.4438 -3.4391  3.8633
  128OSM   H18U13756   4.737   6.339   8.588  3.0545  1.0775 -0.8013
  128OSM    C1F13757   5.037   6.104   6.845  0.5673 -0.0361  0.2366
  128OSM     OF13758   5.154   6.107   6.804 -0.4286  0.2516  0.7244
  128OSM    C2F13759   5.007   6.010   6.957  0.3694 -0.5779  0.6763
  128OSM    H2F13760   5.077   5.924   6.949 -0.3589 -1.2424  1.2583
  128OSM    H2G13761   4.900   5.983   6.949  0.5453 -0.8907 -0.8820
  128OSM    C3F13762   5.021   6.095   7.083  0.0258 -0.4588  0.0399
  128OSM    H3F13763   4.944   6.175   7.078  0.2784 -0.2872 -1.7150
  128OSM    H3G13764   5.121   6.144   7.077  0.3175 -1.1053 -0.5378
  128OSM    C4F13765   5.016   6.016   7.212 -0.0104  0.0753  0.7100
  128OSM    H4F13766   5.106   5.952   7.227  0.2570  0.4899  0.8931
  128OSM    H4G13767   4.941   5.937   7.191  1.3891 -0.8836 -0.9158
  128OSM    C5F13768   4.983   6.099   7.333 -0.5590  0.8510  0.1763
  128OSM    H5F13769   4.882   6.145   7.327 -0.5615  0.6598 -1.9540
  128OSM    H5G13770   5.052   6.186   7.340  0.7006 -0.1296  0.1165
  128OSM    C6F13771   4.995   6.010   7.461  0.8589  0.2281 -0.2077
  128OSM    H6F13772   5.098   5.974   7.482  0.2077 -1.2618  0.5817
  128OSM    H6G13773   4.949   5.910   7.447 -0.5379  0.5015  1.9492
  128OSM    C7F13774   4.950   6.080   7.591  0.4635 -0.2718  0.1469
  128OSM    H7F13775   4.839   6.074   7.595  0.4083  0.8557  0.7419
  128OSM    H7G13776   4.963   6.187   7.562 -0.5192 -0.4878 -1.2160
  128OSM    C8F13777   5.019   6.038   7.722 -0.1529  0.0999  0.5788
  128OSM    H8F13778   5.039   6.143   7.752 -0.5941  1.1367 -2.4505
  128OSM    H8G13779   5.117   5.993   7.694 -1.1879 -1.7510 -0.2907
  128OSM    C9F13780   4.933   5.947   7.813 -0.0139  0.8024 -0.4935
  128OSM    H9F13781   4.844   5.901   7.767  0.2884 -0.8086  0.4626
  128OSM   C10F13782   4.954   5.922   7.940 -0.8489 -0.0398  0.0898
  128OSM   H10F13783   4.887   5.861   8.003  1.0797 -0.0923  2.2107
  128OSM   C11F13784   5.069   5.979   8.024 -0.3036 -0.0131  0.0777
  128OSM   H11F13785   5.145   6.023   7.957 -0.8023  0.6097 -0.0816
  128OSM   H11G13786   5.110   5.901   8.093 -2.3524 -0.6760  0.6128
  128OSM   C12F13787   5.019   6.102   8.093  0.0335  0.1307  0.6343
  128OSM   H12F13788   4.916   6.092   8.133 -0.4855 -0.1063 -0.7033
  128OSM   H12G13789   5.015   6.197   8.035 -1.7639  0.4867  1.3084
  128OSM   C13F13790   5.118   6.133   8.214 -0.8575  0.3269  0.7746
  128OSM   H13F13791   5.133   6.243   8.211  3.0198 -0.0601 -2.8706
  128OSM   H13G13792   5.218   6.094   8.183 -1.1429  1.6517 -2.1218
  128OSM   C14F13793   5.074   6.069   8.353  0.0378 -0.2419  0.5013
  128OSM   H14F13794   5.063   5.958   8.347 -2.9340 -0.0255  0.4294
  128OSM   H14G13795   4.969   6.105   8.357 -0.3408 -1.2538  0.1410
  128OSM   C15F13796   5.162   6.111   8.465  1.3557 -0.0241 -0.0450
  128OSM   H15F13797   5.180   6.220   8.456  0.2629  0.1068 -0.8877
  128OSM   H15G13798   5.258   6.055   8.463  0.8918 -0.8410 -1.4305
  128OSM   C16F13799   5.085   6.094   8.602  0.3361  0.3675  0.2324
  128OSM   H16F13800   5.031   5.997   8.605  3.4279 -1.4781  0.7008
  128OSM   H16G13801   5.020   6.182   8.618 -0.4524 -0.0589 -0.5286
  128OSM   C17F13802   5.182   6.081   8.717 -0.1569 -0.5315 -0.3509
  128OSM   H17F13803   5.118   6.081   8.808 -0.6711  2.9262 -0.5733
  128OSM   H17G13804   5.246   6.171   8.724 -0.8118 -0.0855 -0.0657
  128OSM   C18F13805   5.266   5.958   8.713  0.0724 -0.3032 -0.0685
  128OSM   H18F13806   5.208   5.862   8.712  0.0233 -0.3535  2.0796
  128OSM   H18G13807   5.321   5.932   8.806  0.1081  1.1765  0.3399
  128OSM   H18H13808   5.330   5.960   8.623 -1.5199  1.7261 -1.2375
  129OSM      N13809   2.380   3.566   6.440 -0.0967  0.1168 -0.2053
  129OSM    C1513810   2.406   3.497   6.301 -0.2904  0.1275  0.5010
  129OSM   H15A13811   2.326   3.426   6.284  0.5010 -0.6824  0.0556
  129OSM   H15B13812   2.491   3.431   6.312  0.6685  1.0060 -1.1743
  129OSM   H15C13813   2.412   3.559   6.213 -2.1798  0.2997  0.4530
  129OSM    C1413814   2.498   3.647   6.474 -0.5831  0.5156  0.3465
  129OSM   H14A13815   2.587   3.587   6.479  1.0063  2.8270  1.7433
  129OSM   H14B13816   2.473   3.694   6.568 -1.2632  0.0054  0.4334
  129OSM   H14C13817   2.520   3.721   6.399  3.4547 -0.9014 -0.1046
  129OSM    C1313818   2.272   3.664   6.414  0.3070 -0.3584  0.1935
  129OSM   H13A13819   2.298   3.740   6.342  1.2293 -0.5479  0.3100
  129OSM   H13B13820   2.235   3.697   6.510  2.3214 -1.8695  1.5866
  129OSM   H13C13821   2.184   3.621   6.370 -0.7585  0.9364  0.9847
  129OSM    C1213822   2.344   3.469   6.547  0.3266  0.0803 -0.0365
  129OSM   H12A13823   2.248   3.426   6.519  0.2710 -0.0923  0.4174
  129OSM   H12B13824   2.321   3.518   6.640 -1.6495  0.3310 -0.6002
  129OSM    C1113825   2.441   3.354   6.566 -0.9126 -0.7534 -0.4475
  129OSM   H11A13826   2.411   3.304   6.661  0.2043 -2.8725 -1.1323
  129OSM   H11B13827   2.546   3.388   6.571 -0.2277 -2.3812 -2.3789
  129OSM      P13828   2.319   3.144   6.462  0.0123  0.2077  0.2144
  129OSM    O1313829   2.184   3.204   6.462  0.5866 -0.3673  0.0465
  129OSM    O1413830   2.341   3.049   6.351 -0.2151  0.2946  0.3344
  129OSM    O1113831   2.345   3.076   6.601 -0.4014 -0.3464  0.2968
  129OSM    O1213832   2.432   3.254   6.459  0.0048  0.1880 -0.1168
  129OSM    C1S13833   2.454   2.981   6.604 -0.2618 -0.3249  0.0336
  129OSM    H1S13834   2.550   3.025   6.568 -0.5987  0.5242  0.1384
  129OSM    H1T13835   2.434   2.883   6.556  1.7649 -0.1873 -1.2056
  129OSM     NF13836   2.609   2.881   6.770 -0.5460  0.2019  1.0469
  129OSM    HNF13837   2.610   2.781   6.768  0.2738  0.2119 -0.5621
  129OSM    C2S13838   2.477   2.944   6.749 -0.2041 -0.1652  0.2146
  129OSM    H2S13839   2.473   3.032   6.817 -2.1273 -1.3052  1.6808
  129OSM    C3S13840   2.347   2.865   6.788  0.3889  0.3470  0.5055
  129OSM    H3S13841   2.320   2.780   6.722 -1.3876  1.7344 -0.6642
  129OSM     O313842   2.233   2.944   6.791  0.5123  0.6292 -0.3858
  129OSM    HO313843   2.255   3.013   6.727  0.2344  1.7929  0.7334
  129OSM    C4S13844   2.366   2.809   6.932  0.7317  0.2531  0.2491
  129OSM    H4S13845   2.399   2.704   6.929 -1.2442 -0.4104 -2.4648
  129OSM    C5S13846   2.346   2.870   7.055 -0.0783  0.0337  0.6706
  129OSM    H5S13847   2.313   2.975   7.052 -1.1426 -0.2208  2.1835
  129OSM    C6S13848   2.363   2.789   7.183 -0.2163 -0.1516 -0.0551
  129OSM    H6S13849   2.423   2.848   7.256 -1.3689  2.2006 -0.9290
  129OSM    H6T13850   2.421   2.695   7.169 -1.1352 -0.8702  0.8163
  129OSM    C7S13851   2.228   2.760   7.253  0.3696  0.4057  0.3804
  129OSM    H7S13852   2.182   2.678   7.194  1.7631 -1.4726  1.7792
  129OSM    H7T13853   2.164   2.851   7.250 -1.0819 -0.5859  0.1080
  129OSM    C8S13854   2.255   2.715   7.398 -0.1936 -0.8448 -0.3420
  129OSM    H8S13855   2.317   2.785   7.457 -2.2762 -0.1086  1.1272
  129OSM    H8T13856   2.321   2.626   7.392  0.1520 -0.4753 -3.2823
  129OSM    C9S13857   2.127   2.681   7.476 -0.3600 -0.1934 -0.2028
  129OSM    H9S13858   2.086   2.590   7.428 -2.6139  0.3517  0.5828
  129OSM    H9T13859   2.049   2.759   7.462  1.4984  2.0266  0.9141
  129OSM   C10S13860   2.153   2.649   7.631  0.3111 -0.4863  0.6711
  129OSM   H10S13861   2.199   2.732   7.689 -0.6853 -0.8151  1.9806
  129OSM   H10T13862   2.223   2.562   7.632  0.9222 -0.1042 -1.6922
  129OSM   C11S13863   2.027   2.607   7.703  0.2420 -0.0674  0.2860
  129OSM   H11S13864   1.970   2.536   7.640 -2.4467  1.2493  1.1071
  129OSM   H11T13865   1.960   2.693   7.724  1.0253  0.4131  0.8872
  129OSM   C12S13866   2.045   2.547   7.845  0.3466  0.6846  0.1345
  129OSM   H12S13867   2.129   2.475   7.837 -1.2994 -1.4582  1.0803
  129OSM   H12T13868   1.955   2.497   7.887  1.0876  0.2120  1.2108
  129OSM   C13S13869   2.093   2.642   7.947  0.0207 -0.1531  0.5654
  129OSM   H13S13870   2.018   2.723   7.943  0.7341  0.6307  2.2443
  129OSM   H13T13871   2.191   2.686   7.918 -1.3753  1.7341 -1.5451
  129OSM   C14S13872   2.105   2.586   8.086  0.0506  0.3293 -0.0912
  129OSM   H14S13873   2.178   2.503   8.081 -0.1558  0.1934 -1.0894
  129OSM   H14T13874   2.008   2.548   8.126 -0.2411 -1.3414 -2.2255
  129OSM   C15S13875   2.141   2.695   8.183 -0.0886 -0.0875 -1.0099
  129OSM   H15S13876   2.077   2.785   8.171 -1.1273 -0.7903 -0.9066
  129OSM   H15T13877   2.246   2.718   8.154 -0.1071 -0.5334 -1.4448
  129OSM   C16S13878   2.150   2.649   8.334 -0.0298 -0.2768  0.1377
  129OSM   H16S13879   2.192   2.729   8.398  0.7666  0.0895 -0.8125
  129OSM   H16T13880   2.217   2.560   8.327  0.7865  0.1873  1.5703
  129OSM   C17S13881   2.002   2.627   8.384 -0.6533 -0.4397 -0.0674
  129OSM   H17S13882   1.953   2.545   8.327 -1.4868 -0.8576  1.2189
  129OSM   H17T13883   1.954   2.725   8.364  0.7364 -0.2219 -2.8788
  129OSM   C18S13884   1.994   2.604   8.530  0.1579  0.0618  0.3277
  129OSM   H18S13885   1.885   2.593   8.551 -0.0725  0.5856 -0.5655
  129OSM   H18T13886   2.054   2.674   8.592  0.8041 -0.7754  0.6771
  129OSM   H18U13887   2.031   2.505   8.566  0.3278  0.6650  1.8897
  129OSM    C1F13888   2.728   2.947   6.761  0.5206  0.1621  0.0573
  129OSM     OF13889   2.723   3.065   6.735 -0.0199 -0.2981 -0.5905
  129OSM    C2F13890   2.856   2.879   6.776  0.5943  0.7653  0.0661
  129OSM    H2F13891   2.917   2.868   6.684 -0.4233 -0.5616 -0.4813
  129OSM    H2G13892   2.841   2.773   6.805 -0.1410  0.6142 -0.8095
  129OSM    C3F13893   2.951   2.949   6.880  0.2268 -0.7530 -0.2127
  129OSM    H3F13894   2.974   3.049   6.839 -0.4860  0.7291  2.7123
  129OSM    H3G13895   3.048   2.895   6.882 -0.0962 -1.4623  3.0038
  129OSM    C4F13896   2.900   2.961   7.030  0.2185  0.3960 -0.5176
  129OSM    H4F13897   2.806   3.019   7.020 -0.3356 -0.8613 -4.3858
  129OSM    H4G13898   2.964   3.023   7.097  0.8342 -1.3792  0.5907
  129OSM    C5F13899   2.887   2.823   7.094  0.2308 -0.0569  0.0188
  129OSM    H5F13900   2.986   2.777   7.075  0.2092  0.6288 -1.9727
  129OSM    H5G13901   2.805   2.769   7.043 -0.6098  0.0448  1.2110
  129OSM    C6F13902   2.857   2.838   7.245  0.0030 -0.2549 -0.1319
  129OSM    H6F13903   2.767   2.896   7.275 -1.9067 -3.9005  1.8661
  129OSM    H6G13904   2.950   2.878   7.292  0.8040 -2.2114  0.0419
  129OSM    C7F13905   2.835   2.699   7.303 -0.2534  0.6130 -0.7411
  129OSM    H7F13906   2.921   2.636   7.272  0.6950  1.9370 -0.8705
  129OSM    H7G13907   2.733   2.665   7.274 -1.0246  2.6944 -0.6174
  129OSM    C8F13908   2.842   2.700   7.459  0.4536 -0.2817 -0.5902
  129OSM    H8F13909   2.916   2.769   7.505 -0.9893  2.8801 -2.6845
  129OSM    H8G13910   2.882   2.601   7.489  0.4937 -0.0961 -0.0187
  129OSM    C9F13911   2.699   2.723   7.511  0.4151  0.1090 -0.1501
  129OSM    H9F13912   2.656   2.816   7.471 -2.2565 -0.9834  0.0196
  129OSM   C10F13913   2.618   2.646   7.584  0.3823  0.4250  0.6245
  129OSM   H10F13914   2.514   2.674   7.607 -0.3663 -0.5491 -1.3870
  129OSM   C11F13915   2.646   2.513   7.641 -0.1800 -0.6063  0.2369
  129OSM   H11F13916   2.752   2.482   7.648  1.1211  3.0634 -1.1352
  129OSM   H11G13917   2.606   2.438   7.568  1.2801  0.9466 -2.3123
  129OSM   C12F13918   2.581   2.473   7.779 -0.3310 -0.2968  0.7892
  129OSM   H12F13919   2.559   2.365   7.787 -2.3976 -0.0852 -0.8877
  129OSM   H12G13920   2.476   2.510   7.785 -0.1522  0.3979 -0.0929
  129OSM   C13F13921   2.659   2.512   7.900  0.3248  0.9704 -0.0404
  129OSM   H13F13922   2.752   2.452   7.907 -0.5391 -0.2246  2.4434
  129OSM   H13G13923   2.601   2.470   7.985 -1.5147 -0.6371 -1.9922
  129OSM   C14F13924   2.702   2.658   7.914 -0.1823  1.0351  0.4433
  129OSM   H14F13925   2.752   2.687   7.819 -0.3637 -1.1397 -0.3888
  129OSM   H14G13926   2.773   2.683   7.996  2.4177 -1.6592 -0.7957
  129OSM   C15F13927   2.587   2.757   7.938  0.4362 -0.7131  0.2446
  129OSM   H15F13928   2.513   2.750   7.855 -1.1914 -0.4903  1.6264
  129OSM   H15G13929   2.620   2.863   7.946  0.0250 -0.6469  1.2374
  129OSM   C16F13930   2.502   2.734   8.067 -0.4604 -0.6566 -0.4155
  129OSM   H16F13931   2.486   2.624   8.064  2.4906 -1.1590 -1.1180
  129OSM   H16G13932   2.406   2.787   8.056  0.2378  0.7458  0.0173
  129OSM   C17F13933   2.588   2.774   8.189 -0.1557  0.6665 -0.3121
  129OSM   H17F13934   2.640   2.870   8.170 -1.4067  1.2951 -0.6973
  129OSM   H17G13935   2.665   2.694   8.190 -2.6971 -1.9376 -0.2435
  129OSM   C18F13936   2.519   2.761   8.326  0.1943  0.5754 -0.0543
  129OSM   H18F13937   2.483   2.657   8.344 -0.2867  0.4542 -1.5787
  129OSM   H18G13938   2.432   2.831   8.324 -1.0602 -0.8894  0.8083
  129OSM   H18H13939   2.588   2.808   8.398 -0.3589  1.5943 -0.1704
  130OSM      N13940   5.448   4.452   6.326  0.2276  0.2985 -0.4492
  130OSM    C1513941   5.501   4.344   6.235 -0.7998  0.0455 -0.5509
  130OSM   H15A13942   5.520   4.382   6.136  2.0441  1.8679  0.5776
  130OSM   H15B13943   5.439   4.256   6.232 -0.6715 -0.1378  1.0994
  130OSM   H15C13944   5.602   4.317   6.262  0.4844  1.0263 -3.8537
  130OSM    C1413945   5.299   4.466   6.311  0.0150 -0.4169  0.0196
  130OSM   H14A13946   5.242   4.377   6.333 -1.2834  0.5746  0.8529
  130OSM   H14B13947   5.272   4.510   6.215 -1.6714  0.0574  0.6653
  130OSM   H14C13948   5.260   4.536   6.384 -2.9814 -1.1463 -0.7177
  130OSM    C1313949   5.476   4.412   6.469 -0.4171 -0.0865 -0.2969
  130OSM   H13A13950   5.453   4.489   6.541 -2.8453 -1.0548  0.0613
  130OSM   H13B13951   5.580   4.389   6.488  0.3296  2.2400 -1.2171
  130OSM   H13C13952   5.426   4.318   6.487  0.5985 -0.5708  0.0623
  130OSM    C1213953   5.515   4.584   6.295 -0.3355 -0.1726 -0.1677
  130OSM   H12A13954   5.476   4.617   6.199  0.9753 -0.9626 -1.0009
  130OSM   H12B13955   5.620   4.571   6.276 -0.1534 -0.4021  0.9776
  130OSM    C1113956   5.495   4.695   6.400  0.4682 -0.0123  0.4763
  130OSM   H11A13957   5.549   4.788   6.370 -2.5495  1.2997 -1.3728
  130OSM   H11B13958   5.539   4.663   6.497 -1.1580 -3.1799  0.2905
  130OSM      P13959   5.272   4.840   6.330 -0.3563  0.1011 -0.4475
  130OSM    O1313960   5.347   4.877   6.205  0.0437 -0.1457 -0.0662
  130OSM    O1413961   5.131   4.807   6.325 -0.2485  0.2809  0.1888
  130OSM    O1113962   5.289   4.964   6.431 -0.1437  0.1831 -0.0884
  130OSM    O1213963   5.353   4.727   6.414 -0.4023  0.2246 -0.1414
  130OSM    C1S13964   5.244   4.960   6.564 -0.7274  0.0719 -0.3920
  130OSM    H1S13965   5.189   4.865   6.580 -0.9248  0.3194  0.4447
  130OSM    H1T13966   5.186   5.054   6.578  0.4326  0.8969 -0.9609
  130OSM     NF13967   5.295   4.994   6.793 -0.9878 -0.2296 -0.0142
  130OSM    HNF13968   5.324   5.073   6.846 -0.0271  1.4498 -2.8255
  130OSM    C2S13969   5.359   4.967   6.667 -0.3662  0.1571  0.4707
  130OSM    H2S13970   5.410   4.868   6.668 -1.6072 -0.5177 -0.3587
  130OSM    C3S13971   5.476   5.067   6.640 -0.2984 -0.3512  0.6697
  130OSM    H3S13972   5.433   5.169   6.635  0.1726 -0.1396  0.9270
  130OSM     O313973   5.528   5.043   6.510  0.2417 -0.1539 -0.2733
  130OSM    HO313974   5.459   4.982   6.483 -0.3590 -2.0335  4.4598
  130OSM    C4S13975   5.589   5.066   6.733 -0.5463  0.9227 -0.1108
  130OSM    H4S13976   5.595   5.151   6.803 -0.2517  2.1876 -1.6280
  130OSM    C5S13977   5.675   4.965   6.752  0.4407 -0.0123  0.1948
  130OSM    H5S13978   5.669   4.874   6.691 -0.6216 -0.6465  1.2013
  130OSM    C6S13979   5.782   4.961   6.853  0.4995  0.3950 -0.0334
  130OSM    H6S13980   5.873   4.998   6.800  0.0102 -2.4821 -3.3090
  130OSM    H6T13981   5.800   4.853   6.871 -0.6891  0.3691  1.1520
  130OSM    C7S13982   5.778   5.032   6.991 -0.6738  0.1336 -0.6371
  130OSM    H7S13983   5.675   5.016   7.032  0.8428 -1.6603  2.9160
  130OSM    H7T13984   5.781   5.143   6.991 -1.0497  0.2092  1.8057
  130OSM    C8S13985   5.878   4.977   7.097 -0.2454 -0.3320  0.5858
  130OSM    H8S13986   5.982   5.001   7.067 -0.2564 -2.3215 -1.2510
  130OSM    H8T13987   5.868   4.867   7.104  1.4214 -0.4582  1.7140
  130OSM    C9S13988   5.838   5.013   7.240 -0.1126 -0.7495 -0.5174
  130OSM    H9S13989   5.742   4.966   7.270  0.3801 -1.5596 -0.1693
  130OSM    H9T13990   5.826   5.123   7.235  0.0597 -0.4234  3.2004
  130OSM   C10S13991   5.945   4.994   7.354 -0.4831 -0.0111  1.0383
  130OSM   H10S13992   6.031   5.053   7.315 -1.3573 -0.3577 -1.6512
  130OSM   H10T13993   5.975   4.887   7.353 -0.2467 -0.0129  3.2397
  130OSM   C11S13994   5.903   5.040   7.496 -0.1961  0.0564 -0.5445
  130OSM   H11S13995   5.814   4.980   7.526 -1.8727  2.8103  0.3428
  130OSM   H11T13996   5.875   5.147   7.506 -1.5345 -0.4679  2.3342
  130OSM   C12S13997   6.023   5.012   7.596  0.4801  0.7445  0.3995
  130OSM   H12S13998   6.113   5.044   7.539  0.9094 -1.2573 -0.1266
  130OSM   H12T13999   6.033   4.905   7.623 -1.4642  1.0119  2.4881
  130OSM   C13S14000   6.026   5.092   7.725  0.1155 -0.0675 -0.3073
  130OSM   H13S14001   5.924   5.078   7.768 -0.3444  1.5635 -0.7651
  130OSM   H13T14002   6.015   5.202   7.710  3.6246  0.4665  0.2512
  130OSM   C14S14003   6.129   5.063   7.832 -0.2088  0.1695 -0.2236
  130OSM   H14S14004   6.227   5.101   7.797 -0.9362  1.1567 -1.2611
  130OSM   H14T14005   6.139   4.952   7.838 -0.4139  0.1689  0.0743
  130OSM   C15S14006   6.103   5.126   7.967 -0.6281  0.9115  0.1409
  130OSM   H15S14007   6.151   5.068   8.048 -0.3789  2.7974  1.4074
  130OSM   H15T14008   5.995   5.142   7.986 -0.6051  0.8798  0.3006
  130OSM   C16S14009   6.167   5.265   7.986 -0.4524  0.5466  0.1892
  130OSM   H16S14010   6.137   5.325   7.898  1.2076  0.1831 -0.6426
  130OSM   H16T14011   6.277   5.271   7.996 -0.5610  1.6642  1.0012
  130OSM   C17S14012   6.112   5.338   8.109 -0.1405  0.3590  0.5008
  130OSM   H17S14013   6.001   5.344   8.097 -0.0860  2.0459  0.5626
  130OSM   H17T14014   6.167   5.434   8.121  0.3933  0.0141  0.8285
  130OSM   C18S14015   6.134   5.245   8.234  0.1640  0.0418 -0.3503
  130OSM   H18S14016   6.117   5.297   8.331 -1.2640 -0.4562 -0.3174
  130OSM   H18T14017   6.237   5.203   8.237  1.7652  3.6210 -0.3423
  130OSM   H18U14018   6.063   5.159   8.234  0.4465 -0.1952 -0.6751
  130OSM    C1F14019   5.206   4.918   6.860  0.2927 -0.7374  0.0115
  130OSM     OF14020   5.148   4.821   6.807 -0.6368 -0.3676  0.1161
  130OSM    C2F14021   5.190   4.955   7.003  0.8728 -0.1865  0.0126
  130OSM    H2F14022   5.147   5.055   7.027 -1.0977 -0.6467 -1.2983
  130OSM    H2G14023   5.291   4.952   7.049  1.0740  1.8456 -0.2064
  130OSM    C3F14024   5.113   4.841   7.079 -0.4877 -0.6733  0.5861
  130OSM    H3F14025   5.167   4.746   7.062 -0.0576 -0.8225  2.6059
  130OSM    H3G14026   5.018   4.835   7.021 -0.1000  2.2842 -0.5677
  130OSM    C4F14027   5.104   4.865   7.234 -0.3735  0.2903 -0.1994
  130OSM    H4F14028   5.205   4.883   7.277 -0.7775  1.8697  0.1583
  130OSM    H4G14029   5.067   4.770   7.278  2.9206 -0.5380  1.1171
  130OSM    C5F14030   5.007   4.968   7.266 -0.5159 -0.5220 -0.7210
  130OSM    H5F14031   4.907   4.928   7.240 -1.0642 -0.5991  1.3282
  130OSM    H5G14032   5.042   5.062   7.218  2.0584 -0.9025  0.2392
  130OSM    C6F14033   5.002   5.012   7.419 -0.4430  0.9606  0.1926
  130OSM    H6F14034   4.905   5.065   7.433 -2.0657 -1.5874 -0.6739
  130OSM    H6G14035   5.084   5.082   7.446 -1.3482  2.0360  0.2100
  130OSM    C7F14036   5.023   4.893   7.515  0.7526  0.2080  0.5140
  130OSM    H7F14037   5.114   4.834   7.489 -1.3941 -2.0360 -2.6707
  130OSM    H7G14038   4.936   4.826   7.494  1.3050  0.0342 -1.3767
  130OSM    C8F14039   5.042   4.925   7.662  0.2001  0.0509  0.1595
  130OSM    H8F14040   5.104   5.017   7.661  0.1622  0.0731 -0.9307
  130OSM    H8G14041   5.104   4.847   7.710  1.4602  0.6522 -0.4551
  130OSM    C9F14042   4.926   4.965   7.743 -0.4429  0.5302  0.7115
  130OSM    H9F14043   4.830   4.962   7.688 -0.4243 -2.1179  0.7113
  130OSM   C10F14044   4.922   4.999   7.870 -0.5250 -0.2356 -0.2327
  130OSM   H10F14045   4.829   5.027   7.921 -1.7420 -2.6259 -0.9917
  130OSM   C11F14046   5.045   5.001   7.945  0.4332  0.2463  0.0941
  130OSM   H11F14047   5.102   5.092   7.918 -0.0589  0.9474  1.3459
  130OSM   H11G14048   5.109   4.911   7.930  0.4706  0.1792  0.6159
  130OSM   C12F14049   5.009   5.005   8.096 -0.1316  0.1238  0.5696
  130OSM   H12F14050   5.105   5.008   8.151  1.0623  0.8444 -1.4606
  130OSM   H12G14051   4.965   4.904   8.111 -2.7631  1.0162 -0.5036
  130OSM   C13F14052   4.915   5.113   8.145  0.2264 -0.4603  0.0988
  130OSM   H13F14053   4.817   5.091   8.098  0.4462 -0.8965 -0.1517
  130OSM   H13G14054   4.946   5.215   8.112  0.3489 -0.2941  0.7184
  130OSM   C14F14055   4.883   5.110   8.300  0.4551 -0.2776  0.2245
  130OSM   H14F14056   4.874   5.006   8.338  0.0245  0.5545  2.6102
  130OSM   H14G14057   4.790   5.167   8.321  0.4309  0.1121 -0.8768
  130OSM   C15F14058   4.999   5.177   8.381  0.3199 -0.1824 -0.4082
  130OSM   H15F14059   5.027   5.267   8.322 -1.6034  0.0259 -1.0512
  130OSM   H15G14060   5.081   5.102   8.380  0.5999  0.1224 -1.0666
  130OSM   C16F14061   4.961   5.211   8.532 -0.6264  0.3596  0.8621
  130OSM   H16F14062   4.868   5.271   8.519 -0.2221  0.8071 -0.1464
  130OSM   H16G14063   5.039   5.273   8.582 -0.9758  1.6614 -0.1484
  130OSM   C17F14064   4.925   5.092   8.621  0.3869 -0.5345  0.2306
  130OSM   H17F14065   5.016   5.044   8.663 -0.0680 -1.1477  0.5251
  130OSM   H17G14066   4.890   5.013   8.550 -0.9901  0.5905 -0.3902
  130OSM   C18F14067   4.813   5.115   8.727 -0.3640 -0.0326 -0.4893
  130OSM   H18F14068   4.792   5.017   8.774 -2.3890 -0.2404 -1.7203
  130OSM   H18G14069   4.719   5.153   8.683  0.4397  1.7377 -0.7838
  130OSM   H18H14070   4.848   5.184   8.807  1.5091  1.9589 -2.8537
  131OSM      N14071   4.594   1.382   6.015  0.2579  0.3190  0.2585
  131OSM    C1514072   4.604   1.439   6.151 -0.1092  0.1091 -0.2601
  131OSM   H15A14073   4.524   1.405   6.215  0.3809 -0.0254  0.2877
  131OSM   H15B14074   4.601   1.547   6.148 -0.7852  0.1344  0.7280
  131OSM   H15C14075   4.692   1.402   6.202  0.4004  1.3822 -0.1811
  131OSM    C1414076   4.712   1.404   5.936 -0.5417  0.1065  0.1625
  131OSM   H14A14077   4.757   1.501   5.953 -1.2829  0.8700 -1.8260
  131OSM   H14B14078   4.693   1.413   5.830 -2.0332  0.4126  0.4324
  131OSM   H14C14079   4.787   1.330   5.958 -0.7944 -0.0928  0.3552
  131OSM    C1314080   4.597   1.231   6.025 -0.3681  0.0839 -0.1201
  131OSM   H13A14081   4.499   1.195   6.054 -1.5504  2.4840 -0.8168
  131OSM   H13B14082   4.676   1.205   6.093 -0.2319  0.8283  0.0072
  131OSM   H13C14083   4.622   1.177   5.934  0.1069 -1.7994  1.0754
  131OSM    C1214084   4.463   1.429   5.943 -0.4666 -0.2720  0.0985
  131OSM   H12A14085   4.381   1.381   5.994 -2.2221  1.3484 -1.0657
  131OSM   H12B14086   4.464   1.382   5.846  1.0941  1.2058 -0.6540
  131OSM    C1114087   4.431   1.584   5.943  0.0108  0.4463 -0.4771
  131OSM   H11A14088   4.371   1.627   5.861  0.8617  2.1421 -0.2469
  131OSM   H11B14089   4.531   1.632   5.942  0.6544 -0.8478 -2.0329
  131OSM      P14090   4.234   1.582   6.106 -0.6200 -0.0329 -0.0399
  131OSM    O1314091   4.141   1.697   6.115  0.0079 -0.8795 -0.4082
  131OSM    O1414092   4.198   1.465   6.022 -0.2349 -0.4268  0.6091
  131OSM    O1114093   4.261   1.527   6.256  0.3319 -0.4868  0.4443
  131OSM    O1214094   4.377   1.627   6.069  0.0004  0.1649 -0.1341
  131OSM    C1S14095   4.226   1.613   6.367  0.1503  0.2535 -0.3530
  131OSM    H1S14096   4.119   1.640   6.355 -0.2973 -0.0045  2.4194
  131OSM    H1T14097   4.286   1.707   6.371 -0.5974  0.7908 -1.3435
  131OSM     NF14098   4.179   1.632   6.609 -0.4626 -0.2754  0.0916
  131OSM    HNF14099   4.239   1.701   6.649  0.2272 -0.2586 -0.9169
  131OSM    C2S14100   4.243   1.545   6.509 -0.0466  0.1836  0.0174
  131OSM    H2S14101   4.185   1.451   6.506 -1.0748  0.8203 -0.8442
  131OSM    C3S14102   4.394   1.512   6.537  0.0345 -0.2897 -0.8041
  131OSM    H3S14103   4.448   1.609   6.532 -4.0892  2.3209  0.1736
  131OSM     O314104   4.435   1.412   6.447  0.0334 -0.4141  0.4053
  131OSM    HO314105   4.354   1.394   6.399 -1.3662  0.1856  2.3801
  131OSM    C4S14106   4.406   1.440   6.665  0.3232  0.6087 -0.3666
  131OSM    H4S14107   4.359   1.341   6.653  0.6208  0.7819 -4.5357
  131OSM    C5S14108   4.445   1.488   6.783 -0.0069  0.0650 -0.4950
  131OSM    H5S14109   4.467   1.595   6.798 -1.8432  0.2847  0.9368
  131OSM    C6S14110   4.443   1.418   6.916 -1.1106 -0.1688  0.0295
  131OSM    H6S14111   4.395   1.318   6.918 -1.5014 -0.0662  3.9201
  131OSM    H6T14112   4.367   1.469   6.979 -1.0247 -1.6918  1.4503
  131OSM    C7S14113   4.572   1.412   6.997  0.5982 -0.0644  0.2320
  131OSM    H7S14114   4.621   1.512   6.994  0.9151 -0.2469 -1.4133
  131OSM    H7T14115   4.645   1.344   6.950  0.1772  0.3574 -1.0918
  131OSM    C8S14116   4.545   1.357   7.139  0.7629 -0.3830  0.2734
  131OSM    H8S14117   4.475   1.272   7.129 -1.0331  1.2679 -2.3611
  131OSM    H8T14118   4.491   1.436   7.195  1.1650  1.4765 -1.8343
  131OSM    C9S14119   4.682   1.332   7.208  0.1189  0.1538 -0.1251
  131OSM    H9S14120   4.741   1.425   7.219 -1.7390  1.1848  1.9379
  131OSM    H9T14121   4.751   1.265   7.152  0.6243  0.4758  0.1004
  131OSM   C10S14122   4.672   1.270   7.350 -0.8435 -0.1919 -0.9729
  131OSM   H10S14123   4.622   1.170   7.351  1.3162 -1.3543  0.4892
  131OSM   H10T14124   4.602   1.340   7.399 -1.5452 -2.9457  2.4023
  131OSM   C11S14125   4.811   1.262   7.421 -0.8455  0.8297 -0.2797
  131OSM   H11S14126   4.835   1.368   7.440 -2.5929  1.0109  1.1230
  131OSM   H11T14127   4.883   1.210   7.353 -1.7442  1.5251 -1.8262
  131OSM   C12S14128   4.808   1.197   7.557 -0.0545  0.4734 -0.5725
  131OSM   H12S14129   4.898   1.232   7.612  0.6507  1.1556 -2.1168
  131OSM   H12T14130   4.810   1.086   7.554  0.9407  0.4478  0.2401
  131OSM   C13S14131   4.688   1.248   7.650  0.0630 -0.3120  0.3502
  131OSM   H13S14132   4.612   1.168   7.634  1.8957 -2.2605  1.0232
  131OSM   H13T14133   4.670   1.353   7.619  2.0261  0.2069  0.8870
  131OSM   C14S14134   4.724   1.257   7.797  0.0542  0.3428 -0.2642
  131OSM   H14S14135   4.808   1.328   7.815  0.0342 -0.0588  1.6396
  131OSM   H14T14136   4.762   1.159   7.836  3.2685  0.9749 -1.4625
  131OSM   C15S14137   4.614   1.314   7.888  0.7365  0.8659  0.6177
  131OSM   H15S14138   4.533   1.238   7.885  0.1809  1.3294  2.6018
  131OSM   H15T14139   4.591   1.414   7.845 -0.4053  0.2151 -0.3319
  131OSM   C16S14140   4.663   1.320   8.031  0.3008 -0.4120  0.5065
  131OSM   H16S14141   4.739   1.400   8.029  1.0844 -1.1486  0.0365
  131OSM   H16T14142   4.716   1.226   8.058  0.7436 -0.1407  0.5745
  131OSM   C17S14143   4.537   1.345   8.115  0.1007 -0.0185  0.2552
  131OSM   H17S14144   4.454   1.272   8.099 -1.0644  1.8054 -2.8166
  131OSM   H17T14145   4.487   1.438   8.081 -1.4211 -0.9702 -0.2279
  131OSM   C18S14146   4.562   1.355   8.268 -0.0120 -0.0687  0.0247
  131OSM   H18S14147   4.464   1.377   8.317  0.0175  0.9711 -0.3682
  131OSM   H18T14148   4.616   1.449   8.293 -0.7624  1.1249 -2.5158
  131OSM   H18U14149   4.603   1.261   8.310 -2.6838 -0.2777  2.5185
  131OSM    C1F14150   4.048   1.648   6.634 -0.6286 -0.3672 -0.2110
  131OSM     OF14151   3.971   1.583   6.567  0.2280 -0.2461 -0.1062
  131OSM    C2F14152   4.006   1.742   6.738 -0.6071  0.2347  0.4364
  131OSM    H2F14153   3.959   1.830   6.691  2.0382  1.0639 -0.8828
  131OSM    H2G14154   4.097   1.774   6.793 -1.6934  3.4821  0.5511
  131OSM    C3F14155   3.903   1.668   6.834 -0.5224 -0.0915  0.3437
  131OSM    H3F14156   3.823   1.625   6.770  0.4348 -2.0512  0.3971
  131OSM    H3G14157   3.843   1.738   6.897 -1.9054 -1.5811  0.7278
  131OSM    C4F14158   3.958   1.556   6.919  0.2782  0.4123 -0.0080
  131OSM    H4F14159   3.977   1.472   6.848  0.1057  0.1685  0.2296
  131OSM    H4G14160   3.885   1.521   6.995 -1.2312  0.7464 -1.2475
  131OSM    C5F14161   4.090   1.576   6.993  0.4389 -0.0402  0.3344
  131OSM    H5F14162   4.178   1.582   6.925  0.1783  2.8404  0.1353
  131OSM    H5G14163   4.108   1.490   7.061 -3.1739  0.8303  2.6680
  131OSM    C6F14164   4.099   1.710   7.076  0.3591 -0.0579  0.3133
  131OSM    H6F14165   3.999   1.733   7.117  0.6920 -1.1287  1.8538
  131OSM    H6G14166   4.135   1.792   7.011  1.8408  0.1973  1.4029
  131OSM    C7F14167   4.201   1.689   7.192  0.4711 -0.7572 -0.3345
  131OSM    H7F14168   4.253   1.787   7.199 -1.0806  0.0705 -0.0613
  131OSM    H7G14169   4.274   1.613   7.157  0.6446 -0.5302 -0.4642
  131OSM    C8F14170   4.137   1.652   7.332  0.1622  0.2615  0.0575
  131OSM    H8F14171   4.052   1.719   7.356 -0.7155 -0.3901 -1.0985
  131OSM    H8G14172   4.214   1.680   7.407  0.1684  2.5603 -0.7250
  131OSM    C9F14173   4.102   1.505   7.348  0.6724 -0.0164  0.0487
  131OSM    H9F14174   4.005   1.476   7.305 -0.1713  0.9543  1.2290
  131OSM   C10F14175   4.180   1.412   7.403  0.0357 -0.4449  0.5226
  131OSM   H10F14176   4.137   1.311   7.409 -0.6675 -0.1016  1.6102
  131OSM   C11F14177   4.312   1.430   7.475 -1.0054  0.7142 -0.2772
  131OSM   H11F14178   4.341   1.537   7.487  1.3895  0.3044 -1.6568
  131OSM   H11G14179   4.399   1.385   7.422 -0.7726  1.3038 -0.3979
  131OSM   C12F14180   4.286   1.372   7.614 -0.2712 -0.2109 -0.1943
  131OSM   H12F14181   4.389   1.373   7.655  0.1109 -1.6373 -1.0425
  131OSM   H12G14182   4.249   1.267   7.610  1.2325 -0.7261 -1.4709
  131OSM   C13F14183   4.215   1.472   7.709  0.5221 -0.2739  0.5363
  131OSM   H13F14184   4.108   1.483   7.682  0.3088  0.7737  1.7540
  131OSM   H13G14185   4.279   1.563   7.710  2.8170 -1.7771 -0.5285
  131OSM   C14F14186   4.226   1.418   7.848  0.0179  0.7617  0.1918
  131OSM   H14F14187   4.335   1.401   7.863  0.0865 -1.1197 -1.9176
  131OSM   H14G14188   4.157   1.330   7.845 -0.1160  0.8676  0.1915
  131OSM   C15F14189   4.188   1.521   7.960  0.3364  0.1625 -0.6199
  131OSM   H15F14190   4.101   1.582   7.926  0.5261  1.3690  0.9336
  131OSM   H15G14191   4.271   1.591   7.981  0.5268 -0.9071  2.9128
  131OSM   C16F14192   4.140   1.465   8.094  0.0500 -0.3163 -0.0047
  131OSM   H16F14193   4.221   1.404   8.140 -0.1263 -1.0824 -0.6994
  131OSM   H16G14194   4.057   1.399   8.062  0.5885 -0.6709 -0.6948
  131OSM   C17F14195   4.092   1.575   8.198  0.0793 -0.2990  0.4374
  131OSM   H17F14196   4.028   1.521   8.272  1.3576 -2.6220 -0.0653
  131OSM   H17G14197   4.031   1.647   8.141 -0.0320 -2.1541 -1.9613
  131OSM   C18F14198   4.209   1.656   8.258  0.5766 -0.9425 -0.5743
  131OSM   H18F14199   4.161   1.721   8.334  0.6563 -0.9064 -0.5552
  131OSM   H18G14200   4.249   1.723   8.179  1.8446 -0.9429  0.0362
  131OSM   H18H14201   4.289   1.591   8.302 -0.2352 -1.5972 -0.0246
  132OSM      N14202   6.251   3.099   6.377 -0.0457 -1.2411  0.1065
  132OSM    C1514203   6.146   2.991   6.360  0.1335  0.2009 -1.2075
  132OSM   H15A14204   6.191   2.893   6.360 -0.5613 -0.1334 -0.1363
  132OSM   H15B14205   6.081   3.007   6.275 -0.9689 -2.8095 -1.0299
  132OSM   H15C14206   6.075   2.990   6.441  0.2065 -0.4895 -1.1436
  132OSM    C1414207   6.337   3.058   6.494  0.1956  0.1141  0.6563
  132OSM   H14A14208   6.392   2.967   6.475  3.9491  2.2261  0.3610
  132OSM   H14B14209   6.280   3.028   6.580  1.4034 -1.6245  0.8899
  132OSM   H14C14210   6.411   3.131   6.522 -0.2875  0.7769  0.2653
  132OSM    C1314211   6.345   3.112   6.261  0.6310  0.8902  1.1353
  132OSM   H13A14212   6.379   3.015   6.228 -2.0661 -0.5219  2.1437
  132OSM   H13B14213   6.429   3.178   6.272  1.7577 -0.5001  1.1393
  132OSM   H13C14214   6.291   3.141   6.173 -0.3341 -1.2389  0.9665
  132OSM    C1214215   6.173   3.231   6.409 -0.5555 -0.3082 -0.6674
  132OSM   H12A14216   6.251   3.295   6.448  0.8250 -0.8086 -2.4795
  132OSM   H12B14217   6.111   3.219   6.496 -0.3477  2.0619 -0.1211
  132OSM    C1114218   6.091   3.308   6.299 -0.4174  0.0146  0.0002
  132OSM   H11A14219   6.151   3.335   6.210  0.7715  0.5254  0.9454
  132OSM   H11B14220   6.040   3.400   6.333 -2.2889 -0.7254 -0.6589
  132OSM      P14221   5.832   3.235   6.283  0.6144 -0.1310 -0.0760
  132OSM    O1314222   5.769   3.318   6.175 -0.3878 -0.2214 -0.0088
  132OSM    O1414223   5.780   3.098   6.306 -0.6829  0.5343 -0.2508
  132OSM    O1114224   5.829   3.314   6.417 -0.3259 -0.4784  0.0517
  132OSM    O1214225   5.987   3.221   6.256  0.1784  0.4847 -0.0527
  132OSM    C1S14226   5.791   3.265   6.545 -1.0558 -0.5308  0.0292
  132OSM    H1S14227   5.865   3.191   6.583 -1.2041  0.6024  2.7260
  132OSM    H1T14228   5.688   3.223   6.537 -0.9236 -0.7708 -0.4785
  132OSM     NF14229   5.779   3.321   6.787  0.4426  0.8162  0.4099
  132OSM    HNF14230   5.685   3.330   6.819  0.9326  0.2522  2.0855
  132OSM    C2S14231   5.801   3.377   6.653 -0.5734 -0.2259  0.8098
  132OSM    H2S14232   5.904   3.417   6.646  0.1762 -2.1652  0.1024
  132OSM    C3S14233   5.699   3.497   6.623  0.1138  1.1968 -0.6434
  132OSM    H3S14234   5.601   3.447   6.635  1.4832 -1.2569  1.1275
  132OSM     O314235   5.704   3.556   6.498  0.4496 -0.4823 -0.2246
  132OSM    HO314236   5.755   3.496   6.444  0.9032 -0.0333 -0.3043
  132OSM    C4S14237   5.713   3.592   6.734  0.1625 -1.0007 -0.4941
  132OSM    H4S14238   5.639   3.576   6.814  0.7695  1.7358  0.7365
  132OSM    C5S14239   5.810   3.686   6.747 -0.1434 -0.3251 -0.1718
  132OSM    H5S14240   5.893   3.680   6.676  0.3214 -2.5492  0.5045
  132OSM    C6S14241   5.826   3.780   6.863  0.1361  0.2555 -0.4932
  132OSM    H6S14242   5.869   3.874   6.822  0.8656  0.6068  1.0204
  132OSM    H6T14243   5.906   3.745   6.931  0.8635 -0.0022 -1.4534
  132OSM    C7S14244   5.699   3.816   6.940 -0.2370  0.1649 -0.1292
  132OSM    H7S14245   5.663   3.723   6.990  0.3149  0.5757  1.0752
  132OSM    H7T14246   5.619   3.863   6.879  0.5585  1.2654 -0.3579
  132OSM    C8S14247   5.726   3.907   7.059  0.4014  0.4830  0.2870
  132OSM    H8S14248   5.625   3.946   7.087  0.4142 -0.3412  1.5813
  132OSM    H8T14249   5.779   3.999   7.026  1.4855 -0.8134 -1.7558
  132OSM    C9S14250   5.801   3.845   7.176 -0.0649 -1.0775  0.5123
  132OSM    H9S14251   5.908   3.822   7.156 -0.2162  0.1917 -2.1912
  132OSM    H9T14252   5.766   3.742   7.199  0.3435 -1.4883 -0.6288
  132OSM   C10S14253   5.785   3.938   7.298  0.5449  0.3974  1.1894
  132OSM   H10S14254   5.677   3.952   7.317  0.3041  0.6875 -0.2872
  132OSM   H10T14255   5.834   4.032   7.263  1.3403 -0.7723 -1.0195
  132OSM   C11S14256   5.858   3.897   7.426 -0.6115  0.0194  0.5920
  132OSM   H11S14257   5.966   3.921   7.423 -0.9639  1.8325  1.0770
  132OSM   H11T14258   5.856   3.786   7.426  0.6468 -0.0200 -0.5099
  132OSM   C12S14259   5.804   3.961   7.557 -0.5180  0.0462 -0.2206
  132OSM   H12S14260   5.694   3.947   7.562 -0.7565  1.6192 -0.4537
  132OSM   H12T14261   5.822   4.071   7.552  2.4755 -0.2025  2.2206
  132OSM   C13S14262   5.870   3.909   7.687 -0.5729 -0.2831 -0.1818
  132OSM   H13S14263   5.977   3.887   7.670 -0.3420  2.1804 -2.8986
  132OSM   H13T14264   5.816   3.817   7.715 -1.7398  0.5766  0.4908
  132OSM   C14S14265   5.842   4.008   7.804 -0.1327 -0.4516  0.1490
  132OSM   H14S14266   5.744   4.060   7.792  0.5678  1.8402  2.9588
  132OSM   H14T14267   5.918   4.088   7.788  1.6164 -1.2528  3.3993
  132OSM   C15S14268   5.836   3.950   7.939 -0.0833 -0.6021  0.7302
  132OSM   H15S14269   5.943   3.934   7.964  0.0121 -0.6408  0.3016
  132OSM   H15T14270   5.779   3.854   7.934 -3.6864  1.3343  1.2073
  132OSM   C16S14271   5.774   4.045   8.039  0.2586 -0.4637 -0.2136
  132OSM   H16S14272   5.664   4.039   8.027  0.2184 -0.7788  0.2878
  132OSM   H16T14273   5.819   4.146   8.023 -1.1001  1.1149  4.4315
  132OSM   C17S14274   5.791   4.016   8.191 -0.5943 -0.5528  0.5021
  132OSM   H17S14275   5.785   4.107   8.255 -1.1373  0.3265 -0.7563
  132OSM   H17T14276   5.894   3.974   8.194  0.4403  1.8507  1.0029
  132OSM   C18S14277   5.693   3.913   8.243 -0.0972  0.1221 -0.2365
  132OSM   H18S14278   5.688   3.894   8.352 -2.5923 -0.5000 -0.4028
  132OSM   H18T14279   5.719   3.814   8.200  1.0328  0.4687 -0.3959
  132OSM   H18U14280   5.588   3.928   8.210 -0.5825  1.4051  1.7270
  132OSM    C1F14281   5.861   3.229   6.843  0.2038  0.4022 -0.1567
  132OSM     OF14282   5.968   3.199   6.791 -0.1144  0.5832  0.0758
  132OSM    C2F14283   5.808   3.158   6.967 -0.0917  0.0371 -0.6557
  132OSM    H2F14284   5.733   3.080   6.942  0.4085 -0.0644 -1.9156
  132OSM    H2G14285   5.752   3.233   7.028 -0.8720 -0.1528 -1.1246
  132OSM    C3F14286   5.916   3.086   7.050 -0.4605  0.0178  0.2540
  132OSM    H3F14287   5.993   3.162   7.074 -1.3909  1.4213 -0.9718
  132OSM    H3G14288   5.954   2.998   6.994 -0.3431  0.8900 -1.0753
  132OSM    C4F14289   5.853   3.036   7.180 -0.4571 -0.4332  0.0536
  132OSM    H4F14290   5.917   2.959   7.228 -2.5657 -1.8925  0.7012
  132OSM    H4G14291   5.765   2.968   7.170 -0.7255 -0.0141 -0.5092
  132OSM    C5F14292   5.842   3.151   7.279  0.4971 -0.0606 -0.3110
  132OSM    H5F14293   5.772   3.225   7.235  0.4023 -0.1145 -0.2513
  132OSM    H5G14294   5.939   3.200   7.301  0.7959 -1.0316  0.6471
  132OSM    C6F14295   5.794   3.115   7.424  0.4972  0.0743  0.5106
  132OSM    H6F14296   5.691   3.073   7.427 -0.1966  1.7191  1.1728
  132OSM    H6G14297   5.790   3.215   7.473  0.6161 -0.1399  0.9703
  132OSM    C7F14298   5.892   3.025   7.498 -0.8356 -0.3255  0.1778
  132OSM    H7F14299   5.989   3.076   7.485 -0.7444 -0.5387  0.0182
  132OSM    H7G14300   5.913   2.927   7.451  3.2780  1.0392 -1.2530
  132OSM    C8F14301   5.853   3.010   7.644  0.2365 -0.2343 -0.4479
  132OSM    H8F14302   5.752   2.967   7.663  0.1385 -0.4378 -1.3980
  132OSM    H8G14303   5.829   3.113   7.679  2.6514  0.3754 -0.4044
  132OSM    C9F14304   5.964   2.964   7.734 -0.2528 -0.0796 -0.7166
  132OSM    H9F14305   6.063   2.968   7.687  0.9325 -1.9715  1.3765
  132OSM   C10F14306   5.957   2.929   7.862 -0.7957 -0.0361 -0.8736
  132OSM   H10F14307   6.041   2.887   7.917 -1.9628 -0.9655  0.2665
  132OSM   C11F14308   5.838   2.932   7.954 -0.0376 -0.9763 -0.1284
  132OSM   H11F14309   5.822   2.830   7.994 -2.6762  0.5077  3.1454
  132OSM   H11G14310   5.751   2.949   7.886 -0.2879 -1.2651  0.1154
  132OSM   C12F14311   5.828   3.031   8.068  0.6063 -0.4676  0.7472
  132OSM   H12F14312   5.733   3.010   8.120 -0.8461 -1.2489 -2.0273
  132OSM   H12G14313   5.832   3.136   8.033 -0.4567 -0.6193  0.1369
  132OSM   C13F14314   5.933   2.998   8.171 -0.0528 -0.1518  0.3948
  132OSM   H13F14315   5.924   3.059   8.264  0.0783 -0.4148  0.5827
  132OSM   H13G14316   6.032   3.014   8.123  1.0833 -2.8710  1.6304
  132OSM   C14F14317   5.926   2.851   8.225  0.1335  0.0804  0.0624
  132OSM   H14F14318   5.976   2.794   8.144 -1.1752  3.2286 -3.2346
  132OSM   H14G14319   5.819   2.820   8.226  0.0216  0.4168 -0.6942
  132OSM   C15F14320   6.000   2.830   8.362  0.2016 -1.0601 -0.6936
  132OSM   H15F14321   6.044   2.924   8.401  0.7166 -1.7017  0.3252
  132OSM   H15G14322   6.087   2.771   8.326 -0.3870 -1.3994 -1.5872
  132OSM   C16F14323   5.921   2.740   8.461  0.2949 -0.0157 -0.3135
  132OSM   H16F14324   5.990   2.659   8.494  2.0474  0.7588 -1.8526
  132OSM   H16G14325   5.840   2.685   8.408 -1.4267  0.9888  1.1883
  132OSM   C17F14326   5.851   2.825   8.570 -0.0295 -0.1886  0.1746
  132OSM   H17F14327   5.787   2.891   8.508  1.8985  1.9738  0.3861
  132OSM   H17G14328   5.923   2.885   8.630 -0.6197 -1.0960  1.8746
  132OSM   C18F14329   5.768   2.738   8.671 -0.1423  0.0872  0.1292
  132OSM   H18F14330   5.698   2.665   8.626 -0.1322 -0.4150  0.9001
  132OSM   H18G14331   5.720   2.804   8.747  1.5379  0.2732  1.0777
  132OSM   H18H14332   5.834   2.676   8.736  2.2495  1.3669 -0.9646
  133OSM      N14333   0.086   3.551   6.272 -0.2973  0.4514  0.8707
  133OSM    C1514334   0.160   3.682   6.308  0.1057  0.1171  0.3059
  133OSM   H15A14335   0.253   3.659   6.357 -1.0317  0.1434  2.6276
  133OSM   H15B14336   0.097   3.751   6.362 -3.2851 -0.5436 -2.3984
  133OSM   H15C14337   0.182   3.739   6.219  1.6291  0.9489  1.1942
  133OSM    C1414338   0.166   3.456   6.187 -0.3680  0.6578 -0.1970
  133OSM   H14A14339   0.168   3.487   6.083 -0.1227  0.7484 -0.1661
  133OSM   H14B14340   0.117   3.361   6.198 -1.8618  1.3514 -0.5548
  133OSM   H14C14341   0.267   3.449   6.226 -1.1691 -0.0080  1.8710
  133OSM    C1314342   0.068   3.488   6.406  0.4095  0.6350  0.1924
  133OSM   H13A14343   0.007   3.553   6.467  0.1297  1.1108 -0.5739
  133OSM   H13B14344   0.161   3.485   6.460 -0.4364 -3.4582  1.7853
  133OSM   H13C14345   0.022   3.390   6.406  1.8536 -0.0733  0.5957
  133OSM    C1214346  -0.036   3.570   6.192  0.3543 -0.3136  0.7704
  133OSM   H12A14347  -0.074   3.471   6.172  1.4169 -0.5114 -0.3836
  133OSM   H12B14348  -0.012   3.610   6.095 -0.8311 -1.6343 -0.1048
  133OSM    C1114349  -0.160   3.646   6.244  0.6444  0.4036 -0.0077
  133OSM   H11A14350  -0.231   3.662   6.160  0.5767  0.6121  0.0906
  133OSM   H11B14351  -0.121   3.747   6.269 -1.3761  1.1796  0.1805
  133OSM      P14352  -0.296   3.444   6.343  0.3560  0.0510 -0.0207
  133OSM    O1314353  -0.385   3.455   6.227  0.1504  0.6607  0.2342
  133OSM    O1414354  -0.203   3.333   6.322 -0.7419 -0.8841 -0.5722
  133OSM    O1114355  -0.378   3.426   6.474 -0.5530 -0.3522 -0.0747
  133OSM    O1214356  -0.216   3.578   6.362  0.6608  0.6829 -0.3393
  133OSM    C1S14357  -0.308   3.421   6.598 -0.0144  0.2555 -0.1174
  133OSM    H1S14358  -0.206   3.463   6.594  0.1611 -0.1920 -0.4854
  133OSM    H1T14359  -0.301   3.316   6.635 -0.8749 -0.8665 -2.8886
  133OSM     NF14360  -0.331   3.455   6.842 -0.2076  0.0914 -0.0969
  133OSM    HNF14361  -0.375   3.381   6.892  1.9216 -2.1492 -1.3372
  133OSM    C2S14362  -0.390   3.494   6.716 -0.4379  0.1404  0.3158
  133OSM    H2S14363  -0.403   3.603   6.702  1.1600  0.0122 -3.2223
  133OSM    C3S14364  -0.541   3.447   6.712 -0.0433 -0.1870 -0.1102
  133OSM    H3S14365  -0.543   3.337   6.704  1.3681 -0.1353 -1.7735
  133OSM     O314366  -0.605   3.491   6.592  0.0990 -0.3081 -0.7722
  133OSM    HO314367  -0.535   3.488   6.526 -0.4187 -0.0267 -1.3394
  133OSM    C4S14368  -0.617   3.505   6.836 -0.5452  0.0191  0.0406
  133OSM    H4S14369  -0.630   3.614   6.840 -0.1603  0.0674 -0.0478
  133OSM    C5S14370  -0.656   3.437   6.950  0.2360  0.1835  0.9258
  133OSM    H5S14371  -0.625   3.332   6.955  0.1797  0.1642  0.8712
  133OSM    C6S14372  -0.705   3.502   7.069 -0.2133 -1.2624 -0.8773
  133OSM    H6S14373  -0.815   3.498   7.083 -0.6415  2.2018 -2.1846
  133OSM    H6T14374  -0.692   3.612   7.073 -0.0193 -1.2972  1.7781
  133OSM    C7S14375  -0.631   3.456   7.198  0.3780 -0.4932  0.2936
  133OSM    H7S14376  -0.524   3.481   7.185 -0.1169  1.3787 -0.5133
  133OSM    H7T14377  -0.648   3.348   7.219 -3.4213  0.2742  2.0040
  133OSM    C8S14378  -0.695   3.519   7.323 -0.0501  0.8334 -0.3802
  133OSM    H8S14379  -0.802   3.495   7.306 -0.4681  2.0632  0.4590
  133OSM    H8T14380  -0.676   3.628   7.320 -0.2535  0.9536  1.5820
  133OSM    C9S14381  -0.651   3.460   7.455  0.2590  0.4392  0.3596
  133OSM    H9S14382  -0.541   3.460   7.471  0.0649  0.8224  1.8997
  133OSM    H9T14383  -0.689   3.356   7.465  0.7185  0.2612  0.2537
  133OSM   C10S14384  -0.714   3.547   7.563 -0.3269 -0.1352 -0.2239
  133OSM   H10S14385  -0.821   3.574   7.551 -0.5581  0.4855  2.5317
  133OSM   H10T14386  -0.661   3.645   7.572  1.7312 -1.1867 -0.3524
  133OSM   C11S14387  -0.703   3.477   7.702 -0.3607 -0.7168 -0.0629
  133OSM   H11S14388  -0.596   3.451   7.717  0.0084  1.3204  1.2267
  133OSM   H11T14389  -0.776   3.394   7.713  0.6140 -1.7208 -0.9160
  133OSM   C12S14390  -0.753   3.574   7.813  0.3854 -0.4541  0.4241
  133OSM   H12S14391  -0.858   3.608   7.797  0.3207 -0.7771  0.1727
  133OSM   H12T14392  -0.700   3.670   7.796 -1.7501  0.6637 -0.2958
  133OSM   C13S14393  -0.736   3.512   7.951 -0.2409  0.4424 -0.0664
  133OSM   H13S14394  -0.637   3.462   7.957  0.4528  1.8441  0.8249
  133OSM   H13T14395  -0.788   3.415   7.955  1.1106 -0.3321 -0.6253
  133OSM   C14S14396  -0.754   3.604   8.073 -0.2562 -0.3303  0.0030
  133OSM   H14S14397  -0.850   3.657   8.051 -0.7012 -0.4756  1.5012
  133OSM   H14T14398  -0.667   3.672   8.075  0.5654 -1.2891  3.3824
  133OSM   C15S14399  -0.764   3.533   8.208  0.0344 -1.3140 -0.2062
  133OSM   H15S14400  -0.663   3.497   8.238  0.7070 -0.7728 -1.7413
  133OSM   H15T14401  -0.826   3.441   8.197 -1.4230 -0.4708  0.6533
  133OSM   C16S14402  -0.821   3.612   8.326 -0.2529  0.1887 -0.2951
  133OSM   H16S14403  -0.811   3.548   8.417 -0.7692  0.8964  0.2739
  133OSM   H16T14404  -0.931   3.622   8.321 -0.1969  1.1246 -0.0128
  133OSM   C17S14405  -0.750   3.747   8.352 -0.1852 -0.2920  0.2833
  133OSM   H17S14406  -0.764   3.819   8.269  2.2349 -0.1281 -0.0397
  133OSM   H17T14407  -0.642   3.721   8.354 -0.4549 -1.4293  1.5731
  133OSM   C18S14408  -0.786   3.808   8.484 -0.0174  1.0195 -0.6998
  133OSM   H18S14409  -0.706   3.873   8.526 -0.9319 -0.2725  3.4915
  133OSM   H18T14410  -0.800   3.734   8.565 -0.3957  2.0394  0.1900
  133OSM   H18U14411  -0.887   3.855   8.485  0.0171  1.1051  1.1312
  133OSM    C1F14412  -0.216   3.507   6.876  0.3814 -1.0767 -0.8029
  133OSM     OF14413  -0.181   3.615   6.833 -0.6153 -0.6285  0.3581
  133OSM    C2F14414  -0.136   3.429   6.980 -0.0112 -0.2619  0.2324
  133OSM    H2F14415  -0.044   3.394   6.929  0.7454  0.6531  0.9246
  133OSM    H2G14416  -0.209   3.354   7.018  0.2867 -1.6816 -1.8479
  133OSM    C3F14417  -0.067   3.520   7.087 -0.1515  0.1550 -0.1538
  133OSM    H3F14418  -0.008   3.600   7.037  0.0996  0.2715  0.3228
  133OSM    H3G14419   0.008   3.463   7.146 -2.2305 -0.5532  1.9708
  133OSM    C4F14420  -0.156   3.586   7.197  0.1447 -0.3315 -0.6797
  133OSM    H4F14421  -0.236   3.640   7.143 -0.8662 -2.0681 -0.9730
  133OSM    H4G14422  -0.102   3.662   7.259 -0.2618  0.4731 -1.2911
  133OSM    C5F14423  -0.210   3.486   7.305  0.0675 -0.3114  0.3251
  133OSM    H5F14424  -0.257   3.404   7.246 -2.4095  0.1373  1.5362
  133OSM    H5G14425  -0.294   3.530   7.363  0.4719 -0.6846  1.2205
  133OSM    C6F14426  -0.095   3.438   7.401 -0.6579  0.4609  0.3819
  133OSM    H6F14427  -0.055   3.523   7.460  0.5083 -0.7404  1.3894
  133OSM    H6G14428  -0.011   3.406   7.336  0.2130  0.7994  1.3049
  133OSM    C7F14429  -0.124   3.320   7.495 -0.4088  0.0721 -0.0270
  133OSM    H7F14430  -0.035   3.312   7.561  0.7570  1.4305 -1.3582
  133OSM    H7G14431  -0.131   3.225   7.437 -2.9476 -0.2391  0.6454
  133OSM    C8F14432  -0.262   3.327   7.565  0.4607 -0.2028  1.3306
  133OSM    H8F14433  -0.337   3.336   7.484  0.3562  2.2048  1.6393
  133OSM    H8G14434  -0.268   3.420   7.625  0.4478  0.7360 -0.0940
  133OSM    C9F14435  -0.294   3.200   7.647  0.0613  0.1705 -0.4193
  133OSM    H9F14436  -0.332   3.117   7.585 -1.2128  0.8892 -0.6237
  133OSM   C10F14437  -0.290   3.196   7.778 -0.1358  0.9232  0.0382
  133OSM   H10F14438  -0.329   3.107   7.830  1.8791 -0.0831 -0.1006
  133OSM   C11F14439  -0.251   3.305   7.867 -0.1884 -0.5128 -0.3709
  133OSM   H11F14440  -0.185   3.374   7.810  1.2621 -0.7304  0.9646
  133OSM   H11G14441  -0.190   3.266   7.951 -1.5641 -0.9727  0.4415
  133OSM   C12F14442  -0.374   3.380   7.900  0.1356 -0.3154  0.7316
  133OSM   H12F14443  -0.460   3.310   7.909  0.8171 -1.1146  1.2254
  133OSM   H12G14444  -0.395   3.452   7.818 -3.4140 -0.5403  1.2671
  133OSM   C13F14445  -0.377   3.444   8.043 -1.0774 -0.3112 -0.0752
  133OSM   H13F14446  -0.354   3.356   8.106  1.7429 -0.0218 -0.5759
  133OSM   H13G14447  -0.479   3.485   8.061 -1.1062 -1.0590  1.6294
  133OSM   C14F14448  -0.275   3.557   8.070 -0.1353 -0.2290  0.6118
  133OSM   H14F14449  -0.307   3.647   8.013 -1.4021 -1.2439 -0.3169
  133OSM   H14G14450  -0.183   3.528   8.015  1.6175  1.2025  2.6367
  133OSM   C15F14451  -0.240   3.597   8.211 -0.0423 -0.1698 -0.0898
  133OSM   H15F14452  -0.154   3.668   8.211 -0.7367  0.7024  1.0155
  133OSM   H15G14453  -0.205   3.515   8.276  1.9913 -0.1014 -1.0179
  133OSM   C16F14454  -0.362   3.663   8.281 -0.1144 -0.2172 -0.8431
  133OSM   H16F14455  -0.447   3.591   8.281 -1.6505  1.4664  0.8911
  133OSM   H16G14456  -0.398   3.755   8.230  0.9392  1.8498  1.8792
  133OSM   C17F14457  -0.336   3.708   8.424  0.7894 -0.2428 -0.3630
  133OSM   H17F14458  -0.311   3.627   8.496 -1.0435 -2.3297 -1.9239
  133OSM   H17G14459  -0.435   3.729   8.468  1.5374 -0.3325  1.4658
  133OSM   C18F14460  -0.242   3.829   8.443 -0.0289 -0.0085  0.4600
  133OSM   H18F14461  -0.282   3.913   8.381  1.2828 -0.4405 -1.0438
  133OSM   H18G14462  -0.144   3.796   8.402 -0.7083 -1.2179 -0.2469
  133OSM   H18H14463  -0.239   3.853   8.552 -0.5953  0.3116  0.4122
  134OSM      N14464   6.044   5.901   6.323 -0.5228  0.3263  0.8027
  134OSM    C1514465   6.044   5.789   6.226 -0.0043 -0.4468 -0.5427
  134OSM   H15A14466   6.140   5.743   6.209  1.2639  1.3181  1.3258
  134OSM   H15B14467   5.988   5.814   6.137 -0.9925 -0.0842  0.1597
  134OSM   H15C14468   5.985   5.710   6.271  0.0846  0.6347  1.6638
  134OSM    C1414469   6.144   5.867   6.435  0.1892 -0.0983 -0.1777
  134OSM   H14A14470   6.145   5.942   6.513  1.0510 -0.1731 -0.1153
  134OSM   H14B14471   6.248   5.864   6.407 -0.2747  1.3532 -2.3591
  134OSM   H14C14472   6.117   5.774   6.482 -0.0660  0.0190 -0.0900
  134OSM    C1314473   6.090   6.023   6.246  0.3028  0.1736 -0.2262
  134OSM   H13A14474   6.016   6.048   6.172  0.4515  2.6122  0.3465
  134OSM   H13B14475   6.179   6.009   6.187  1.9719  0.0959  2.1464
  134OSM   H13C14476   6.090   6.114   6.305  0.6108 -0.6119  1.0265
  134OSM    C1214477   5.905   5.919   6.384 -0.0728 -0.2535 -0.6688
  134OSM   H12A14478   5.835   5.928   6.303 -1.8833 -1.3379  0.7077
  134OSM   H12B14479   5.900   6.014   6.436  0.1736 -0.2057 -0.7296
  134OSM    C1114480   5.858   5.801   6.471 -0.3179  0.2501 -0.6382
  134OSM   H11A14481   5.924   5.783   6.559 -0.4880  1.4808 -0.2426
  134OSM   H11B14482   5.855   5.704   6.416  1.5895 -1.7663  2.5031
  134OSM      P14483   5.620   5.726   6.558 -0.4476 -0.2046  0.1061
  134OSM    O1314484   5.509   5.808   6.618 -0.4281 -0.1025 -0.0133
  134OSM    O1414485   5.597   5.648   6.430 -0.6440 -0.4599 -0.0587
  134OSM    O1114486   5.677   5.637   6.673 -0.9102  0.6646  0.3295
  134OSM    O1214487   5.729   5.840   6.523 -0.2038  0.0830  0.3704
  134OSM    C1S14488   5.746   5.683   6.795 -0.6614  0.1244  0.8597
  134OSM    H1S14489   5.671   5.714   6.870 -0.5303  0.3716  0.8875
  134OSM    H1T14490   5.827   5.758   6.780  0.8341 -1.4489  0.6424
  134OSM     NF14491   5.883   5.575   6.969 -0.8070  0.3151 -0.5281
  134OSM    HNF14492   5.983   5.576   6.973 -0.7464 -1.5515 -0.5932
  134OSM    C2S14493   5.822   5.558   6.844  0.6633  0.2935 -0.2062
  134OSM    H2S14494   5.751   5.473   6.853  1.3025 -0.4324 -1.6144
  134OSM    C3S14495   5.929   5.512   6.730 -0.5181  0.2930  0.1303
  134OSM    H3S14496   5.991   5.600   6.703 -0.2363 -0.3876 -1.5925
  134OSM     O314497   5.877   5.462   6.612  0.6947  0.3693  0.4937
  134OSM    HO314498   5.783   5.483   6.617  0.3931 -0.9220  0.6522
  134OSM    C4S14499   6.018   5.405   6.785  0.4034 -0.2128  0.2221
  134OSM    H4S14500   5.968   5.308   6.798 -0.8095  0.1736 -1.2162
  134OSM    C5S14501   6.149   5.413   6.808  0.0254 -0.6000 -0.0587
  134OSM    H5S14502   6.213   5.496   6.775  0.1053 -0.9120 -0.7133
  134OSM    C6S14503   6.240   5.307   6.859 -0.1248  0.2649  0.1800
  134OSM    H6S14504   6.330   5.296   6.795 -0.3967 -5.1428  0.3196
  134OSM    H6T14505   6.189   5.209   6.859 -1.1483  0.7346 -2.2280
  134OSM    C7S14506   6.291   5.339   7.004  0.9044  0.8549 -0.0403
  134OSM    H7S14507   6.327   5.444   7.002  1.5592  0.6621  0.9250
  134OSM    H7T14508   6.380   5.279   7.032 -0.1353 -0.1323  1.3672
  134OSM    C8S14509   6.195   5.328   7.118  0.1016 -0.1055 -0.0709
  134OSM    H8S14510   6.148   5.228   7.125  1.1169 -0.5913 -0.0146
  134OSM    H8T14511   6.110   5.398   7.104 -0.7158 -0.6520  1.8617
  134OSM    C9S14512   6.269   5.375   7.249 -0.2720  0.0144  0.3475
  134OSM    H9S14513   6.306   5.476   7.225 -3.1232  0.8577 -0.9824
  134OSM    H9T14514   6.359   5.311   7.263  2.3568  3.7362  2.0524
  134OSM   C10S14515   6.169   5.385   7.371 -0.2698 -0.1605  0.4788
  134OSM   H10S14516   6.136   5.281   7.391  0.1866 -0.0815  1.7252
  134OSM   H10T14517   6.081   5.443   7.336 -0.8117 -2.4212 -2.3258
  134OSM   C11S14518   6.231   5.437   7.498 -0.1558  0.4960  0.0081
  134OSM   H11S14519   6.143   5.433   7.567 -1.6989 -2.0811 -1.9195
  134OSM   H11T14520   6.264   5.539   7.468  2.7450 -0.2924  0.2502
  134OSM   C12S14521   6.340   5.344   7.550  0.7492 -0.2493  0.0868
  134OSM   H12S14522   6.416   5.344   7.469 -1.5923  0.5444 -2.2954
  134OSM   H12T14523   6.307   5.239   7.559 -2.0319  0.6622  1.9161
  134OSM   C13S14524   6.401   5.383   7.682 -0.3284  0.0654  0.5504
  134OSM   H13S14525   6.321   5.410   7.753  1.0925  1.0283  1.8440
  134OSM   H13T14526   6.463   5.473   7.662  1.0254 -1.1961 -1.2624
  134OSM   C14S14527   6.493   5.274   7.736 -0.2355  0.3237  0.0332
  134OSM   H14S14528   6.555   5.242   7.649  0.7054 -1.9477  1.4611
  134OSM   H14T14529   6.424   5.194   7.772  1.1027 -0.7340  0.3187
  134OSM   C15S14530   6.568   5.344   7.850 -0.5281  0.6414  0.2970
  134OSM   H15S14531   6.517   5.430   7.898  0.0825  0.1121  1.9387
  134OSM   H15T14532   6.650   5.389   7.790 -1.5805  0.0098 -1.7265
  134OSM   C16S14533   6.623   5.253   7.958  0.5103  0.3315  0.0236
  134OSM   H16S14534   6.666   5.168   7.900  0.7071  0.2034  0.3536
  134OSM   H16T14535   6.546   5.207   8.023 -0.5344  1.2716 -0.5086
  134OSM   C17S14536   6.729   5.315   8.050  0.2376  0.5461 -0.4190
  134OSM   H17S14537   6.804   5.352   7.977 -1.3252 -0.9730 -2.9525
  134OSM   H17T14538   6.765   5.225   8.104 -1.0641 -0.4428 -1.1353
  134OSM   C18S14539   6.681   5.412   8.161 -0.2360  0.4508 -0.4569
  134OSM   H18S14540   6.601   5.366   8.223  0.0309  2.0373  1.1489
  134OSM   H18T14541   6.635   5.505   8.120  1.1903  0.1087 -2.9998
  134OSM   H18U14542   6.762   5.456   8.222 -0.9366  1.1483 -0.0042
  134OSM    C1F14543   5.805   5.594   7.083 -0.1076 -0.2358 -0.0526
  134OSM     OF14544   5.681   5.581   7.086  0.2487 -0.5684 -0.1268
  134OSM    C2F14545   5.879   5.638   7.210 -0.0071  0.5434 -0.2797
  134OSM    H2F14546   5.871   5.749   7.210 -2.8629  0.5061  3.3593
  134OSM    H2G14547   5.985   5.603   7.207 -0.5025 -0.9593 -1.8866
  134OSM    C3F14548   5.816   5.583   7.338 -0.1302  0.0027 -0.5314
  134OSM    H3F14549   5.804   5.473   7.349  0.9825 -0.0858  0.0231
  134OSM    H3G14550   5.712   5.618   7.352 -0.0887 -0.3403  0.7819
  134OSM    C4F14551   5.900   5.632   7.469  0.0866  0.0398 -0.7537
  134OSM    H4F14552   5.871   5.738   7.487 -2.9828 -0.6851 -0.8409
  134OSM    H4G14553   6.008   5.619   7.448  0.0248  0.7561 -1.5790
  134OSM    C5F14554   5.852   5.559   7.586 -0.0828  0.0026  0.1189
  134OSM    H5F14555   5.867   5.449   7.575  2.1208  0.3889 -1.3258
  134OSM    H5G14556   5.745   5.573   7.614  0.4719 -1.6919  3.7931
  134OSM    C6F14557   5.924   5.593   7.721  0.1650  0.1603  0.2130
  134OSM    H6F14558   5.881   5.692   7.745 -2.1282 -0.8338  0.4722
  134OSM    H6G14559   6.034   5.606   7.709  0.2963 -1.6102 -0.8253
  134OSM    C7F14560   5.897   5.504   7.839 -0.2277  0.2790  0.0722
  134OSM    H7F14561   5.949   5.532   7.933  0.8294  0.2420 -0.4830
  134OSM    H7G14562   5.945   5.407   7.813 -0.1212  0.0969  0.9142
  134OSM    C8F14563   5.748   5.484   7.869 -0.3885  0.1645  0.1289
  134OSM    H8F14564   5.699   5.444   7.778 -0.2008  1.4627 -0.5678
  134OSM    H8G14565   5.695   5.578   7.896  0.1706 -0.0442  2.0681
  134OSM    C9F14566   5.737   5.385   7.984 -0.7556 -0.4645  0.1409
  134OSM    H9F14567   5.755   5.281   7.954 -0.7420 -0.4585  0.1280
  134OSM   C10F14568   5.727   5.412   8.117 -0.5713  0.2524  0.4009
  134OSM   H10F14569   5.731   5.329   8.189  0.0319 -0.0073  0.0673
  134OSM   C11F14570   5.711   5.547   8.187  0.6897  0.1882  0.1667
  134OSM   H11F14571   5.614   5.560   8.239 -0.2002  1.1263 -1.6239
  134OSM   H11G14572   5.736   5.620   8.106 -1.0621 -1.1121 -1.6595
  134OSM   C12F14573   5.816   5.564   8.299  0.1335 -0.0937  0.1125
  134OSM   H12F14574   5.832   5.667   8.338  0.2216 -0.2445  0.4875
  134OSM   H12G14575   5.914   5.544   8.250  0.6582  1.0422  0.6438
  134OSM   C13F14576   5.799   5.471   8.420 -1.0327  0.2629  0.8511
  134OSM   H13F14577   5.884   5.485   8.489 -1.9682  0.1379  2.0522
  134OSM   H13G14578   5.799   5.366   8.384 -0.2097  0.1663  1.1028
  134OSM   C14F14579   5.665   5.491   8.497 -0.2193 -0.1824 -0.3574
  134OSM   H14F14580   5.648   5.410   8.572 -2.2359  0.8557  0.3854
  134OSM   H14G14581   5.580   5.480   8.427 -0.5419  0.7345 -0.1245
  134OSM   C15F14582   5.647   5.629   8.562 -0.1370 -0.3882 -0.1932
  134OSM   H15F14583   5.679   5.712   8.495  3.3196 -1.6859 -0.3416
  134OSM   H15G14584   5.726   5.627   8.640  2.2463  0.5427 -2.4480
  134OSM   C16F14585   5.515   5.656   8.633 -0.2797  0.2735 -0.3314
  134OSM   H16F14586   5.502   5.765   8.653 -0.8631 -0.0172  0.9961
  134OSM   H16G14587   5.503   5.607   8.732  1.3424 -0.0555 -0.2795
  134OSM   C17F14588   5.388   5.622   8.552 -0.5143  0.6466 -0.2439
  134OSM   H17F14589   5.313   5.638   8.632  0.1284  0.9182  0.3120
  134OSM   H17G14590   5.392   5.516   8.520  0.9914  0.5160  0.2988
  134OSM   C18F14591   5.348   5.709   8.437 -0.7155  0.2695  0.0335
  134OSM   H18F14592   5.422   5.696   8.355 -1.2237  0.8251 -0.5263
  134OSM   H18G14593   5.335   5.815   8.467  0.6477  0.1569  1.1096
  134OSM   H18H14594   5.249   5.683   8.392 -1.4889  0.7741  1.3871
  135OSM      N14595   5.231   5.291   6.200 -0.5279  0.0288 -0.3768
  135OSM    C1514596   5.112   5.383   6.222  0.7077 -0.0972  0.0174
  135OSM   H15A14597   5.147   5.481   6.251 -0.0650  0.8305 -2.0271
  135OSM   H15B14598   5.040   5.349   6.295 -1.8675  0.1133 -2.2745
  135OSM   H15C14599   5.050   5.396   6.134 -1.7145  0.8382  1.7475
  135OSM    C1414600   5.184   5.160   6.145 -1.0985  0.1301  0.5094
  135OSM   H14A14601   5.139   5.173   6.047 -1.9963 -2.2485  0.5364
  135OSM   H14B14602   5.107   5.116   6.207  0.2086 -2.7504  0.2834
  135OSM   H14C14603   5.269   5.092   6.143 -0.0981  1.1244  3.6226
  135OSM    C1314604   5.325   5.364   6.107  0.5839  0.7070 -0.1616
  135OSM   H13A14605   5.277   5.406   6.019  0.8396  0.1918 -0.5530
  135OSM   H13B14606   5.395   5.290   6.073 -0.2457 -0.1749 -0.0065
  135OSM   H13C14607   5.380   5.437   6.165 -2.1546  3.3712 -0.6571
  135OSM    C1214608   5.307   5.261   6.326 -0.5831  0.4356 -0.4852
  135OSM   H12A14609   5.392   5.198   6.301 -0.0715  0.2619  1.4862
  135OSM   H12B14610   5.238   5.210   6.392 -3.5842  1.1576 -2.8448
  135OSM    C1114611   5.362   5.386   6.405  0.1775  0.2585 -0.1206
  135OSM   H11A14612   5.435   5.447   6.347  0.6099  0.9556  1.1130
  135OSM   H11B14613   5.428   5.339   6.481 -1.8066 -2.2344  0.2011
  135OSM      P14614   5.179   5.425   6.595 -0.0769 -0.2180  0.3319
  135OSM    O1314615   5.088   5.538   6.636  0.4809  0.0082  0.8309
  135OSM    O1414616   5.120   5.289   6.574  0.2609 -0.2473 -0.3904
  135OSM    O1114617   5.302   5.409   6.694  0.3277  0.2079 -0.3256
  135OSM    O1214618   5.265   5.471   6.465 -0.0402 -0.1608 -0.1583
  135OSM    C1S14619   5.380   5.505   6.764 -0.7554 -0.2610 -0.7857
  135OSM    H1S14620   5.390   5.600   6.707 -2.0791 -1.1831 -2.6490
  135OSM    H1T14621   5.487   5.474   6.753  0.0446  2.4053 -1.2906
  135OSM     NF14622   5.416   5.622   6.980  0.2671  0.6790 -0.0775
  135OSM    HNF14623   5.496   5.607   7.038  0.1228  0.2219  0.0128
  135OSM    C2S14624   5.351   5.509   6.914  0.1915  0.4330  0.9297
  135OSM    H2S14625   5.245   5.535   6.933  0.6231  4.1289 -0.8745
  135OSM    C3S14626   5.396   5.375   6.966  0.4813 -0.1855 -0.3475
  135OSM    H3S14627   5.505   5.364   6.949  0.3565 -1.2248 -0.4918
  135OSM     O314628   5.324   5.269   6.909 -0.2771  0.4163  0.3133
  135OSM    HO314629   5.307   5.317   6.827  1.2792  1.3459  0.4985
  135OSM    C4S14630   5.386   5.382   7.117  0.4583  0.5315 -0.2573
  135OSM    H4S14631   5.280   5.378   7.146  0.3959 -0.8845 -0.5852
  135OSM    C5S14632   5.478   5.371   7.218  0.6617 -0.4262 -0.1738
  135OSM    H5S14633   5.586   5.362   7.200  0.6454  0.8255 -1.0317
  135OSM    C6S14634   5.432   5.363   7.365 -0.6025  0.6781  0.1109
  135OSM    H6S14635   5.336   5.419   7.374 -1.4668 -0.4931 -1.4118
  135OSM    H6T14636   5.508   5.396   7.438 -1.6076  0.8788  1.0862
  135OSM    C7S14637   5.411   5.218   7.417 -0.3211  0.1817 -0.2352
  135OSM    H7S14638   5.503   5.156   7.423  0.2591  1.0983  0.5710
  135OSM    H7T14639   5.346   5.159   7.348 -1.3727  0.1965  0.7142
  135OSM    C8S14640   5.325   5.213   7.546 -0.1410 -0.7535 -0.3160
  135OSM    H8S14641   5.307   5.107   7.575 -1.3001 -0.4361  0.1944
  135OSM    H8T14642   5.231   5.267   7.518 -1.0404 -1.4990  1.1471
  135OSM    C9S14643   5.406   5.272   7.658  0.1478 -0.2449  0.2471
  135OSM    H9S14644   5.412   5.381   7.639  0.1782 -0.2811  0.0525
  135OSM    H9T14645   5.498   5.211   7.664 -1.5293 -3.0568 -0.3616
  135OSM   C10S14646   5.341   5.240   7.798  0.1437 -0.1510 -0.1576
  135OSM   H10S14647   5.305   5.135   7.809 -1.4745  0.4521  0.5217
  135OSM   H10T14648   5.248   5.296   7.818  0.1107 -0.8869  2.0340
  135OSM   C11S14649   5.430   5.268   7.923 -0.3872 -0.4142  0.1442
  135OSM   H11S14650   5.454   5.377   7.925 -0.0276 -0.4265 -1.5116
  135OSM   H11T14651   5.529   5.217   7.919 -0.4278 -0.5182  0.4473
  135OSM   C12S14652   5.361   5.219   8.062 -0.8250 -0.3820 -0.1647
  135OSM   H12S14653   5.369   5.108   8.072  2.6636 -0.1294  1.6922
  135OSM   H12T14654   5.258   5.258   8.071 -0.8472 -0.4686 -0.0372
  135OSM   C13S14655   5.436   5.260   8.185  0.1320  0.8509  0.3189
  135OSM   H13S14656   5.431   5.367   8.215  0.0147  0.2379  2.7324
  135OSM   H13T14657   5.542   5.227   8.184  0.3102  1.4178  0.1593
  135OSM   C14S14658   5.380   5.180   8.310 -0.0321 -0.2655  0.4575
  135OSM   H14S14659   5.381   5.074   8.276  0.7116 -0.1619  0.1301
  135OSM   H14T14660   5.270   5.194   8.324 -0.2474 -1.5241  0.1040
  135OSM   C15S14661   5.451   5.199   8.441 -0.3608 -0.3221 -0.3851
  135OSM   H15S14662   5.446   5.308   8.460 -1.6446  0.1265 -2.9552
  135OSM   H15T14663   5.554   5.167   8.417 -1.3404 -3.8756 -0.4970
  135OSM   C16S14664   5.380   5.129   8.557  0.5318  0.4559 -0.5385
  135OSM   H16S14665   5.398   5.021   8.538 -0.8069 -0.0237  0.6837
  135OSM   H16T14666   5.269   5.135   8.557  0.3157 -2.1341 -1.7831
  135OSM   C17S14667   5.433   5.176   8.697  0.4779 -0.0936  0.5440
  135OSM   H17S14668   5.357   5.153   8.775 -0.1409 -2.0507 -0.5577
  135OSM   H17T14669   5.452   5.286   8.696 -1.2193  0.2271  1.1388
  135OSM   C18S14670   5.566   5.113   8.733 -0.2817  0.2532  0.2222
  135OSM   H18S14671   5.556   5.002   8.725  0.6726  0.0668  1.3030
  135OSM   H18T14672   5.603   5.138   8.835 -2.8450 -0.3892  1.3998
  135OSM   H18U14673   5.637   5.138   8.652  1.0878  0.7918  1.5326
  135OSM    C1F14674   5.373   5.747   6.963 -0.6271 -0.1242  0.3807
  135OSM     OF14675   5.267   5.767   6.907  0.1281  0.2257 -0.0364
  135OSM    C2F14676   5.457   5.858   7.016 -0.4907 -0.2955  0.1897
  135OSM    H2F14677   5.460   5.946   6.948  2.5620 -1.3334 -1.1661
  135OSM    H2G14678   5.564   5.834   7.032 -0.1525 -0.2602 -1.8117
  135OSM    C3F14679   5.409   5.901   7.163 -0.2486  0.1173 -0.0199
  135OSM    H3F14680   5.300   5.919   7.167 -0.3261 -0.4287  0.4206
  135OSM    H3G14681   5.472   5.992   7.174  1.6480 -1.0272 -0.9178
  135OSM    C4F14682   5.434   5.805   7.282 -0.5882 -0.2898  0.8970
  135OSM    H4F14683   5.543   5.789   7.292 -0.5997 -1.5573 -0.6983
  135OSM    H4G14684   5.396   5.704   7.256  1.0381 -0.7503  0.1894
  135OSM    C5F14685   5.375   5.839   7.418  0.8949  0.5384  0.3933
  135OSM    H5F14686   5.265   5.846   7.410  0.9864  1.0323 -0.4894
  135OSM    H5G14687   5.411   5.940   7.446  0.0966  0.4347  1.8828
  135OSM    C6F14688   5.418   5.748   7.534 -0.6790  0.1431  0.0975
  135OSM    H6F14689   5.525   5.730   7.513 -0.0724  1.8178  1.5313
  135OSM    H6G14690   5.368   5.649   7.522  1.7822 -1.0862 -0.5306
  135OSM    C7F14691   5.380   5.800   7.676 -0.2683  1.0281  0.4580
  135OSM    H7F14692   5.270   5.814   7.683 -0.7857 -2.2420  0.3246
  135OSM    H7G14693   5.432   5.898   7.679 -0.8028  1.3781 -1.0248
  135OSM    C8F14694   5.429   5.701   7.782 -0.0595 -0.2210  0.3297
  135OSM    H8F14695   5.537   5.683   7.802 -0.6031 -2.6221  1.4858
  135OSM    H8G14696   5.399   5.597   7.755  0.3722 -0.4234  0.6090
  135OSM    C9F14697   5.362   5.750   7.905 -0.7769 -0.5262  0.7436
  135OSM    H9F14698   5.263   5.708   7.926 -1.0660  0.0819  0.6220
  135OSM   C10F14699   5.423   5.829   7.995  0.3124 -0.9539 -0.7376
  135OSM   H10F14700   5.360   5.869   8.076  0.9942 -1.7286  0.1895
  135OSM   C11F14701   5.563   5.885   7.986  0.3904  0.2195  0.2972
  135OSM   H11F14702   5.602   5.853   7.887  0.2906 -0.2392  0.4015
  135OSM   H11G14703   5.633   5.853   8.066  1.6833  0.5712 -0.6680
  135OSM   C12F14704   5.565   6.043   7.984 -0.0933 -0.5096  0.3383
  135OSM   H12F14705   5.482   6.076   7.918  0.2186  1.1271  0.7298
  135OSM   H12G14706   5.662   6.072   7.939 -1.2551  1.0519 -1.2975
  135OSM   C13F14707   5.551   6.114   8.118  0.4831  0.4212  0.5913
  135OSM   H13F14708   5.443   6.097   8.140 -0.5039  2.1270 -2.3863
  135OSM   H13G14709   5.540   6.223   8.100 -3.2005 -0.3001 -3.0565
  135OSM   C14F14710   5.646   6.062   8.226 -1.2591 -0.0345  0.1462
  135OSM   H14F14711   5.753   6.059   8.196 -0.5329 -0.0067  2.4930
  135OSM   H14G14712   5.623   5.960   8.266 -2.4775  0.7776  1.6592
  135OSM   C15F14713   5.624   6.157   8.351  0.2126 -0.1214 -0.9472
  135OSM   H15F14714   5.515   6.168   8.366  0.3736  0.0595  0.2054
  135OSM   H15G14715   5.664   6.260   8.337 -0.2230 -0.0104 -1.4265
  135OSM   C16F14716   5.678   6.096   8.482 -0.4708 -0.0022 -0.1405
  135OSM   H16F14717   5.779   6.063   8.452 -0.4309  1.1099 -1.3225
  135OSM   H16G14718   5.623   6.005   8.513 -1.6542  1.2346  1.5971
  135OSM   C17F14719   5.666   6.180   8.611  0.0185 -0.3173  0.3651
  135OSM   H17F14720   5.561   6.215   8.601 -0.2398 -1.0367  0.4630
  135OSM   H17G14721   5.736   6.266   8.605 -0.8628  0.5184  1.5701
  135OSM   C18F14722   5.690   6.110   8.747  0.1971  0.5005 -0.0537
  135OSM   H18F14723   5.785   6.052   8.737 -0.9291 -1.4171 -0.2100
  135OSM   H18G14724   5.621   6.025   8.765  1.3501 -0.9954 -2.1767
  135OSM   H18H14725   5.687   6.191   8.822  0.5075  0.0875  0.4110
  136OSM      N14726   4.715   0.021   6.400  0.2609  0.2554  0.4618
  136OSM    C1514727   4.730   0.026   6.246 -0.8125  0.2813 -0.6825
  136OSM   H15A14728   4.651  -0.033   6.201 -0.3911 -0.9524  0.1362
  136OSM   H15B14729   4.825  -0.013   6.215 -1.2217 -1.8723  0.5150
  136OSM   H15C14730   4.704   0.126   6.214 -2.3184 -0.3142 -1.3992
  136OSM    C1414731   4.594   0.102   6.432  0.1222 -0.0219  0.1791
  136OSM   H14A14732   4.613   0.206   6.409 -0.8629  0.1412  0.0798
  136OSM   H14B14733   4.557   0.097   6.533  3.0442 -0.0447  1.3473
  136OSM   H14C14734   4.507   0.087   6.369  0.7422  0.3390 -0.7885
  136OSM    C1314735   4.687  -0.118   6.443  0.0736  0.1377  0.0685
  136OSM   H13A14736   4.756  -0.182   6.389 -0.1613  1.4723 -1.9447
  136OSM   H13B14737   4.588  -0.147   6.411  0.3270  1.1757 -1.8035
  136OSM   H13C14738   4.692  -0.134   6.549 -1.8861 -0.9243  0.0505
  136OSM    C1214739   4.838   0.085   6.461  0.3827 -0.0285  0.4663
  136OSM   H12A14740   4.923   0.040   6.412 -1.6506  0.5049 -4.0921
  136OSM   H12B14741   4.837   0.062   6.566  1.1518  1.6472  0.8785
  136OSM    C1114742   4.848   0.240   6.445 -0.3088  0.1532 -0.3861
  136OSM   H11A14743   4.947   0.268   6.485 -0.4623 -1.5170  1.3560
  136OSM   H11B14744   4.773   0.289   6.512 -1.1544 -0.3477 -0.9395
  136OSM      P14745   4.746   0.399   6.262  0.3427 -0.0314 -0.0447
  136OSM    O1314746   4.815   0.460   6.150 -0.1247 -0.3209 -0.2681
  136OSM    O1414747   4.612   0.343   6.234  0.7459  0.0836  0.0839
  136OSM    O1114748   4.732   0.499   6.382 -0.5312  0.8196 -0.1043
  136OSM    O1214749   4.847   0.289   6.310  0.5291  0.6175  0.0041
  136OSM    C1S14750   4.601   0.514   6.443  0.5997 -0.1017 -0.6061
  136OSM    H1S14751   4.579   0.423   6.503 -0.2761  2.0243  2.5653
  136OSM    H1T14752   4.509   0.533   6.384 -2.0761  1.0827  3.5068
  136OSM     NF14753   4.492   0.633   6.640 -0.1206  0.0631  0.1173
  136OSM    HNF14754   4.417   0.688   6.603 -1.5499 -2.3668 -0.8450
  136OSM    C2S14755   4.607   0.634   6.539  0.6884  0.1083  0.3243
  136OSM    H2S14756   4.705   0.623   6.590  3.0890 -1.8381 -4.0910
  136OSM    C3S14757   4.617   0.763   6.446 -0.2420  0.2969 -0.4161
  136OSM    H3S14758   4.519   0.765   6.395 -2.7899 -1.0039  3.9034
  136OSM     O314759   4.723   0.758   6.347 -0.0993  0.3280  0.2070
  136OSM    HO314760   4.755   0.667   6.345  1.4070  0.8219 -1.6198
  136OSM    C4S14761   4.620   0.884   6.539  0.1612  0.2556 -0.3448
  136OSM    H4S14762   4.521   0.928   6.560  0.0958 -0.5167  1.1663
  136OSM    C5S14763   4.721   0.956   6.588  0.1996  0.0918  0.7077
  136OSM    H5S14764   4.826   0.935   6.562  0.0626 -0.5064  0.6273
  136OSM    C6S14765   4.690   1.075   6.679 -0.5543 -0.1994  0.4672
  136OSM    H6S14766   4.585   1.111   6.666 -0.3005  0.6671  0.6855
  136OSM    H6T14767   4.753   1.165   6.663 -0.9687  0.1285  0.6403
  136OSM    C7S14768   4.709   1.042   6.829 -0.8279 -0.2995  0.6397
  136OSM    H7S14769   4.716   1.140   6.881 -1.0010 -0.0305  0.1591
  136OSM    H7T14770   4.813   1.002   6.831 -0.1947  1.2248 -0.4495
  136OSM    C8S14771   4.608   0.949   6.884  0.1777 -0.4020  0.6925
  136OSM    H8S14772   4.619   0.849   6.836 -1.6768 -1.7280  2.8119
  136OSM    H8T14773   4.507   0.993   6.876  0.5191  0.8345  2.5609
  136OSM    C9S14774   4.626   0.918   7.027  0.1758  0.1506 -0.7847
  136OSM    H9S14775   4.548   0.845   7.060  1.6421 -1.2981 -0.3762
  136OSM    H9T14776   4.608   1.009   7.087 -2.1407 -1.6457  1.4771
  136OSM   C10S14777   4.761   0.865   7.068  0.8075  0.0941  0.0133
  136OSM   H10S14778   4.844   0.939   7.077 -0.2109  1.2189  0.4773
  136OSM   H10T14779   4.795   0.803   6.982 -1.0098  1.0097 -1.4383
  136OSM   C11S14780   4.749   0.774   7.192 -0.5640  0.1178  0.1125
  136OSM   H11S14781   4.852   0.746   7.221 -0.6565  0.3596  0.6933
  136OSM   H11T14782   4.704   0.674   7.176  1.6785 -0.8816 -0.3441
  136OSM   C12S14783   4.683   0.841   7.320 -0.7732 -0.4661  1.0787
  136OSM   H12S14784   4.586   0.880   7.284 -0.0159  0.0088 -0.5339
  136OSM   H12T14785   4.744   0.930   7.348 -1.2319 -0.7544  3.1616
  136OSM   C13S14786   4.685   0.765   7.453  0.4197 -0.3998  0.4338
  136OSM   H13S14787   4.792   0.757   7.481  0.9502  2.6698 -0.2888
  136OSM   H13T14788   4.653   0.660   7.434  1.9481 -0.7491 -0.3410
  136OSM   C14S14789   4.596   0.828   7.559  0.0655 -0.9397 -0.1668
  136OSM   H14S14790   4.505   0.766   7.553 -0.7564  0.3496 -1.9711
  136OSM   H14T14791   4.578   0.932   7.523 -1.2922 -0.2167  2.3597
  136OSM   C15S14792   4.667   0.839   7.694 -0.2012  1.0584  0.7506
  136OSM   H15S14793   4.752   0.911   7.683  0.4675  0.1280 -0.4212
  136OSM   H15T14794   4.717   0.744   7.722 -0.7441  1.2812  2.6701
  136OSM   C16S14795   4.580   0.877   7.810  0.0470  0.2507  0.1651
  136OSM   H16S14796   4.501   0.800   7.819 -0.9371  1.0478 -1.2841
  136OSM   H16T14797   4.534   0.978   7.810  0.8001  0.6233  1.4130
  136OSM   C17S14798   4.658   0.881   7.948  0.6710 -0.3597 -0.5577
  136OSM   H17S14799   4.748   0.945   7.939 -0.2420  0.9071 -1.0086
  136OSM   H17T14800   4.693   0.777   7.960 -2.1228 -1.6702 -2.6191
  136OSM   C18S14801   4.579   0.919   8.073  0.4666 -0.1091  0.1671
  136OSM   H18S14802   4.648   0.921   8.160 -0.7225  0.4731  1.1360
  136OSM   H18T14803   4.499   0.843   8.084  0.4292 -0.0163  0.5424
  136OSM   H18U14804   4.549   1.024   8.052  0.3199 -0.3833 -1.0663
  136OSM    C1F14805   4.475   0.541   6.735 -0.4552  0.5004 -0.2552
  136OSM     OF14806   4.543   0.437   6.731  0.7433  0.0751 -0.2151
  136OSM    C2F14807   4.374   0.569   6.833 -0.3142 -0.2748 -0.1231
  136OSM    H2F14808   4.282   0.511   6.807 -1.6102  1.7877 -0.3606
  136OSM    H2G14809   4.347   0.677   6.830 -0.6898 -0.3681 -0.2449
  136OSM    C3F14810   4.419   0.534   6.975  0.0316  0.8609 -0.7056
  136OSM    H3F14811   4.503   0.596   7.013  0.1827 -0.7920  1.8730
  136OSM    H3G14812   4.454   0.429   6.975  0.6658  1.0680 -0.1050
  136OSM    C4F14813   4.312   0.543   7.081  0.0311 -0.3796 -0.6287
  136OSM    H4F14814   4.216   0.493   7.057 -1.0300  1.1683  0.2763
  136OSM    H4G14815   4.283   0.649   7.093  1.4332 -0.0351 -0.0911
  136OSM    C5F14816   4.378   0.494   7.217 -0.0637 -0.1620 -0.3494
  136OSM    H5F14817   4.457   0.568   7.241 -0.0972 -0.1864 -0.1634
  136OSM    H5G14818   4.422   0.394   7.196 -1.1073 -0.8140  0.4443
  136OSM    C6F14819   4.288   0.493   7.346 -0.4695 -0.3709 -0.3465
  136OSM    H6F14820   4.202   0.424   7.327  0.0584 -1.3303  0.6577
  136OSM    H6G14821   4.264   0.601   7.352  3.4313  0.5708  0.9544
  136OSM    C7F14822   4.373   0.444   7.467 -0.1142 -0.4301  0.1692
  136OSM    H7F14823   4.452   0.520   7.485 -1.3836  0.5629  1.8377
  136OSM    H7G14824   4.432   0.352   7.447 -0.7344 -0.6572 -0.6850
  136OSM    C8F14825   4.291   0.411   7.592 -0.3877 -0.0877 -0.5480
  136OSM    H8F14826   4.360   0.356   7.660 -0.1941  1.4389  0.5459
  136OSM    H8G14827   4.213   0.337   7.565 -1.3372 -0.0978  2.0215
  136OSM    C9F14828   4.232   0.531   7.667  0.1009  0.5021  0.1728
  136OSM    H9F14829   4.219   0.621   7.605 -0.8061 -0.3909 -0.9677
  136OSM   C10F14830   4.195   0.530   7.795  0.3206 -0.3565 -0.4030
  136OSM   H10F14831   4.141   0.619   7.831  0.4840  1.0424 -3.3475
  136OSM   C11F14832   4.210   0.411   7.898 -0.7170 -0.0102  0.3660
  136OSM   H11F14833   4.204   0.320   7.835 -3.7326  0.0262  0.4454
  136OSM   H11G14834   4.111   0.408   7.949 -0.1586 -0.8837  1.4144
  136OSM   C12F14835   4.334   0.417   7.991  0.3474 -0.5728  0.0103
  136OSM   H12F14836   4.430   0.403   7.936  0.1343  0.0340 -0.5354
  136OSM   H12G14837   4.318   0.331   8.059  1.3941 -1.4619 -0.8392
  136OSM   C13F14838   4.354   0.539   8.085 -0.0075 -0.3322 -0.2296
  136OSM   H13F14839   4.254   0.560   8.127  1.4387 -0.6454  3.9018
  136OSM   H13G14840   4.392   0.623   8.022  1.9762 -0.9313  0.0965
  136OSM   C14F14841   4.444   0.509   8.205 -0.2517 -0.3248  0.1213
  136OSM   H14F14842   4.403   0.421   8.260  0.7523 -0.0144  1.4166
  136OSM   H14G14843   4.449   0.596   8.274  0.1490 -0.1674 -0.1040
  136OSM   C15F14844   4.586   0.469   8.172  0.0674 -0.0746 -0.2221
  136OSM   H15F14845   4.620   0.551   8.105 -2.8909  1.2733 -0.2271
  136OSM   H15G14846   4.603   0.371   8.122  0.4961 -0.3707  0.4965
  136OSM   C16F14847   4.682   0.491   8.293 -0.2045  0.1614 -0.1080
  136OSM   H16F14848   4.641   0.447   8.387  0.7995  3.2075  1.8973
  136OSM   H16G14849   4.694   0.598   8.320 -0.6179 -0.3299  2.2394
  136OSM   C17F14850   4.829   0.448   8.277 -0.3519 -0.1080 -0.7066
  136OSM   H17F14851   4.867   0.511   8.194  0.5004 -1.8423 -1.6857
  136OSM   H17G14852   4.826   0.342   8.242  0.4399 -0.5002  0.3739
  136OSM   C18F14853   4.896   0.466   8.412 -0.0946  0.1934  0.4802
  136OSM   H18F14854   4.888   0.576   8.423 -2.5642  0.2542 -1.2020
  136OSM   H18G14855   5.000   0.427   8.416 -0.3389 -0.4431  0.7898
  136OSM   H18H14856   4.839   0.421   8.497 -2.1387  2.0134  0.1465
  137OSM      N14857   6.625   4.861   6.303  0.3893 -0.2886  0.4122
  137OSM    C1514858   6.727   4.895   6.189 -0.1468  0.1658  0.2754
  137OSM   H15A14859   6.807   4.823   6.180 -0.1805  0.4076 -3.8518
  137OSM   H15B14860   6.771   4.990   6.215  2.5852 -1.8646  4.1121
  137OSM   H15C14861   6.680   4.902   6.092 -1.0546 -0.2937  0.6749
  137OSM    C1414862   6.542   4.752   6.244 -0.8502  0.5111  0.4067
  137OSM   H14A14863   6.509   4.775   6.144 -0.2789  2.5344  0.6434
  137OSM   H14B14864   6.444   4.748   6.290 -1.4941 -0.6158 -1.0038
  137OSM   H14C14865   6.591   4.656   6.249  1.2836  1.5503  0.6111
  137OSM    C1314866   6.695   4.828   6.435 -0.5599 -0.5585  0.6984
  137OSM   H13A14867   6.762   4.909   6.460  0.0008 -1.0153  0.6979
  137OSM   H13B14868   6.765   4.747   6.424 -0.9089 -0.6292 -1.6645
  137OSM   H13C14869   6.632   4.807   6.520 -2.4693  0.4790 -0.3804
  137OSM    C1214870   6.532   4.987   6.324  0.2529  0.1320 -0.6589
  137OSM   H12A14871   6.466   4.963   6.406 -0.9662  0.2244 -1.5817
  137OSM   H12B14872   6.474   5.001   6.234 -3.4730  0.4911  1.5719
  137OSM    C1114873   6.600   5.121   6.357  0.5897 -0.0881 -0.0541
  137OSM   H11A14874   6.679   5.144   6.282  1.1457 -1.0724  0.2093
  137OSM   H11B14875   6.646   5.113   6.458 -2.0082  1.3966  1.3595
  137OSM      P14876   6.403   5.248   6.483  0.0453  0.6748  0.1403
  137OSM    O1314877   6.369   5.390   6.514 -0.3698 -0.1388  0.6856
  137OSM    O1414878   6.286   5.159   6.453 -0.5707 -0.2663 -0.8084
  137OSM    O1114879   6.477   5.192   6.613 -0.4704 -0.1953  0.2337
  137OSM    O1214880   6.510   5.231   6.367 -0.2254 -0.0647  0.6300
  137OSM    C1S14881   6.600   5.260   6.666  0.6892 -0.1948  1.2169
  137OSM    H1S14882   6.588   5.369   6.684 -1.8595 -0.2755  0.3657
  137OSM    H1T14883   6.687   5.237   6.602 -0.6793  0.8755 -1.1474
  137OSM     NF14884   6.771   5.249   6.836 -0.3655 -0.8793 -0.4362
  137OSM    HNF14885   6.854   5.194   6.824  0.3587 -0.0362  0.5049
  137OSM    C2S14886   6.649   5.188   6.796  0.5380  0.2610  0.4845
  137OSM    H2S14887   6.588   5.203   6.888  2.0875 -0.7705  1.7417
  137OSM    C3S14888   6.667   5.032   6.772  0.1277  0.0117  0.7831
  137OSM    H3S14889   6.732   5.021   6.683 -2.4449  0.4926 -1.2751
  137OSM     O314890   6.551   4.960   6.733 -0.0333  0.2328 -0.5025
  137OSM    HO314891   6.488   5.028   6.707  0.9408  1.8782  1.1652
  137OSM    C4S14892   6.736   4.969   6.887 -0.0823  1.0294 -0.5459
  137OSM    H4S14893   6.842   4.992   6.901 -0.2252  1.2163  0.3328
  137OSM    C5S14894   6.682   4.886   6.983  0.0649  0.1848  0.0159
  137OSM    H5S14895   6.579   4.852   6.971 -0.6889  1.4000  2.4480
  137OSM    C6S14896   6.754   4.820   7.101  0.0174  0.5075 -1.1604
  137OSM    H6S14897   6.752   4.709   7.095 -2.1125  0.4961 -1.0185
  137OSM    H6T14898   6.690   4.837   7.190  2.1258  1.4926  0.2509
  137OSM    C7S14899   6.894   4.873   7.144  0.7024  0.3369 -0.8783
  137OSM    H7S14900   6.887   4.984   7.142  0.8832  0.3680 -0.1254
  137OSM    H7T14901   6.965   4.839   7.066  0.3814 -0.5279 -0.7959
  137OSM    C8S14902   6.931   4.829   7.278 -0.6685  0.3986  0.0267
  137OSM    H8S14903   6.852   4.853   7.353  0.5520  1.4679  1.0288
  137OSM    H8T14904   7.024   4.883   7.304  0.1943 -1.1443  0.2799
  137OSM    C9S14905   6.973   4.687   7.286  0.1552  0.2474  0.5184
  137OSM    H9S14906   7.047   4.662   7.207  0.3620 -0.1444  0.8310
  137OSM    H9T14907   6.888   4.615   7.278  1.2699 -0.8634 -3.4983
  137OSM   C10S14908   7.042   4.652   7.415 -0.1003 -0.2741  0.6572
  137OSM   H10S14909   7.145   4.693   7.416 -0.4575  0.6539  0.2719
  137OSM   H10T14910   7.047   4.541   7.414  0.3456 -0.2820  2.0713
  137OSM   C11S14911   6.970   4.686   7.545 -0.3081 -0.0214 -0.5198
  137OSM   H11S14912   6.875   4.631   7.563 -0.7606  0.7948 -0.3368
  137OSM   H11T14913   6.931   4.790   7.534  1.0050  0.2517 -3.4255
  137OSM   C12S14914   7.055   4.682   7.672  0.5743  0.0270 -0.0196
  137OSM   H12S14915   7.138   4.754   7.684 -1.4377  2.2693  1.1973
  137OSM   H12T14916   7.111   4.586   7.666  1.5802  0.6403 -0.6915
  137OSM   C13S14917   6.971   4.681   7.798  0.4172 -0.2891 -0.1321
  137OSM   H13S14918   6.877   4.623   7.782 -0.4752  1.8155 -3.3469
  137OSM   H13T14919   6.938   4.784   7.823  0.7480 -0.1407 -0.3045
  137OSM   C14S14920   7.046   4.628   7.920  0.4785 -0.6746  0.1241
  137OSM   H14S14921   7.140   4.686   7.934 -1.1191  1.6837  2.0444
  137OSM   H14T14922   7.083   4.526   7.897 -2.3072 -1.8702  0.5919
  137OSM   C15S14923   6.972   4.618   8.043  0.5903 -0.5693  0.1855
  137OSM   H15S14924   7.024   4.546   8.109 -0.2419 -2.3751 -1.0272
  137OSM   H15T14925   6.870   4.582   8.018  0.7319 -0.4610 -0.5892
  137OSM   C16S14926   6.951   4.758   8.113 -0.3478 -0.1423 -0.4251
  137OSM   H16S14927   6.875   4.821   8.063 -0.6008  3.3248  3.6740
  137OSM   H16T14928   7.051   4.808   8.108  0.3947 -1.5567 -0.1917
  137OSM   C17S14929   6.895   4.750   8.254 -0.2895 -0.2800 -0.3260
  137OSM   H17S14930   6.972   4.694   8.312  0.2215  1.3728  0.6639
  137OSM   H17T14931   6.801   4.692   8.248 -1.6538  1.9762 -2.9893
  137OSM   C18S14932   6.872   4.885   8.314  0.0420 -0.2550  0.7373
  137OSM   H18S14933   6.801   4.877   8.399 -2.4555  1.7409 -1.0127
  137OSM   H18T14934   6.823   4.957   8.245 -0.0712 -0.4123  0.6534
  137OSM   H18U14935   6.967   4.926   8.355 -1.1807  0.3842  3.1186
  137OSM    C1F14936   6.768   5.368   6.886  0.3771 -0.0444  0.5339
  137OSM     OF14937   6.661   5.426   6.912  0.3576 -0.1971  0.1290
  137OSM    C2F14938   6.900   5.420   6.921 -0.0468 -0.1947 -0.3413
  137OSM    H2F14939   6.931   5.499   6.849  0.4318 -0.4652 -0.4410
  137OSM    H2G14940   6.974   5.337   6.917 -1.3792 -1.4787  0.6384
  137OSM    C3F14941   6.898   5.487   7.059  0.2500 -0.3370  0.7882
  137OSM    H3F14942   6.808   5.552   7.068  0.3635 -0.1222  0.3629
  137OSM    H3G14943   6.991   5.545   7.074  2.9332 -3.7839 -1.0651
  137OSM    C4F14944   6.905   5.386   7.176 -0.2022  0.0132 -0.0677
  137OSM    H4F14945   6.812   5.325   7.166 -0.3818 -0.0075  1.4531
  137OSM    H4G14946   6.887   5.432   7.276  2.0531  0.0497  0.3681
  137OSM    C5F14947   7.041   5.320   7.182 -0.3498  0.3438  0.6204
  137OSM    H5F14948   7.113   5.405   7.172  0.5880 -0.5974 -1.1285
  137OSM    H5G14949   7.050   5.252   7.094 -2.3881  0.7355  0.0617
  137OSM    C6F14950   7.066   5.243   7.317  0.3645 -0.6702  0.0776
  137OSM    H6F14951   7.160   5.186   7.305  1.4136  0.8469  0.8252
  137OSM    H6G14952   6.984   5.170   7.336 -1.3673  1.3059  0.6055
  137OSM    C7F14953   7.080   5.334   7.448  0.9163  0.5236  0.1136
  137OSM    H7F14954   6.991   5.394   7.474 -1.8542 -2.9176 -0.6803
  137OSM    H7G14955   7.170   5.396   7.429  0.8519  0.0128 -2.1832
  137OSM    C8F14956   7.114   5.239   7.566  0.4555  0.2273 -0.5711
  137OSM    H8F14957   7.139   5.315   7.644  0.4771 -0.2851 -0.0753
  137OSM    H8G14958   7.206   5.193   7.525 -0.4844 -4.3546  1.8031
  137OSM    C9F14959   7.014   5.142   7.616 -0.1815  0.5890 -0.1090
  137OSM    H9F14960   6.961   5.087   7.537 -1.2809  0.4319  0.7034
  137OSM   C10F14961   6.988   5.101   7.740 -0.5036 -0.3199 -0.4866
  137OSM   H10F14962   6.906   5.029   7.756 -1.9701  0.9941 -1.7777
  137OSM   C11F14963   7.067   5.146   7.857 -0.2783 -0.3308 -0.3840
  137OSM   H11F14964   7.004   5.209   7.923 -0.6167 -1.3702  0.3157
  137OSM   H11G14965   7.161   5.200   7.832 -0.2719  0.3494  1.0456
  137OSM   C12F14966   7.109   5.029   7.962  0.1511 -0.1922  0.1011
  137OSM   H12F14967   7.177   4.952   7.919  1.0644  0.1207  0.9617
  137OSM   H12G14968   7.017   4.967   7.970 -0.3679  0.6491  0.9585
  137OSM   C13F14969   7.176   5.082   8.079 -0.1610 -0.4246  0.1230
  137OSM   H13F14970   7.251   5.161   8.059 -1.0425  0.7561  1.3606
  137OSM   H13G14971   7.232   4.999   8.127 -0.2050 -0.5486 -0.0406
  137OSM   C14F14972   7.083   5.154   8.176  0.0066  0.4122 -0.1856
  137OSM   H14F14973   6.977   5.122   8.184 -0.0033  0.5595  0.3135
  137OSM   H14G14974   7.070   5.258   8.138  0.0171  1.0134  1.3880
  137OSM   C15F14975   7.146   5.161   8.318  0.2581 -0.2918 -0.5845
  137OSM   H15F14976   7.255   5.182   8.311 -0.1240  1.7611 -1.2310
  137OSM   H15G14977   7.123   5.076   8.385  0.4042  0.4229  0.3953
  137OSM   C16F14978   7.084   5.292   8.384  0.6553 -0.3445 -0.3876
  137OSM   H16F14979   6.979   5.257   8.388  0.6469 -0.2038  0.7755
  137OSM   H16G14980   7.086   5.382   8.318 -0.9908  1.4335  1.8176
  137OSM   C17F14981   7.122   5.314   8.531  0.2885  0.0991  0.8993
  137OSM   H17F14982   7.101   5.226   8.595  0.3227  0.2249  1.0848
  137OSM   H17G14983   7.053   5.390   8.572 -0.1673 -0.4623  1.1787
  137OSM   C18F14984   7.267   5.363   8.558  0.5165 -0.6428 -0.2769
  137OSM   H18F14985   7.262   5.468   8.523  0.3734 -0.7598 -0.6135
  137OSM   H18G14986   7.348   5.308   8.504  2.1058  0.7035  0.6293
  137OSM   H18H14987   7.291   5.365   8.667  0.8683  0.4849 -0.3603
  138OSM      N14988   2.435   1.163   6.070 -0.0747 -0.2996  0.4473
  138OSM    C1514989   2.491   1.301   6.076  1.0113  0.1665 -0.3389
  138OSM   H15A14990   2.553   1.320   5.990  0.1385 -2.3543 -1.6250
  138OSM   H15B14991   2.559   1.298   6.160 -0.8170  1.0431  1.2823
  138OSM   H15C14992   2.405   1.367   6.084 -0.3919 -1.6348  0.2789
  138OSM    C1414993   2.364   1.141   5.936 -0.8369  0.1593  0.5620
  138OSM   H14A14994   2.436   1.114   5.860  0.4304  0.3421  1.6550
  138OSM   H14B14995   2.319   1.234   5.905 -1.1308 -0.0276  0.4248
  138OSM   H14C14996   2.284   1.070   5.950 -1.6737  1.2902  1.7250
  138OSM    C1314997   2.551   1.065   6.075 -0.1670 -0.3861 -0.0397
  138OSM   H13A14998   2.619   1.067   5.991  1.0400 -1.5150  0.8716
  138OSM   H13B14999   2.516   0.964   6.061 -2.9364  0.2651  1.6162
  138OSM   H13C15000   2.604   1.081   6.167 -0.9722  0.9197  0.2183
  138OSM    C1215001   2.337   1.145   6.186  0.0859  0.5541  0.3210
  138OSM   H12A15002   2.253   1.213   6.183 -0.8427 -0.5491  1.0271
  138OSM   H12B15003   2.393   1.185   6.269  1.2387 -0.7169  0.1991
  138OSM    C1115004   2.289   1.001   6.212  0.3448 -0.0152  0.6311
  138OSM   H11A15005   2.240   0.996   6.312 -1.0680  1.0090  0.0276
  138OSM   H11B15006   2.377   0.934   6.226  0.3775 -0.1033  0.0364
  138OSM      P15007   2.057   0.982   6.102 -0.2755  0.1145  0.2953
  138OSM    O1315008   2.053   1.128   6.125 -0.2833  0.8905 -0.2447
  138OSM    O1415009   1.993   0.935   5.979  0.4240 -0.0419 -0.2423
  138OSM    O1115010   2.003   0.903   6.229 -0.7580  0.5912  0.5368
  138OSM    O1215011   2.211   0.947   6.103  0.5449 -0.1912  0.3280
  138OSM    C1S15012   2.021   0.760   6.249  0.2910  0.0086 -0.8343
  138OSM    H1S15013   2.125   0.737   6.218 -0.3523 -0.0258 -3.1596
  138OSM    H1T15014   1.945   0.697   6.198  0.1297 -0.4956  0.0045
  138OSM     NF15015   2.058   0.573   6.412 -0.9487  0.2901 -0.2015
  138OSM    HNF15016   2.007   0.492   6.385 -1.2480  0.7772 -1.1479
  138OSM    C2S15017   2.003   0.715   6.399 -0.0222  0.4983 -0.2135
  138OSM    H2S15018   2.052   0.784   6.472  1.5259  0.3252 -1.0519
  138OSM    C3S15019   1.846   0.725   6.421  0.2039 -0.5232  0.3246
  138OSM    H3S15020   1.800   0.660   6.343  0.4575 -1.9338  1.3131
  138OSM     O315021   1.798   0.859   6.404 -0.1622 -0.0201  0.2258
  138OSM    HO315022   1.859   0.900   6.343 -0.3980  2.1793  1.3615
  138OSM    C4S15023   1.810   0.679   6.561 -0.8048  0.0498 -0.5913
  138OSM    H4S15024   1.839   0.749   6.640 -0.3281 -0.3607 -0.3969
  138OSM    C5S15025   1.746   0.564   6.585  0.3466  0.0837 -0.3375
  138OSM    H5S15026   1.735   0.502   6.495  2.6192 -1.9026  0.6418
  138OSM    C6S15027   1.712   0.486   6.706  0.3490 -0.2901 -0.1779
  138OSM    H6S15028   1.755   0.385   6.688  1.3212 -0.0089  0.4854
  138OSM    H6T15029   1.603   0.484   6.729  0.5052  0.0905  0.6702
  138OSM    C7S15030   1.779   0.548   6.839 -0.0485  0.1574 -0.7311
  138OSM    H7S15031   1.757   0.656   6.852  1.0226  0.2464  0.6557
  138OSM    H7T15032   1.890   0.546   6.831  0.1065  0.6109  0.9974
  138OSM    C8S15033   1.747   0.483   6.972 -0.3728  0.5578 -0.3127
  138OSM    H8S15034   1.638   0.490   6.993 -0.8063  2.0028 -2.6255
  138OSM    H8T15035   1.804   0.546   7.043  1.6310  2.1630 -3.1323
  138OSM    C9S15036   1.795   0.339   6.990  0.1898 -0.1125  0.0382
  138OSM    H9S15037   1.894   0.317   6.946 -0.1162  0.9580 -1.2389
  138OSM    H9T15038   1.734   0.263   6.937  1.9821 -3.0394  1.8702
  138OSM   C10S15039   1.782   0.284   7.135  0.8180  0.1135  0.5788
  138OSM   H10S15040   1.798   0.175   7.120 -2.0382 -0.2492 -0.4540
  138OSM   H10T15041   1.674   0.296   7.158  0.5207 -1.9787  0.4451
  138OSM   C11S15042   1.879   0.349   7.235 -0.7444  0.3630 -0.8982
  138OSM   H11S15043   1.895   0.453   7.201 -1.9659  0.7194 -0.4344
  138OSM   H11T15044   1.969   0.290   7.206 -1.1184 -0.0993 -1.1384
  138OSM   C12S15045   1.846   0.331   7.384  0.3986 -0.4496 -0.3786
  138OSM   H12S15046   1.761   0.395   7.413 -0.8024 -2.1561  0.0489
  138OSM   H12T15047   1.932   0.359   7.449  0.7861  0.7401 -1.3793
  138OSM   C13S15048   1.814   0.182   7.410 -0.4976  0.9802 -0.1311
  138OSM   H13S15049   1.908   0.126   7.392 -1.6588 -0.8722 -0.6477
  138OSM   H13T15050   1.747   0.144   7.330  0.7209  0.9901 -1.2100
  138OSM   C14S15051   1.750   0.134   7.543  0.7387  0.0975  0.3396
  138OSM   H14S15052   1.713   0.030   7.541 -0.7050  0.5907  0.6653
  138OSM   H14T15053   1.666   0.202   7.568 -1.3175 -1.3307 -2.2521
  138OSM   C15S15054   1.848   0.137   7.659 -0.1992 -0.1150 -0.2628
  138OSM   H15S15055   1.901   0.234   7.649  1.4671 -1.0425 -0.9669
  138OSM   H15T15056   1.926   0.061   7.636  1.0197  0.9660  0.1579
  138OSM   C16S15057   1.778   0.116   7.791 -0.1397 -0.3014  0.6117
  138OSM   H16S15058   1.717   0.023   7.796 -1.1214  0.2461 -0.7319
  138OSM   H16T15059   1.703   0.197   7.801  0.5910  0.7438 -1.7595
  138OSM   C17S15060   1.860   0.120   7.920  0.2253 -0.0118  0.4685
  138OSM   H17S15061   1.792   0.124   8.008  1.9116 -1.1107  1.8743
  138OSM   H17T15062   1.909   0.220   7.912 -0.3830  0.2042 -0.8798
  138OSM   C18S15063   1.955   0.003   7.926  0.3875  0.3017 -0.2863
  138OSM   H18S15064   2.010   0.003   8.022 -3.1948 -0.6798  1.9847
  138OSM   H18T15065   2.031   0.002   7.846  0.1610 -1.8030 -0.5248
  138OSM   H18U15066   1.907  -0.097   7.925  1.2753 -0.1409  0.0192
  138OSM    C1F15067   2.184   0.554   6.438 -0.1749  0.3079 -0.8686
  138OSM     OF15068   2.267   0.641   6.453  0.2140 -0.4688 -0.3493
  138OSM    C2F15069   2.228   0.413   6.462  0.6021  0.2430 -0.2993
  138OSM    H2F15070   2.328   0.414   6.512  0.4356 -1.8915  0.1503
  138OSM    H2G15071   2.251   0.368   6.364  0.8423  1.4808 -0.8335
  138OSM    C3F15072   2.128   0.327   6.543  0.1193 -0.1437 -0.6661
  138OSM    H3F15073   2.158   0.220   6.550  1.2345  0.1018 -1.3240
  138OSM    H3G15074   2.038   0.333   6.479 -0.1293  2.2178 -0.1755
  138OSM    C4F15075   2.089   0.381   6.685 -0.5776 -0.2792 -0.2762
  138OSM    H4F15076   2.029   0.301   6.734  0.3318 -0.1421  1.0905
  138OSM    H4G15077   2.034   0.477   6.672 -1.7316 -0.9680 -0.6792
  138OSM    C5F15078   2.208   0.408   6.775  0.1512  0.2212 -0.1792
  138OSM    H5F15079   2.264   0.501   6.754  0.7457  0.1763  1.0953
  138OSM    H5G15080   2.271   0.317   6.771  1.3670  1.0709 -1.0469
  138OSM    C6F15081   2.166   0.420   6.921  0.0599  0.5067  0.8072
  138OSM    H6F15082   2.133   0.320   6.955  2.3515 -0.4558  0.4036
  138OSM    H6G15083   2.082   0.493   6.928  0.6475  1.3812 -0.7597
  138OSM    C7F15084   2.282   0.459   7.019 -0.7087  0.7084  0.1857
  138OSM    H7F15085   2.287   0.570   7.017  0.5616  0.7503  2.4600
  138OSM    H7G15086   2.378   0.431   6.971 -1.6405  0.5108 -1.6561
  138OSM    C8F15087   2.243   0.419   7.162  0.8046 -0.0819  0.5568
  138OSM    H8F15088   2.232   0.308   7.167  0.3533  0.0157  2.3149
  138OSM    H8G15089   2.142   0.460   7.177  0.7527  1.0084 -2.2011
  138OSM    C9F15090   2.339   0.483   7.259 -0.1764 -0.2200  0.0786
  138OSM    H9F15091   2.400   0.569   7.227 -0.0655 -0.0900  0.6387
  138OSM   C10F15092   2.367   0.436   7.380 -0.4528 -0.1436 -0.0647
  138OSM   H10F15093   2.416   0.500   7.455  2.4056 -0.7150 -1.3333
  138OSM   C11F15094   2.309   0.318   7.449 -0.2421 -0.6916 -0.0316
  138OSM   H11F15095   2.392   0.244   7.455  0.4965  0.2387  2.1449
  138OSM   H11G15096   2.230   0.266   7.391  0.9744 -2.9974  0.2643
  138OSM   C12F15097   2.261   0.357   7.590  0.0538  0.0092  0.5076
  138OSM   H12F15098   2.167   0.415   7.578  1.9784  3.0612 -1.3208
  138OSM   H12G15099   2.328   0.422   7.650 -1.5417 -2.1929  5.1428
  138OSM   C13F15100   2.233   0.239   7.678  0.2546  0.2491 -0.3301
  138OSM   H13F15101   2.167   0.168   7.624  0.5139  0.0120 -0.3376
  138OSM   H13G15102   2.172   0.278   7.762 -1.0497  0.4521 -1.3296
  138OSM   C14F15103   2.360   0.172   7.719 -0.2590  0.0961 -0.0317
  138OSM   H14F15104   2.429   0.255   7.749  0.9422 -0.3177 -1.5118
  138OSM   H14G15105   2.402   0.122   7.629 -2.5149  1.0663 -1.7222
  138OSM   C15F15106   2.339   0.077   7.844  0.9082 -0.8989  0.0085
  138OSM   H15F15107   2.244   0.019   7.834  0.6931 -0.3198 -1.6179
  138OSM   H15G15108   2.339   0.147   7.931  0.3408 -0.6575 -0.1725
  138OSM   C16F15109   2.451  -0.023   7.860 -0.4749 -0.6232  0.2524
  138OSM   H16F15110   2.450  -0.084   7.767 -0.3022  0.4297 -0.4633
  138OSM   H16G15111   2.432  -0.080   7.953  1.0441  0.5712  1.3584
  138OSM   C17F15112   2.582   0.054   7.884  0.5015  1.1968  0.7102
  138OSM   H17F15113   2.564   0.132   7.960 -1.5132 -0.9832  2.6286
  138OSM   H17G15114   2.616   0.097   7.787  1.2133 -0.4109  0.2195
  138OSM   C18F15115   2.695  -0.039   7.929 -1.1911  0.3092  0.3587
  138OSM   H18F15116   2.666  -0.077   8.030  1.2357  1.9410  1.7866
  138OSM   H18G15117   2.785   0.026   7.943 -1.6151  0.7743  0.9812
  138OSM   H18H15118   2.728  -0.125   7.867  1.1641 -0.3932  2.3678
  139OSM      N15119   0.210   0.573   5.940  0.5736 -0.1225 -0.0701
  139OSM    C1515120   0.105   0.510   5.850 -0.6557 -0.1689  0.2732
  139OSM   H15A15121   0.071   0.413   5.884 -1.5182 -1.0112 -2.6885
  139OSM   H15B15122   0.159   0.489   5.759  0.2110  0.4938  0.6254
  139OSM   H15C15123   0.016   0.570   5.837  1.2031  2.8229  0.4490
  139OSM    C1415124   0.331   0.500   5.913 -0.2113 -0.2539  0.0913
  139OSM   H14A15125   0.394   0.518   5.999  1.2700  0.3480 -1.0784
  139OSM   H14B15126   0.378   0.529   5.821  1.1288 -2.8528 -0.1351
  139OSM   H14C15127   0.315   0.393   5.911 -1.7448 -0.0638  0.7671
  139OSM    C1315128   0.232   0.720   5.902 -0.2671  0.6706  0.0178
  139OSM   H13A15129   0.153   0.788   5.933 -1.4706 -0.3701 -0.6727
  139OSM   H13B15130   0.228   0.733   5.795 -1.5985  0.0782 -0.0211
  139OSM   H13C15131   0.325   0.764   5.934  0.2401  0.1725 -0.7491
  139OSM    C1215132   0.162   0.556   6.080  0.4244  0.9439 -0.3177
  139OSM   H12A15133   0.144   0.451   6.101  0.0974  1.5413  2.9603
  139OSM   H12B15134   0.066   0.605   6.093  1.1143  2.3789 -0.4667
  139OSM    C1115135   0.248   0.606   6.193 -0.5217 -0.4950  0.2202
  139OSM   H11A15136   0.184   0.617   6.282 -0.9191 -0.0786 -0.1143
  139OSM   H11B15137   0.271   0.711   6.165  0.8648 -0.0289  2.7896
  139OSM      P15138   0.364   0.382   6.276  0.1016 -0.3098 -0.0666
  139OSM    O1315139   0.261   0.302   6.215 -0.0008  0.0504  0.2527
  139OSM    O1415140   0.504   0.326   6.274 -0.6254  0.0009  0.0298
  139OSM    O1115141   0.324   0.399   6.423 -0.5864 -0.2739  0.0905
  139OSM    O1215142   0.365   0.526   6.215  0.1771 -0.6124  0.0031
  139OSM    C1S15143   0.366   0.501   6.509 -0.1442 -0.0735  0.2219
  139OSM    H1S15144   0.393   0.598   6.461 -0.0097 -0.0297  0.3858
  139OSM    H1T15145   0.457   0.465   6.560  0.5157 -0.5359 -1.2231
  139OSM     NF15146   0.306   0.669   6.695 -0.1087 -0.2346  0.2305
  139OSM    HNF15147   0.325   0.647   6.790  1.4509  0.4674  0.1149
  139OSM    C2S15148   0.257   0.559   6.613 -0.0297  0.5188  0.1586
  139OSM    H2S15149   0.177   0.597   6.545 -1.3152  1.4249  2.0799
  139OSM    C3S15150   0.200   0.437   6.699  0.2291 -0.4345 -0.5408
  139OSM    H3S15151   0.280   0.398   6.765 -0.9729  0.0692  1.2759
  139OSM     O315152   0.159   0.328   6.609 -0.8916 -0.4885 -0.1666
  139OSM    HO315153   0.235   0.336   6.550 -0.4575  0.4737  0.4951
  139OSM    C4S15154   0.093   0.485   6.799  1.1005  0.1747  0.2080
  139OSM    H4S15155   0.134   0.515   6.897 -0.3658 -0.7503  1.1414
  139OSM    C5S15156  -0.043   0.485   6.786 -0.2898 -0.7145 -0.2581
  139OSM    H5S15157  -0.088   0.452   6.691  1.7620  0.6630 -1.8290
  139OSM    C6S15158  -0.145   0.541   6.883 -0.1579  0.2587 -0.5914
  139OSM    H6S15159  -0.226   0.466   6.880  0.6763 -0.8533  1.6686
  139OSM    H6T15160  -0.182   0.642   6.858  1.9168  1.2535  0.0966
  139OSM    C7S15161  -0.085   0.558   7.032 -0.0776 -0.3557  0.4461
  139OSM    H7S15162   0.002   0.627   7.025  1.3198 -2.0086  0.8383
  139OSM    H7T15163  -0.044   0.461   7.065 -0.4882 -0.6703  0.0359
  139OSM    C8S15164  -0.195   0.609   7.128 -0.3282 -0.3793 -0.4199
  139OSM    H8S15165  -0.285   0.545   7.118 -0.7155  0.4044 -2.2802
  139OSM    H8T15166  -0.229   0.708   7.090 -1.0383 -0.5479 -0.2466
  139OSM    C9S15167  -0.132   0.625   7.267 -0.1049 -1.0129 -0.7570
  139OSM    H9S15168  -0.049   0.698   7.260 -2.0036  1.1956 -1.7888
  139OSM    H9T15169  -0.101   0.524   7.299 -1.1846 -0.6019  1.7820
  139OSM   C10S15170  -0.223   0.678   7.379 -0.3325 -0.0586  0.5129
  139OSM   H10S15171  -0.316   0.617   7.377 -0.7175  0.4082 -2.8310
  139OSM   H10T15172  -0.250   0.783   7.356  1.0985 -0.0968 -1.6094
  139OSM   C11S15173  -0.164   0.655   7.516  0.1979 -0.4305 -1.0196
  139OSM   H11S15174  -0.069   0.712   7.507 -0.3975  0.6015 -0.9277
  139OSM   H11T15175  -0.151   0.545   7.519 -3.2155 -0.9222  1.2146
  139OSM   C12S15176  -0.238   0.700   7.641 -1.4103 -1.0929  0.0897
  139OSM   H12S15177  -0.345   0.673   7.641 -2.1224  1.4522  0.7564
  139OSM   H12T15178  -0.236   0.811   7.649 -2.3360 -1.1316  1.0897
  139OSM   C13S15179  -0.171   0.640   7.768  0.1630  0.3102  0.2575
  139OSM   H13S15180  -0.061   0.653   7.769  0.3142 -0.2543 -1.9211
  139OSM   H13T15181  -0.181   0.530   7.760 -1.5034  0.4028  0.7344
  139OSM   C14S15182  -0.241   0.695   7.892 -0.5590  0.2134  1.0646
  139OSM   H14S15183  -0.348   0.669   7.879 -0.4374  0.1163  0.1700
  139OSM   H14T15184  -0.228   0.805   7.892  0.1596  0.1354  1.9237
  139OSM   C15S15185  -0.184   0.626   8.023 -0.5869  0.3931  0.5326
  139OSM   H15S15186  -0.074   0.639   8.029 -0.3588 -1.6357  1.2898
  139OSM   H15T15187  -0.208   0.518   8.017  1.2149 -0.0080 -0.1980
  139OSM   C16S15188  -0.259   0.673   8.148 -0.1808 -0.1832  0.6543
  139OSM   H16S15189  -0.247   0.784   8.144  1.3344 -0.3136  0.9193
  139OSM   H16T15190  -0.201   0.628   8.232  0.1361 -3.7254 -1.2570
  139OSM   C17S15191  -0.400   0.624   8.169 -0.1563  0.3872  0.2622
  139OSM   H17S15192  -0.393   0.513   8.163  1.8871  0.4776  0.2768
  139OSM   H17T15193  -0.472   0.654   8.090  0.3224  1.0720  0.0787
  139OSM   C18S15194  -0.447   0.656   8.319 -0.3448 -0.2933  0.4380
  139OSM   H18S15195  -0.534   0.588   8.328 -0.4004 -0.5161 -1.4162
  139OSM   H18T15196  -0.470   0.762   8.344 -0.4356 -0.0309 -0.6720
  139OSM   H18U15197  -0.370   0.620   8.390  0.3029 -0.4661 -0.3356
  139OSM    C1F15198   0.336   0.794   6.653  0.4230  0.3571  0.1201
  139OSM     OF15199   0.308   0.827   6.539 -0.0599 -0.3003  0.6328
  139OSM    C2F15200   0.394   0.885   6.754 -0.6061 -0.3146  0.4184
  139OSM    H2F15201   0.504   0.892   6.742 -0.7481  0.9969 -0.2532
  139OSM    H2G15202   0.372   0.848   6.856 -1.0837 -3.7937 -0.8100
  139OSM    C3F15203   0.323   1.025   6.728  0.7263  0.4074 -0.2043
  139OSM    H3F15204   0.216   0.994   6.729  0.7948  0.0804  1.5643
  139OSM    H3G15205   0.357   1.049   6.626  3.3665 -2.7715 -0.2336
  139OSM    C4F15206   0.357   1.132   6.826 -0.5550  0.3222  0.4756
  139OSM    H4F15207   0.301   1.226   6.807  0.6117  1.0718  0.6992
  139OSM    H4G15208   0.464   1.156   6.813  0.0621 -1.3055  2.0274
  139OSM    C5F15209   0.328   1.105   6.973  0.2076  0.2014  0.4326
  139OSM    H5F15210   0.399   1.035   7.022 -0.1057 -1.6238 -1.6107
  139OSM    H5G15211   0.229   1.057   6.987  0.6915 -1.0266 -0.2418
  139OSM    C6F15212   0.350   1.235   7.058  0.0004  0.4325  0.0993
  139OSM    H6F15213   0.266   1.308   7.051 -0.7132 -0.3689  0.0809
  139OSM    H6G15214   0.448   1.278   7.029  0.9863 -1.3150  0.6588
  139OSM    C7F15215   0.362   1.203   7.206 -0.2491 -0.7992 -0.0713
  139OSM    H7F15216   0.448   1.134   7.212  0.0932 -0.9846 -4.2643
  139OSM    H7G15217   0.268   1.155   7.241 -0.3297 -1.3121 -0.9593
  139OSM    C8F15218   0.391   1.334   7.289 -0.7157  0.0284 -0.0858
  139OSM    H8F15219   0.343   1.317   7.388  1.5106  1.5785  1.3314
  139OSM    H8G15220   0.360   1.431   7.246 -0.4945  0.4111  0.6150
  139OSM    C9F15221   0.544   1.352   7.322  0.2107  0.3920  0.9507
  139OSM    H9F15222   0.606   1.392   7.240  1.9557 -1.5082  1.2594
  139OSM   C10F15223   0.601   1.319   7.442  0.6115  0.0978  0.5915
  139OSM   H10F15224   0.709   1.338   7.455  0.6037  2.2539 -1.6663
  139OSM   C11F15225   0.533   1.250   7.566 -0.4271  0.4211  0.1698
  139OSM   H11F15226   0.601   1.170   7.603  2.1028  2.9893  1.4736
  139OSM   H11G15227   0.445   1.197   7.526  0.2541  0.2165 -1.1078
  139OSM   C12F15228   0.479   1.337   7.682 -0.3032  0.0028  0.3486
  139OSM   H12F15229   0.395   1.283   7.730  0.7097 -1.1301  0.9198
  139OSM   H12G15230   0.442   1.433   7.640 -1.1302 -0.9146 -1.1254
  139OSM   C13F15231   0.596   1.372   7.791 -0.4210  0.4554 -0.0756
  139OSM   H13F15232   0.671   1.434   7.738 -1.0420  0.9600 -0.3799
  139OSM   H13G15233   0.629   1.280   7.843 -0.0690  0.2956 -0.5726
  139OSM   C14F15234   0.551   1.459   7.903 -0.4605 -1.1596 -0.8771
  139OSM   H14F15235   0.556   1.564   7.868 -2.7364 -0.5131  0.5111
  139OSM   H14G15236   0.630   1.460   7.982  0.1985  0.0366 -1.5231
  139OSM   C15F15237   0.416   1.435   7.958  0.6162 -0.1217  0.2580
  139OSM   H15F15238   0.353   1.449   7.867  3.1803 -0.5372 -1.7241
  139OSM   H15G15239   0.385   1.514   8.030 -0.7970  1.7449 -2.2259
  139OSM   C16F15240   0.395   1.295   8.023  0.0442  0.2266  0.1143
  139OSM   H16F15241   0.429   1.218   7.951 -1.5487  0.0917 -0.5479
  139OSM   H16G15242   0.287   1.277   8.040 -0.5621  2.8704 -0.4636
  139OSM   C17F15243   0.468   1.293   8.156 -0.6546  0.4594 -0.0263
  139OSM   H17F15244   0.442   1.382   8.218 -1.3258 -1.2538  2.2834
  139OSM   H17G15245   0.572   1.320   8.127  0.0053  0.8695  2.5214
  139OSM   C18F15246   0.462   1.171   8.234 -0.6498  0.5145 -0.0091
  139OSM   H18F15247   0.514   1.098   8.169  0.1346  0.2513  0.8852
  139OSM   H18G15248   0.372   1.113   8.261  1.4554 -3.0682  0.0069
  139OSM   H18H15249   0.522   1.180   8.328 -0.2260 -2.0163  0.0254
  140OSM      N15250   1.295   3.759   5.900  0.2674 -0.3626  0.4271
  140OSM    C1515251   1.362   3.884   5.930  0.2187 -0.0528 -0.0355
  140OSM   H15A15252   1.380   3.956   5.852  0.4985 -0.2409 -0.1468
  140OSM   H15B15253   1.462   3.857   5.962 -1.3681 -3.9411  2.4173
  140OSM   H15C15254   1.323   3.928   6.020 -0.1554  0.0778 -0.2601
  140OSM    C1415255   1.147   3.797   5.884  0.2140  0.5746 -0.0237
  140OSM   H14A15256   1.127   3.853   5.794 -0.5833  2.2857  1.1681
  140OSM   H14B15257   1.117   3.870   5.958  0.2662 -0.3606  0.9463
  140OSM   H14C15258   1.080   3.712   5.884 -2.1411  2.2985 -1.4795
  140OSM    C1315259   1.346   3.705   5.768 -0.0972 -0.4735 -0.3403
  140OSM   H13A15260   1.313   3.769   5.687 -0.2775  0.9652  0.8384
  140OSM   H13B15261   1.305   3.607   5.745 -0.5177 -0.1071 -1.2045
  140OSM   H13C15262   1.453   3.695   5.761 -0.1026 -1.1654  0.3893
  140OSM    C1215263   1.309   3.651   6.011  0.4423  0.1871 -0.0911
  140OSM   H12A15264   1.413   3.621   6.022  1.6064  2.9907 -2.2711
  140OSM   H12B15265   1.263   3.563   5.969  2.5667 -0.2268 -1.7142
  140OSM    C1115266   1.255   3.684   6.151 -0.5627 -0.3882  0.0907
  140OSM   H11A15267   1.266   3.593   6.214  1.6816 -0.7104 -0.6557
  140OSM   H11B15268   1.147   3.709   6.149 -1.0073 -2.1520 -2.0111
  140OSM      P15269   1.427   3.778   6.323 -0.4124 -0.3625 -0.0727
  140OSM    O1315270   1.528   3.679   6.280 -0.9007 -0.4809 -1.0009
  140OSM    O1415271   1.470   3.918   6.362  0.1256 -0.3067  0.4650
  140OSM    O1115272   1.334   3.726   6.444  0.0517 -0.0873  0.1108
  140OSM    O1215273   1.324   3.799   6.204 -0.0706 -0.0924  0.4606
  140OSM    C1S15274   1.401   3.650   6.550 -0.4034 -0.5632 -0.1294
  140OSM    H1S15275   1.493   3.697   6.590 -0.9588  0.4258  0.0309
  140OSM    H1T15276   1.428   3.550   6.509 -1.4409 -0.2043 -1.7953
  140OSM     NF15277   1.395   3.583   6.789 -0.7525 -0.1932 -0.0311
  140OSM    HNF15278   1.380   3.497   6.837 -1.0438 -0.8656 -1.2676
  140OSM    C2S15279   1.310   3.632   6.675  0.6861  1.0495 -0.1289
  140OSM    H2S15280   1.269   3.733   6.694 -1.2989  0.6798 -2.0099
  140OSM    C3S15281   1.168   3.557   6.644  0.7462  0.5185 -0.0412
  140OSM    H3S15282   1.187   3.450   6.622 -1.4814  0.0686 -0.0240
  140OSM     O315283   1.091   3.598   6.527 -0.0556 -0.1595  0.0800
  140OSM    HO315284   1.157   3.656   6.487  2.0069 -0.7262  2.4601
  140OSM    C4S15285   1.074   3.562   6.762 -0.3252  0.6005  0.5298
  140OSM    H4S15286   1.097   3.501   6.851 -0.9882  1.2389  1.1515
  140OSM    C5S15287   0.976   3.643   6.789 -0.1982  0.4005  0.3612
  140OSM    H5S15288   0.958   3.732   6.727  0.8957 -0.3374 -1.0811
  140OSM    C6S15289   0.900   3.638   6.925  0.2355  0.3271 -0.0612
  140OSM    H6S15290   0.789   3.633   6.911  0.1817  1.2035  0.0119
  140OSM    H6T15291   0.903   3.740   6.969 -0.0943  0.4376 -0.2855
  140OSM    C7S15292   0.933   3.533   7.033 -0.6823  0.0229  0.7702
  140OSM    H7S15293   1.040   3.540   7.064 -0.6437 -1.3476  0.9914
  140OSM    H7T15294   0.907   3.431   6.998  0.2260  0.1085 -0.2195
  140OSM    C8S15295   0.840   3.545   7.155 -0.4091 -0.8017  0.0274
  140OSM    H8S15296   0.738   3.564   7.116 -0.7693  0.5607  1.5220
  140OSM    H8T15297   0.878   3.633   7.212 -0.3954 -0.6525 -0.2111
  140OSM    C9S15298   0.847   3.426   7.256  0.0512 -0.2558  0.3857
  140OSM    H9S15299   0.951   3.388   7.268 -0.1815 -0.9241  0.3104
  140OSM    H9T15300   0.788   3.351   7.200  0.1692  0.9279 -1.3872
  140OSM   C10S15301   0.792   3.466   7.388  0.3526 -0.0659 -0.7498
  140OSM   H10S15302   0.706   3.532   7.365  1.5453  1.7251 -0.2893
  140OSM   H10T15303   0.852   3.543   7.441 -1.4635  1.8094 -1.3040
  140OSM   C11S15304   0.766   3.349   7.483  0.7439 -0.4573 -0.5253
  140OSM   H11S15305   0.857   3.300   7.524 -0.3764 -2.1148  0.0936
  140OSM   H11T15306   0.722   3.262   7.430  1.9724 -1.4778  0.0923
  140OSM   C12S15307   0.665   3.386   7.600  0.3736  0.5983 -0.1611
  140OSM   H12S15308   0.569   3.373   7.546 -0.4372 -1.9299  1.7047
  140OSM   H12T15309   0.667   3.494   7.626 -0.9754 -0.1131  3.3561
  140OSM   C13S15310   0.668   3.302   7.732  0.1868  0.1305 -0.5116
  140OSM   H13S15311   0.776   3.306   7.756  0.8282 -1.2276 -2.8359
  140OSM   H13T15312   0.643   3.198   7.701 -3.0873  0.6051  0.1285
  140OSM   C14S15313   0.579   3.355   7.842  0.1027 -0.5046 -0.0775
  140OSM   H14S15314   0.477   3.372   7.802 -0.4707 -2.5435  0.3930
  140OSM   H14T15315   0.608   3.448   7.897 -0.5271 -0.0074 -0.5672
  140OSM   C15S15316   0.549   3.244   7.945  0.2246 -0.0766 -0.6666
  140OSM   H15S15317   0.640   3.243   8.009  0.6554 -1.5891 -1.2664
  140OSM   H15T15318   0.535   3.147   7.894  3.3575 -0.4143 -1.1356
  140OSM   C16S15319   0.435   3.279   8.045 -0.2756 -0.0037  0.4267
  140OSM   H16S15320   0.336   3.263   7.999 -0.3281  0.5867  0.3258
  140OSM   H16T15321   0.438   3.381   8.088 -2.0354  0.4235 -0.3715
  140OSM   C17S15322   0.433   3.186   8.164  0.4188 -0.2408  0.1193
  140OSM   H17S15323   0.465   3.081   8.148 -1.5791 -1.4159  2.9965
  140OSM   H17T15324   0.324   3.178   8.184  0.6054 -0.7107  0.9766
  140OSM   C18S15325   0.516   3.237   8.274  0.6291 -0.0523 -0.2688
  140OSM   H18S15326   0.557   3.159   8.341  0.4568 -1.2768 -1.5436
  140OSM   H18T15327   0.460   3.323   8.318 -0.9476 -0.0347 -2.1745
  140OSM   H18U15328   0.608   3.285   8.234  1.4969 -0.6001  1.0072
  140OSM    C1F15329   1.478   3.669   6.852 -0.4284  0.3758 -0.0978
  140OSM     OF15330   1.484   3.789   6.817 -1.0251 -0.2316 -0.6809
  140OSM    C2F15331   1.545   3.606   6.970 -0.2343 -0.6248 -0.5372
  140OSM    H2F15332   1.606   3.520   6.938  1.0114  1.2918 -3.8438
  140OSM    H2G15333   1.463   3.586   7.042  0.9391 -0.9021  0.7698
  140OSM    C3F15334   1.641   3.711   7.032  0.1988 -0.1641  0.2673
  140OSM    H3F15335   1.594   3.808   7.056 -2.8698 -1.4202 -0.1784
  140OSM    H3G15336   1.722   3.730   6.958 -0.3085 -3.4978 -1.3538
  140OSM    C4F15337   1.697   3.654   7.164  0.2219  0.5867  0.3967
  140OSM    H4F15338   1.616   3.640   7.239 -0.8886 -2.1231 -1.1464
  140OSM    H4G15339   1.775   3.719   7.209  0.0889 -0.3629  2.0863
  140OSM    C5F15340   1.766   3.518   7.155 -1.0070 -0.4409  0.1502
  140OSM    H5F15341   1.855   3.522   7.089 -2.1309 -0.1224 -1.4118
  140OSM    H5G15342   1.688   3.448   7.117 -0.0065 -0.8886 -1.1596
  140OSM    C6F15343   1.810   3.462   7.287 -0.0276  1.0224  0.4560
  140OSM    H6F15344   1.880   3.539   7.327  1.6014  0.7143 -1.6484
  140OSM    H6G15345   1.880   3.377   7.277 -1.4762  0.0355 -2.4126
  140OSM    C7F15346   1.694   3.431   7.392 -0.3560  0.4591 -0.4439
  140OSM    H7F15347   1.632   3.348   7.351 -0.1860 -1.1436  2.2641
  140OSM    H7G15348   1.631   3.517   7.424  1.2232  1.6601 -0.4530
  140OSM    C8F15349   1.753   3.385   7.532  0.6526  0.1729  0.2725
  140OSM    H8F15350   1.673   3.393   7.609  0.7760 -1.5785  0.6365
  140OSM    H8G15351   1.828   3.457   7.570  1.2273 -0.7307  0.8961
  140OSM    C9F15352   1.802   3.240   7.532  0.0020  0.0708  0.4639
  140OSM    H9F15353   1.854   3.219   7.437  1.7393 -1.8812  1.7429
  140OSM   C10F15354   1.777   3.139   7.616 -0.6454  0.0821 -0.2654
  140OSM   H10F15355   1.831   3.045   7.594 -0.1549  0.4862 -0.7983
  140OSM   C11F15356   1.695   3.141   7.742 -0.2608 -0.0604  0.4330
  140OSM   H11F15357   1.725   3.235   7.793  2.9616  0.1891 -1.6428
  140OSM   H11G15358   1.726   3.057   7.808 -2.5001 -0.7427  0.7188
  140OSM   C12F15359   1.540   3.144   7.719 -0.2232 -0.6522 -0.1583
  140OSM   H12F15360   1.514   3.064   7.647  2.1198 -2.1249  0.5147
  140OSM   H12G15361   1.518   3.245   7.678  0.1612 -1.0517 -1.3894
  140OSM   C13F15362   1.458   3.114   7.838  0.2142  0.4879  0.1904
  140OSM   H13F15363   1.496   3.176   7.922  0.2815 -0.0168  0.5345
  140OSM   H13G15364   1.493   3.015   7.873  2.3975  1.1918  0.1456
  140OSM   C14F15365   1.309   3.105   7.815 -0.1263 -0.2583 -0.3932
  140OSM   H14F15366   1.282   3.019   7.750  0.3611 -0.2501 -0.6089
  140OSM   H14G15367   1.270   3.196   7.765 -0.4215 -0.4021 -0.4306
  140OSM   C15F15368   1.241   3.087   7.952 -0.3433  0.7246  0.7440
  140OSM   H15F15369   1.283   3.162   8.023  0.6293 -0.1167  1.0963
  140OSM   H15G15370   1.264   2.984   7.987  1.9562  0.1365 -2.0760
  140OSM   C16F15371   1.092   3.086   7.925  0.8640 -0.0178 -0.0952
  140OSM   H16F15372   1.066   3.006   7.851 -1.1040 -0.0774  0.5991
  140OSM   H16G15373   1.076   3.183   7.872 -1.1456 -0.1298  0.2125
  140OSM   C17F15374   1.009   3.060   8.043  0.3437 -0.0597 -0.0429
  140OSM   H17F15375   1.023   3.133   8.125  0.7922  0.6507 -0.7403
  140OSM   H17G15376   1.037   2.958   8.077  1.3708  0.6965  1.4963
  140OSM   C18F15377   0.864   3.061   8.006  0.1328  0.2873 -0.5465
  140OSM   H18F15378   0.835   3.000   7.918  2.3255 -0.7439 -0.6075
  140OSM   H18G15379   0.853   3.170   7.987  0.1195  0.4917  0.5672
  140OSM   H18H15380   0.800   3.045   8.095  3.6760  1.7722  2.5280
  141OSM      N15381   6.011   5.006   6.168  0.2054  0.4218  0.2852
  141OSM    C1515382   5.877   5.067   6.134 -0.4132 -0.5563 -0.0455
  141OSM   H15A15383   5.877   5.116   6.037 -1.1975  0.1379  0.2953
  141OSM   H15B15384   5.854   5.141   6.209 -2.0294  0.1723 -1.1922
  141OSM   H15C15385   5.803   4.989   6.132 -0.6236 -0.4321  1.7349
  141OSM    C1415386   6.052   4.916   6.056  0.3956  0.9951 -0.0310
  141OSM   H14A15387   6.150   4.873   6.068 -0.3395 -0.6912  0.1989
  141OSM   H14B15388   6.046   4.956   5.956  2.3825  2.3062  0.3132
  141OSM   H14C15389   5.993   4.826   6.046  1.5862  0.2334 -0.4539
  141OSM    C1315390   6.110   5.117   6.173  0.2633 -0.1311 -0.0234
  141OSM   H13A15391   6.207   5.075   6.195 -0.2607 -1.3352  0.0295
  141OSM   H13B15392   6.087   5.192   6.247 -0.5101 -0.9100  0.5494
  141OSM   H13C15393   6.108   5.164   6.076 -1.8235 -0.5669 -0.2321
  141OSM    C1215394   5.993   4.924   6.293  0.8287  0.2264 -0.2375
  141OSM   H12A15395   5.970   4.993   6.373 -1.6099 -2.7571  1.8546
  141OSM   H12B15396   6.089   4.880   6.312 -0.3266 -2.6446 -0.6382
  141OSM    C1115397   5.904   4.800   6.297 -0.0399 -0.3662  0.2864
  141OSM   H11A15398   5.814   4.824   6.237  0.6941 -0.0058 -0.7046
  141OSM   H11B15399   5.880   4.788   6.405  1.5008 -1.6034  0.5349
  141OSM      P15400   5.906   4.553   6.266 -0.3008  0.5182  0.1153
  141OSM    O1315401   5.796   4.558   6.173  0.1879 -0.2247 -0.4036
  141OSM    O1415402   6.009   4.454   6.251 -0.6418 -0.4796  0.0974
  141OSM    O1115403   5.871   4.557   6.419 -0.8078  0.1564 -0.1367
  141OSM    O1215404   5.980   4.691   6.248  0.1275 -0.1772  0.4126
  141OSM    C1S15405   5.970   4.559   6.526  0.1670 -0.3756  0.1943
  141OSM    H1S15406   6.051   4.629   6.498  0.4532 -0.2444  1.2777
  141OSM    H1T15407   6.018   4.460   6.541 -1.1740 -0.9695  0.6883
  141OSM     NF15408   6.015   4.674   6.748  0.2167  0.4736  0.8403
  141OSM    HNF15409   6.025   4.621   6.831 -1.6329 -0.2443  0.6535
  141OSM    C2S15410   5.913   4.617   6.653  0.1559 -0.1435 -0.3221
  141OSM    H2S15411   5.849   4.700   6.616 -1.7407 -2.4569 -2.5684
  141OSM    C3S15412   5.813   4.510   6.710  0.7159  0.1334  0.4365
  141OSM    H3S15413   5.877   4.430   6.754  1.7673  1.3958  1.3217
  141OSM     O315414   5.733   4.440   6.615 -0.1587 -0.2276 -0.1749
  141OSM    HO315415   5.783   4.467   6.537 -0.7332 -1.8197 -1.1423
  141OSM    C4S15416   5.725   4.568   6.816  0.4738 -0.6147  0.0614
  141OSM    H4S15417   5.769   4.542   6.913  0.8734  0.6493  0.2344
  141OSM    C5S15418   5.603   4.626   6.810  0.0006  0.2074  0.5798
  141OSM    H5S15419   5.552   4.621   6.712 -1.0882  1.1089  1.0898
  141OSM    C6S15420   5.517   4.674   6.928 -0.0011 -0.0393  0.2256
  141OSM    H6S15421   5.423   4.616   6.937  0.1232 -0.0300  1.9125
  141OSM    H6T15422   5.491   4.781   6.916  1.9941  0.3584 -1.1255
  141OSM    C7S15423   5.589   4.658   7.057 -0.4386 -0.4878 -0.4239
  141OSM    H7S15424   5.696   4.687   7.057 -0.0304 -1.8864 -0.2412
  141OSM    H7T15425   5.586   4.552   7.091 -1.0824  0.2690  2.0541
  141OSM    C8S15426   5.524   4.748   7.173 -0.1136 -0.3284 -0.7970
  141OSM    H8S15427   5.414   4.736   7.183 -0.2295  1.3377  0.3291
  141OSM    H8T15428   5.536   4.856   7.151  1.1382 -0.4248 -0.6748
  141OSM    C9S15429   5.591   4.718   7.309  0.2977  0.2273 -0.6311
  141OSM    H9S15430   5.700   4.737   7.298  0.1616  1.2640 -0.3399
  141OSM    H9T15431   5.561   4.612   7.323  1.2637 -0.0046 -0.2527
  141OSM   C10S15432   5.540   4.807   7.426 -0.2225 -0.0996 -0.0829
  141OSM   H10S15433   5.431   4.790   7.439 -0.2936 -0.5372 -1.0977
  141OSM   H10T15434   5.549   4.915   7.404  1.5102  0.2553  2.0965
  141OSM   C11S15435   5.621   4.779   7.552 -0.1549 -0.2201  0.5161
  141OSM   H11S15436   5.730   4.790   7.535 -0.1302  0.8562  1.2908
  141OSM   H11T15437   5.617   4.672   7.581 -1.4445 -0.0493  1.0297
  141OSM   C12S15438   5.579   4.869   7.676 -0.3652  1.1025  0.0975
  141OSM   H12S15439   5.476   4.840   7.707  0.1763 -1.1321 -0.0092
  141OSM   H12T15440   5.584   4.978   7.658 -0.0494  1.1018  0.1911
  141OSM   C13S15441   5.667   4.839   7.795  0.7775 -0.1972 -0.0195
  141OSM   H13S15442   5.769   4.857   7.753 -0.3874  0.9869 -2.5655
  141OSM   H13T15443   5.660   4.733   7.829  1.6568 -0.0326  0.7265
  141OSM   C14S15444   5.637   4.935   7.911  0.4016  0.4188 -0.3536
  141OSM   H14S15445   5.530   4.941   7.939  0.7764 -1.2870  1.7634
  141OSM   H14T15446   5.669   5.034   7.874  2.2860 -0.3718 -0.9732
  141OSM   C15S15447   5.730   4.906   8.034  0.1141 -0.5409  1.0965
  141OSM   H15S15448   5.832   4.909   7.991 -0.3213 -0.4589  0.0389
  141OSM   H15T15449   5.716   4.801   8.066  0.4016 -1.3679 -1.2950
  141OSM   C16S15450   5.727   5.001   8.151  0.2278 -0.4280 -0.5187
  141OSM   H16S15451   5.620   4.996   8.180 -0.2671 -0.1764 -2.1822
  141OSM   H16T15452   5.749   5.106   8.120  1.7508 -0.9511 -1.2672
  141OSM   C17S15453   5.831   4.958   8.251 -0.2649  0.6444  0.4144
  141OSM   H17S15454   5.928   4.957   8.196 -0.9621  0.6226 -0.8589
  141OSM   H17T15455   5.803   4.852   8.271  1.3449  0.2298  0.6590
  141OSM   C18S15456   5.821   5.043   8.378 -0.2571  0.7313 -0.4693
  141OSM   H18S15457   5.917   5.048   8.432 -1.2649 -0.1775  1.5109
  141OSM   H18T15458   5.743   4.996   8.442  0.7462  0.4208  0.5489
  141OSM   H18U15459   5.793   5.147   8.349 -0.2172  0.5921 -1.0312
  141OSM    C1F15460   6.095   4.768   6.717  0.8381 -0.3624  0.3264
  141OSM     OF15461   6.068   4.836   6.619 -0.1275  0.2013 -0.3113
  141OSM    C2F15462   6.220   4.788   6.806  0.3368  0.0651  0.2900
  141OSM    H2F15463   6.286   4.851   6.743 -0.4073  0.6301  0.0555
  141OSM    H2G15464   6.272   4.695   6.837  0.8939 -0.5145 -2.1813
  141OSM    C3F15465   6.193   4.867   6.938 -0.2180 -0.0868  0.6628
  141OSM    H3F15466   6.130   4.803   7.004  1.2468  0.4882  2.7331
  141OSM    H3G15467   6.145   4.966   6.922  1.2854  0.6087  0.3086
  141OSM    C4F15468   6.320   4.900   7.015  0.9669  0.0558 -0.3552
  141OSM    H4F15469   6.370   4.980   6.957  2.6496  1.4879  2.8435
  141OSM    H4G15470   6.387   4.811   7.023 -1.0654 -1.3716  2.8090
  141OSM    C5F15471   6.293   4.938   7.161  0.5856  0.1781 -0.3558
  141OSM    H5F15472   6.222   4.870   7.212  1.2454  0.6192  1.2021
  141OSM    H5G15473   6.252   5.041   7.175 -2.1322 -0.7724 -0.6422
  141OSM    C6F15474   6.423   4.943   7.245 -0.4487  0.0624 -1.1300
  141OSM    H6F15475   6.510   4.994   7.199 -0.0958 -0.4776 -1.0814
  141OSM    H6G15476   6.468   4.842   7.262  0.4525  0.6375  0.0097
  141OSM    C7F15477   6.399   5.007   7.390 -0.1920 -0.1570  0.3010
  141OSM    H7F15478   6.330   4.938   7.442  0.2957 -1.3837 -0.6246
  141OSM    H7G15479   6.342   5.102   7.392 -3.3578 -1.8447 -1.3766
  141OSM    C8F15480   6.524   5.010   7.481  0.1250 -0.5571 -0.1238
  141OSM    H8F15481   6.491   5.048   7.580  1.8755  2.8317 -0.6945
  141OSM    H8G15482   6.595   5.090   7.451 -0.2135 -0.2182 -0.0253
  141OSM    C9F15483   6.597   4.881   7.489  0.2741 -0.3456  0.3913
  141OSM    H9F15484   6.613   4.847   7.386 -1.0852 -0.1050  0.0731
  141OSM   C10F15485   6.647   4.823   7.597  0.0805  0.2112 -0.1175
  141OSM   H10F15486   6.693   4.725   7.578 -0.7386  0.0430 -1.3699
  141OSM   C11F15487   6.639   4.862   7.744 -0.2302 -0.4402  0.5783
  141OSM   H11F15488   6.664   4.970   7.739 -1.7832 -0.0621  0.2303
  141OSM   H11G15489   6.723   4.825   7.806  0.6455  1.1601  0.4018
  141OSM   C12F15490   6.512   4.828   7.821  0.4830  0.2376 -0.2796
  141OSM   H12F15491   6.495   4.723   7.790 -1.6455 -0.4265  2.6702
  141OSM   H12G15492   6.427   4.892   7.790 -0.7526  0.2355  2.7909
  141OSM   C13F15493   6.547   4.845   7.970 -0.6319  0.3255 -0.5134
  141OSM   H13F15494   6.626   4.921   7.985  1.7437 -1.9972 -0.5372
  141OSM   H13G15495   6.606   4.759   8.008  0.1759  1.1487  0.1361
  141OSM   C14F15496   6.426   4.865   8.069  0.0067  0.0317  0.7503
  141OSM   H14F15497   6.361   4.776   8.056  1.5787 -1.0374 -0.2770
  141OSM   H14G15498   6.375   4.959   8.038 -0.1160 -0.7890 -1.7798
  141OSM   C15F15499   6.450   4.881   8.223 -0.4722  0.0722  0.3647
  141OSM   H15F15500   6.508   4.975   8.233 -2.3188  1.6534 -2.2782
  141OSM   H15G15501   6.515   4.795   8.250 -0.8039 -0.4042 -0.2987
  141OSM   C16F15502   6.325   4.900   8.308  0.0411 -0.1113 -0.1464
  141OSM   H16F15503   6.250   4.840   8.252 -1.1954  0.2903  1.0012
  141OSM   H16G15504   6.300   5.009   8.303  1.8064  0.4053  1.3981
  141OSM   C17F15505   6.335   4.834   8.444  0.1622 -0.4244 -0.0008
  141OSM   H17F15506   6.354   4.727   8.426 -2.8111 -1.1459  0.6326
  141OSM   H17G15507   6.234   4.836   8.491 -0.0135  0.3759 -0.3845
  141OSM   C18F15508   6.440   4.898   8.537 -0.0414  0.4013 -0.1762
  141OSM   H18F15509   6.542   4.881   8.496  0.5679 -0.8617  1.7191
  141OSM   H18G15510   6.446   4.844   8.634 -1.0842  1.5893  0.5727
  141OSM   H18H15511   6.435   5.009   8.532  1.3008  0.4692 -0.4433
  142OSM      N15512   0.005   5.552   6.219 -0.0405 -0.6807  0.4186
  142OSM    C1515513   0.141   5.590   6.185 -0.4652  0.7944 -1.0444
  142OSM   H15A15514   0.158   5.696   6.171 -0.1328  0.7991 -0.6439
  142OSM   H15B15515   0.190   5.544   6.101  0.5121  0.5635 -0.3679
  142OSM   H15C15516   0.202   5.552   6.266 -0.5877 -0.1463 -1.3777
  142OSM    C1415517  -0.064   5.561   6.085 -0.0913 -0.1880 -0.9047
  142OSM   H14A15518  -0.006   5.501   6.016 -0.7021  0.8173 -2.3420
  142OSM   H14B15519  -0.089   5.657   6.042  0.9431 -0.0396 -1.2083
  142OSM   H14C15520  -0.166   5.526   6.089  0.3691 -1.6696  4.4011
  142OSM    C1315521  -0.000   5.415   6.280 -0.2698 -0.1516 -0.8772
  142OSM   H13A15522  -0.104   5.388   6.289  0.2306 -2.1080 -0.6028
  142OSM   H13B15523   0.050   5.422   6.375  0.0004  2.0824 -1.1204
  142OSM   H13C15524   0.049   5.340   6.220 -0.9879 -1.0803 -0.3354
  142OSM    C1215525  -0.050   5.654   6.317  0.1185 -0.8301  0.4590
  142OSM   H12A15526   0.002   5.653   6.412 -0.5045  2.5966  0.9716
  142OSM   H12B15527  -0.155   5.642   6.342  0.1643 -1.7782  0.2332
  142OSM    C1115528  -0.041   5.800   6.269 -0.3289 -0.0526  0.5549
  142OSM   H11A15529  -0.099   5.813   6.175  2.6583  0.5814 -1.3422
  142OSM   H11B15530   0.062   5.825   6.235 -0.7174  0.2818 -0.4141
  142OSM      P15531  -0.232   5.919   6.393 -0.2989  0.0648  0.2506
  142OSM    O1315532  -0.271   6.012   6.288 -0.0665 -0.4954 -0.2934
  142OSM    O1415533  -0.308   5.789   6.400 -0.2219 -0.9027  0.3383
  142OSM    O1115534  -0.247   5.983   6.527  0.2629 -0.9549 -0.6168
  142OSM    O1215535  -0.081   5.891   6.379  0.3217  0.8559 -0.1001
  142OSM    C1S15536  -0.175   5.959   6.647  0.0308  0.1592  0.3380
  142OSM    H1S15537  -0.066   5.974   6.639 -0.1926  2.8764  1.6015
  142OSM    H1T15538  -0.199   5.854   6.676 -2.9856 -0.3099 -3.0389
  142OSM     NF15539  -0.118   6.052   6.865 -1.0098  0.7867  0.0617
  142OSM    HNF15540  -0.115   5.983   6.937 -1.2437  1.7700  1.0382
  142OSM    C2S15541  -0.221   6.050   6.765  0.9187  0.7434  0.5196
  142OSM    H2S15542  -0.241   6.149   6.719 -2.3801 -1.3004 -3.1323
  142OSM    C3S15543  -0.357   5.996   6.812  0.3755  0.1758  0.5405
  142OSM    H3S15544  -0.356   5.896   6.861  0.6882 -0.7438 -1.2814
  142OSM     O315545  -0.461   5.989   6.713  0.5425  0.2613  0.4754
  142OSM    HO315546  -0.411   6.006   6.633  1.9641 -3.0997  0.4725
  142OSM    C4S15547  -0.417   6.085   6.916  0.0645 -0.3578  0.7762
  142OSM    H4S15548  -0.460   6.174   6.867 -2.5149 -2.5191 -1.1427
  142OSM    C5S15549  -0.416   6.061   7.048 -0.1315  0.1119 -0.4187
  142OSM    H5S15550  -0.364   5.971   7.084  0.4580 -0.0827 -1.7146
  142OSM    C6S15551  -0.473   6.161   7.148 -0.0641 -0.0092 -0.3537
  142OSM    H6S15552  -0.513   6.250   7.095  1.4748 -1.0570 -3.5511
  142OSM    H6T15553  -0.393   6.193   7.219 -0.2224 -1.0615  0.3309
  142OSM    C7S15554  -0.576   6.089   7.229  0.6421  0.5513 -0.1602
  142OSM    H7S15555  -0.646   6.026   7.169  0.5812  0.5833 -0.1223
  142OSM    H7T15556  -0.630   6.161   7.295 -0.7898 -1.8367  1.4002
  142OSM    C8S15557  -0.519   5.984   7.331 -0.4657  0.1608 -0.2822
  142OSM    H8S15558  -0.434   6.019   7.393 -0.5274  2.5501 -1.4120
  142OSM    H8T15559  -0.467   5.902   7.278  1.5846 -0.1382  2.0561
  142OSM    C9S15560  -0.619   5.917   7.426 -0.6987  0.2785  0.0587
  142OSM    H9S15561  -0.594   5.809   7.423  0.8208  0.6246 -1.7036
  142OSM    H9T15562  -0.716   5.923   7.372 -0.1607 -1.5864 -1.2219
  142OSM   C10S15563  -0.601   5.992   7.556  0.2667  0.4431 -0.8825
  142OSM   H10S15564  -0.656   6.088   7.547 -2.2045 -0.6961  1.0407
  142OSM   H10T15565  -0.495   6.014   7.582 -0.3151  0.6450  1.5234
  142OSM   C11S15566  -0.659   5.920   7.679  0.3589  0.2401  0.2728
  142OSM   H11S15567  -0.623   5.814   7.680 -4.7399 -1.7434  0.3871
  142OSM   H11T15568  -0.767   5.918   7.654  0.9677  1.9860 -2.9610
  142OSM   C12S15569  -0.650   6.002   7.808  0.3636 -0.2222 -0.1396
  142OSM   H12S15570  -0.701   6.099   7.794  0.4623 -0.3031 -1.1978
  142OSM   H12T15571  -0.541   6.013   7.826  0.5541 -0.4131 -1.0823
  142OSM   C13S15572  -0.704   5.936   7.933  0.8506 -0.0628  0.6293
  142OSM   H13S15573  -0.678   5.828   7.935 -2.2173 -1.0828 -2.7424
  142OSM   H13T15574  -0.814   5.922   7.934  0.8575 -0.0773  1.2882
  142OSM   C14S15575  -0.667   6.004   8.070 -0.0830  0.1945  0.6347
  142OSM   H14S15576  -0.689   6.113   8.070 -0.0894  0.1950  0.2995
  142OSM   H14T15577  -0.561   5.987   8.100 -0.0142 -2.5610 -0.8710
  142OSM   C15S15578  -0.737   5.940   8.189 -0.4348  0.6995 -1.0301
  142OSM   H15S15579  -0.700   5.835   8.192  0.9637  1.1719 -1.0822
  142OSM   H15T15580  -0.847   5.931   8.175 -0.7682  1.0376  1.0247
  142OSM   C16S15581  -0.701   5.998   8.327 -0.1041 -0.4499  0.3371
  142OSM   H16S15582  -0.741   6.099   8.352 -0.6520 -0.4276 -0.5819
  142OSM   H16T15583  -0.592   6.007   8.342 -0.2238  0.3624  0.7682
  142OSM   C17S15584  -0.758   5.908   8.447 -0.3239 -0.1075 -0.7291
  142OSM   H17S15585  -0.863   5.888   8.417  0.7973 -3.0639 -3.2422
  142OSM   H17T15586  -0.752   5.968   8.541  1.6811 -0.3202 -0.6822
  142OSM   C18S15587  -0.686   5.766   8.463 -0.4666 -0.8421  0.0762
  142OSM   H18S15588  -0.696   5.720   8.362 -1.7412  0.7818 -0.5987
  142OSM   H18T15589  -0.745   5.702   8.532 -0.4526 -1.0403 -0.0949
  142OSM   H18U15590  -0.580   5.793   8.481 -0.4099 -0.1925 -1.0801
  142OSM    C1F15591   0.005   6.113   6.849  0.1221 -0.0882  0.0053
  142OSM     OF15592   0.014   6.189   6.754 -0.6164  0.0375  0.2249
  142OSM    C2F15593   0.115   6.102   6.956  0.0685  0.0803 -0.6233
  142OSM    H2F15594   0.162   6.002   6.952  2.1350  0.9665  0.0762
  142OSM    H2G15595   0.052   6.111   7.047  0.7490  2.2050 -0.2987
  142OSM    C3F15596   0.219   6.217   6.967  0.0457  0.1413  0.1641
  142OSM    H3F15597   0.189   6.322   6.944  1.5836  0.7409  0.7905
  142OSM    H3G15598   0.299   6.203   6.891 -0.7646 -1.3217 -0.4702
  142OSM    C4F15599   0.281   6.226   7.109  1.1861  0.1082  0.3128
  142OSM    H4F15600   0.313   6.127   7.146 -0.4402  0.2912  2.3863
  142OSM    H4G15601   0.200   6.255   7.179  0.7257 -0.2410 -0.0736
  142OSM    C5F15602   0.402   6.326   7.109 -0.1925  0.3509  0.8191
  142OSM    H5F15603   0.379   6.435   7.108 -1.3270  0.1298  1.1231
  142OSM    H5G15604   0.462   6.305   7.018 -0.5887  1.9803  0.1397
  142OSM    C6F15605   0.494   6.299   7.226 -0.7100 -0.1994 -0.5566
  142OSM    H6F15606   0.599   6.335   7.222 -0.6825  0.0211  1.2577
  142OSM    H6G15607   0.506   6.189   7.237  2.4001  0.1373  0.2966
  142OSM    C7F15608   0.446   6.350   7.364 -0.4304  0.5151 -0.4354
  142OSM    H7F15609   0.348   6.300   7.380  0.0940  0.0123  1.4269
  142OSM    H7G15610   0.440   6.461   7.368 -1.7351  0.5306 -1.8023
  142OSM    C8F15611   0.527   6.291   7.483 -0.9080 -0.1960  0.1281
  142OSM    H8F15612   0.489   6.338   7.576  0.3210  0.9728  0.0631
  142OSM    H8G15613   0.627   6.338   7.474 -1.3133  0.6507 -0.0867
  142OSM    C9F15614   0.533   6.149   7.523 -0.3953 -0.1683  1.0925
  142OSM    H9F15615   0.466   6.079   7.471 -2.8520  1.9309  1.2974
  142OSM   C10F15616   0.607   6.101   7.624 -0.2119  0.1925  0.0608
  142OSM   H10F15617   0.597   5.993   7.642 -2.9865 -0.4142 -3.7434
  142OSM   C11F15618   0.690   6.177   7.721 -0.1298  0.2299  0.7798
  142OSM   H11F15619   0.686   6.283   7.689 -0.3406 -0.2653 -0.8977
  142OSM   H11G15620   0.795   6.142   7.725 -0.6761 -1.5535  0.3120
  142OSM   C12F15621   0.632   6.149   7.861 -0.8148 -0.2195 -0.6135
  142OSM   H12F15622   0.693   6.202   7.938 -0.4878  0.2510 -1.1833
  142OSM   H12G15623   0.649   6.041   7.877  0.6325 -0.1276 -1.3458
  142OSM   C13F15624   0.487   6.199   7.870  0.3911  0.5371  0.8077
  142OSM   H13F15625   0.429   6.154   7.786  0.5498 -0.0594  1.0107
  142OSM   H13G15626   0.492   6.307   7.846  0.4786  0.8089  2.0130
  142OSM   C14F15627   0.420   6.168   8.005 -0.6606 -0.0397  0.1256
  142OSM   H14F15628   0.457   6.068   8.036  4.1629  0.4040 -3.0292
  142OSM   H14G15629   0.310   6.173   7.993 -0.5640  1.9372 -0.4229
  142OSM   C15F15630   0.442   6.275   8.113  0.4516  0.0843 -0.4322
  142OSM   H15F15631   0.403   6.370   8.071 -0.8552 -0.0307  0.4694
  142OSM   H15G15632   0.551   6.286   8.130  0.4553 -1.9837  1.3228
  142OSM   C16F15633   0.362   6.240   8.238  0.4499 -0.4211 -0.6016
  142OSM   H16F15634   0.378   6.140   8.283  0.3979 -0.0914  0.1729
  142OSM   H16G15635   0.253   6.248   8.217  0.9541  0.3341 -3.3985
  142OSM   C17F15636   0.390   6.342   8.345  0.3959 -0.6056 -0.1880
  142OSM   H17F15637   0.367   6.446   8.311  1.6155 -0.0604  0.5672
  142OSM   H17G15638   0.501   6.342   8.354  0.8508  2.5057 -3.4017
  142OSM   C18F15639   0.316   6.291   8.470  0.3069  0.5918 -0.2196
  142OSM   H18F15640   0.207   6.271   8.467  0.5938 -0.9913 -2.4637
  142OSM   H18G15641   0.331   6.357   8.559 -0.6503  3.2548 -1.9380
  142OSM   H18H15642   0.346   6.188   8.501  1.4266  0.2966 -2.1184
  143OSM      N15643   1.965   3.034   6.245  0.3073  0.3884  0.9141
  143OSM    C1515644   1.874   2.951   6.155 -0.9915  0.1518 -0.3974
  143OSM   H15A15645   1.921   2.855   6.137 -0.1741 -0.1924  2.9205
  143OSM   H15B15646   1.851   3.008   6.066 -0.4269 -0.8001 -1.1851
  143OSM   H15C15647   1.782   2.933   6.208 -0.3482  1.2734  1.1368
  143OSM    C1415648   2.092   3.069   6.172 -0.7613  0.0062 -0.2552
  143OSM   H14A15649   2.162   3.124   6.232  0.1526 -1.3502 -0.0557
  143OSM   H14B15650   2.077   3.129   6.083  0.4338 -0.3348 -0.6980
  143OSM   H14C15651   2.158   2.985   6.157  2.5531  1.8101  2.8804
  143OSM    C1315652   1.901   3.173   6.265 -0.4394  0.4896  0.4101
  143OSM   H13A15653   1.801   3.152   6.300 -0.2310 -1.0403  0.1968
  143OSM   H13B15654   1.893   3.230   6.174  0.7471  1.0623  0.6517
  143OSM   H13C15655   1.946   3.223   6.349  0.5375  3.6295 -1.8436
  143OSM    C1215656   1.998   2.974   6.377  0.0953  0.1126 -0.1776
  143OSM   H12A15657   1.902   2.949   6.419  0.1642  0.3274  0.1072
  143OSM   H12B15658   2.047   3.047   6.440  0.3301  1.3832 -1.7675
  143OSM    C1115659   2.080   2.853   6.383  0.0676 -0.0878  0.7426
  143OSM   H11A15660   2.117   2.834   6.486  0.4861  1.0866  0.8264
  143OSM   H11B15661   2.164   2.874   6.313 -1.4218  0.5724 -0.9429
  143OSM      P15662   2.096   2.606   6.292  0.2585  0.4212  0.1067
  143OSM    O1315663   2.002   2.502   6.247  0.1964  0.3408  0.5230
  143OSM    O1415664   2.216   2.638   6.211 -0.2611 -0.2064  0.1821
  143OSM    O1115665   2.136   2.570   6.442  0.6281 -0.2455  0.1980
  143OSM    O1215666   2.008   2.738   6.330  0.1178  0.0256  0.1441
  143OSM    C1S15667   2.249   2.496   6.480 -0.5084  0.2441  0.8143
  143OSM    H1S15668   2.344   2.546   6.453 -0.2563 -0.9067 -0.5580
  143OSM    H1T15669   2.248   2.395   6.434 -1.3068  1.5346 -2.2066
  143OSM     NF15670   2.389   2.400   6.667 -0.7585 -1.1617  0.4192
  143OSM    HNF15671   2.392   2.301   6.662 -0.1738 -1.1211 -0.3609
  143OSM    C2S15672   2.264   2.472   6.640  0.6846  0.4769  0.2441
  143OSM    H2S15673   2.261   2.573   6.685  1.6784 -0.2778  2.1211
  143OSM    C3S15674   2.138   2.406   6.697 -0.3903  0.6230 -0.3583
  143OSM    H3S15675   2.159   2.298   6.679  0.5118  0.9359 -1.2657
  143OSM     O315676   2.018   2.427   6.626  0.0900  0.1559 -0.1402
  143OSM    HO315677   2.044   2.492   6.560  0.9157  0.2492  0.2594
  143OSM    C4S15678   2.133   2.431   6.849 -0.0563 -0.0125 -0.7791
  143OSM    H4S15679   2.112   2.536   6.874 -0.6870  0.8322 -4.3664
  143OSM    C5S15680   2.141   2.339   6.952  0.3822 -0.6238  0.7184
  143OSM    H5S15681   2.138   2.232   6.925  1.2455 -0.0355 -1.9943
  143OSM    C6S15682   2.127   2.383   7.099  0.5257  0.2971  0.3731
  143OSM    H6S15683   2.019   2.377   7.126  0.2665  0.9148 -0.4765
  143OSM    H6T15684   2.147   2.490   7.120  1.9049 -0.0598  0.9536
  143OSM    C7S15685   2.217   2.299   7.181 -0.0713  0.0654 -0.1166
  143OSM    H7S15686   2.319   2.318   7.142  0.5368 -2.0775  0.2643
  143OSM    H7T15687   2.204   2.190   7.165 -0.3576 -0.1200  1.2037
  143OSM    C8S15688   2.224   2.347   7.324  0.0431 -0.1168  0.5054
  143OSM    H8S15689   2.123   2.337   7.369 -1.1783  1.8679 -1.6109
  143OSM    H8T15690   2.255   2.453   7.340 -1.6275  0.6383 -0.9615
  143OSM    C9S15691   2.311   2.247   7.408  0.3370 -0.3391  0.1052
  143OSM    H9S15692   2.415   2.275   7.381 -0.3584  1.4717 -0.8976
  143OSM    H9T15693   2.285   2.146   7.370 -0.1109 -0.0645 -0.3386
  143OSM   C10S15694   2.283   2.267   7.558 -0.1359  0.1081  0.2286
  143OSM   H10S15695   2.174   2.277   7.574 -0.9290 -4.1627 -1.2913
  143OSM   H10T15696   2.350   2.351   7.589  1.8369 -1.4572  0.4433
  143OSM   C11S15697   2.333   2.145   7.636 -0.8557 -0.4564 -0.7939
  143OSM   H11S15698   2.444   2.132   7.630 -0.7609 -0.2050  0.2642
  143OSM   H11T15699   2.278   2.056   7.598  0.0603 -0.8386 -1.2665
  143OSM   C12S15700   2.295   2.168   7.785  0.1439 -0.1882  0.6970
  143OSM   H12S15701   2.184   2.158   7.791  0.2525 -0.4957  3.9474
  143OSM   H12T15702   2.319   2.274   7.806  1.2311  0.2836 -2.4198
  143OSM   C13S15703   2.364   2.077   7.889  0.4252 -0.2890  0.2133
  143OSM   H13S15704   2.470   2.064   7.859  0.3694 -0.9279  0.2724
  143OSM   H13T15705   2.314   1.978   7.876 -0.0818  0.3716 -4.7837
  143OSM   C14S15706   2.358   2.138   8.028 -0.2963  0.1366 -0.1726
  143OSM   H14S15707   2.396   2.243   8.023  0.2958 -0.1467 -2.3943
  143OSM   H14T15708   2.422   2.090   8.105 -0.8830  1.7109  1.3579
  143OSM   C15S15709   2.216   2.138   8.092  0.1536  0.0501  0.1779
  143OSM   H15S15710   2.181   2.032   8.087  2.8310 -0.8640 -1.0575
  143OSM   H15T15711   2.150   2.208   8.036  1.4777  1.4830  0.3470
  143OSM   C16S15712   2.221   2.189   8.234 -0.3043  0.0651 -0.4612
  143OSM   H16S15713   2.287   2.278   8.237  0.6282 -0.6214 -0.3901
  143OSM   H16T15714   2.270   2.106   8.289  0.9762 -0.4746 -2.3333
  143OSM   C17S15715   2.083   2.220   8.301 -0.3953  0.2839  0.6566
  143OSM   H17S15716   2.038   2.309   8.252 -1.8315 -0.9638 -0.3805
  143OSM   H17T15717   2.095   2.241   8.410  0.6826  1.6341  0.3044
  143OSM   C18S15718   1.984   2.096   8.302 -0.4679 -0.3700  0.1082
  143OSM   H18S15719   1.969   2.067   8.196  0.6054  0.3949 -0.2740
  143OSM   H18T15720   1.888   2.117   8.354 -0.7575  0.7279 -0.8311
  143OSM   H18U15721   2.028   2.009   8.355  1.0058 -0.6876 -1.5374
  143OSM    C1F15722   2.507   2.466   6.634 -0.2928  0.1277  0.6178
  143OSM     OF15723   2.508   2.592   6.632  0.6310  0.7236 -0.0414
  143OSM    C2F15724   2.628   2.393   6.586 -0.6355  0.3705  0.1575
  143OSM    H2F15725   2.647   2.422   6.480  1.7216 -2.6886 -0.3596
  143OSM    H2G15726   2.629   2.282   6.591  5.8594 -0.0185 -1.2934
  143OSM    C3F15727   2.748   2.435   6.673  0.4790  0.1158 -0.5555
  143OSM    H3F15728   2.767   2.540   6.642  0.3011  0.3789  0.2070
  143OSM    H3G15729   2.842   2.400   6.627 -0.2018 -1.1522 -1.0263
  143OSM    C4F15730   2.739   2.392   6.819  0.3966 -0.0115  0.2057
  143OSM    H4F15731   2.843   2.390   6.859  1.3009  4.6620 -1.3691
  143OSM    H4G15732   2.694   2.291   6.831  2.3115 -1.3509 -2.8395
  143OSM    C5F15733   2.661   2.485   6.919 -0.9396 -0.5337  0.3970
  143OSM    H5F15734   2.554   2.464   6.902 -0.3853 -1.5531 -2.1347
  143OSM    H5G15735   2.680   2.592   6.895 -2.2460 -0.3357  0.1665
  143OSM    C6F15736   2.710   2.468   7.064 -0.1368 -0.0687  0.7907
  143OSM    H6F15737   2.657   2.534   7.136  0.8433 -0.6521  2.0896
  143OSM    H6G15738   2.816   2.500   7.076 -0.0723  0.3928 -0.7948
  143OSM    C7F15739   2.713   2.324   7.123  0.1329  0.3016  0.3190
  143OSM    H7F15740   2.793   2.256   7.088  1.2733  1.5767  0.3289
  143OSM    H7G15741   2.621   2.272   7.088 -0.6492  0.9561  1.3401
  143OSM    C8F15742   2.709   2.332   7.280  0.2992 -0.0370 -0.2736
  143OSM    H8F15743   2.609   2.376   7.299 -0.3796  0.0426 -3.3854
  143OSM    H8G15744   2.780   2.406   7.321 -1.1251 -0.9273  4.3325
  143OSM    C9F15745   2.721   2.193   7.339 -0.2839  0.3348  0.5097
  143OSM    H9F15746   2.657   2.113   7.299 -0.2040 -0.0366  1.1049
  143OSM   C10F15747   2.809   2.161   7.438  0.0633  0.2018  0.0676
  143OSM   H10F15748   2.804   2.055   7.468 -2.4814 -0.1938 -1.4907
  143OSM   C11F15749   2.921   2.235   7.517  0.0093 -0.3394 -1.0788
  143OSM   H11F15750   2.929   2.344   7.498  1.2284 -0.1304  0.4439
  143OSM   H11G15751   3.020   2.189   7.494 -0.0281 -1.1608  0.2986
  143OSM   C12F15752   2.899   2.228   7.668  0.5320 -0.0323 -0.1825
  143OSM   H12F15753   2.789   2.241   7.680  0.7952  0.6825  1.7408
  143OSM   H12G15754   2.950   2.316   7.713 -0.7317  1.5750 -1.7229
  143OSM   C13F15755   2.935   2.098   7.733  0.5250  0.0459 -0.6611
  143OSM   H13F15756   3.042   2.077   7.711  0.4257 -1.1993 -0.0340
  143OSM   H13G15757   2.879   2.011   7.693  0.7390 -1.0994  1.4013
  143OSM   C14F15758   2.916   2.100   7.887 -0.1919  0.2450  0.3968
  143OSM   H14F15759   2.975   2.181   7.936 -0.5406 -0.8788  2.8423
  143OSM   H14G15760   2.946   2.002   7.931 -2.5097  0.0962  1.8427
  143OSM   C15F15761   2.760   2.110   7.924 -0.0242  0.0120  0.2073
  143OSM   H15F15762   2.722   2.007   7.905 -0.5456 -0.1763  2.0711
  143OSM   H15G15763   2.718   2.187   7.855  1.9078 -0.2016 -1.3096
  143OSM   C16F15764   2.730   2.149   8.064 -0.2156 -0.1493  0.4494
  143OSM   H16F15765   2.745   2.059   8.128 -1.1170  0.0636  0.9812
  143OSM   H16G15766   2.624   2.182   8.064  0.6626  2.9406 -0.3668
  143OSM   C17F15767   2.822   2.261   8.116  1.3757  0.2382 -0.0026
  143OSM   H17F15768   2.840   2.346   8.047  0.4478  1.4655  1.2170
  143OSM   H17G15769   2.922   2.216   8.134  0.8832 -0.6162  0.6652
  143OSM   C18F15770   2.765   2.332   8.240  0.4813 -0.2346 -0.6189
  143OSM   H18F15771   2.852   2.392   8.275 -0.0925  1.2109 -1.5749
  143OSM   H18G15772   2.740   2.252   8.313  1.8127 -2.1702 -2.1807
  143OSM   H18H15773   2.675   2.392   8.214 -0.1851 -1.1092 -0.3415
  144OSM      N15774   1.127   0.597   6.204  0.0537  0.0185  0.0966
  144OSM    C1515775   1.064   0.480   6.274  0.2340  0.0348  0.4269
  144OSM   H15A15776   1.137   0.420   6.327 -0.4650 -0.1218  1.2430
  144OSM   H15B15777   1.013   0.411   6.208  0.3411  0.2094  0.1601
  144OSM   H15C15778   0.993   0.513   6.348 -0.2105  1.1966 -0.4897
  144OSM    C1415779   1.243   0.557   6.114  0.5944 -0.3582 -0.0417
  144OSM   H14A15780   1.285   0.648   6.072  0.6274  0.0251  0.8113
  144OSM   H14B15781   1.198   0.495   6.037 -2.4200  3.1631 -1.4329
  144OSM   H14C15782   1.316   0.505   6.173  1.8109  0.8597 -0.4106
  144OSM    C1315783   1.019   0.654   6.121  0.1014  0.4176 -0.0194
  144OSM   H13A15784   0.996   0.588   6.039  2.9892  0.7290 -1.1961
  144OSM   H13B15785   1.045   0.754   6.088 -0.5510  0.8677  0.7972
  144OSM   H13C15786   0.933   0.674   6.183 -1.0553  2.9650 -2.2195
  144OSM    C1215787   1.180   0.705   6.301 -0.0585  0.6411 -0.6733
  144OSM   H12A15788   1.264   0.666   6.356  0.4915  1.6206 -0.8043
  144OSM   H12B15789   1.112   0.717   6.384  0.9024 -1.0148  0.4198
  144OSM    C1115790   1.218   0.853   6.253 -0.3612  0.2315 -0.6075
  144OSM   H11A15791   1.302   0.847   6.181  0.7567  2.0991  0.4589
  144OSM   H11B15792   1.274   0.912   6.329  1.3457 -0.3686 -1.3608
  144OSM      P15793   1.014   0.984   6.309  0.0788 -0.8428  0.3217
  144OSM    O1315794   1.038   1.137   6.316 -0.0908  0.4797 -0.3344
  144OSM    O1415795   0.875   0.947   6.274  0.4067 -0.0785 -0.5699
  144OSM    O1115796   1.055   0.918   6.446 -0.4110  0.1846 -0.7243
  144OSM    O1215797   1.112   0.930   6.196 -0.0360 -0.5109  0.7687
  144OSM    C1S15798   0.990   0.974   6.559 -0.3945 -0.2392  0.1109
  144OSM    H1S15799   0.880   0.957   6.569 -0.3901 -2.6262 -2.5327
  144OSM    H1T15800   1.012   1.082   6.572 -0.6828 -0.3860  2.1699
  144OSM     NF15801   0.956   0.948   6.806  0.3282 -0.3007  0.3614
  144OSM    HNF15802   0.966   1.037   6.848  2.2604 -0.2215 -0.1671
  144OSM    C2S15803   1.050   0.916   6.693 -0.4804  0.0279 -0.7577
  144OSM    H2S15804   1.038   0.806   6.683 -0.8023  0.0798 -0.9801
  144OSM    C3S15805   1.196   0.965   6.720 -0.2896  0.3726  0.2404
  144OSM    H3S15806   1.193   1.075   6.738  1.2317  0.2325  1.5487
  144OSM     O315807   1.283   0.957   6.606 -0.0030  0.2714  0.6812
  144OSM    HO315808   1.222   0.941   6.534  0.3560 -2.1706  0.8546
  144OSM    C4S15809   1.256   0.900   6.843  0.0093  0.3106 -0.1914
  144OSM    H4S15810   1.246   0.956   6.937 -0.6425 -1.1446  0.6443
  144OSM    C5S15811   1.331   0.787   6.839  0.6623 -0.2888  0.1848
  144OSM    H5S15812   1.335   0.729   6.746 -2.3100  0.0177 -0.2384
  144OSM    C6S15813   1.405   0.718   6.951 -0.0585  0.0180 -0.1980
  144OSM    H6S15814   1.510   0.706   6.917  0.3655 -0.0104  1.0619
  144OSM    H6T15815   1.375   0.611   6.956 -1.0399  0.1787 -1.8717
  144OSM    C7S15816   1.400   0.772   7.093  0.4988  0.1545  0.0375
  144OSM    H7S15817   1.455   0.868   7.087 -1.4558  1.4424  1.6284
  144OSM    H7T15818   1.460   0.709   7.163  1.2665  0.6429 -0.1699
  144OSM    C8S15819   1.260   0.766   7.154  0.2218 -0.4400  0.1610
  144OSM    H8S15820   1.235   0.671   7.207 -0.3407 -0.9052 -0.9097
  144OSM    H8T15821   1.184   0.776   7.074  1.1379  2.2229 -0.4941
  144OSM    C9S15822   1.227   0.897   7.229  0.0799  0.8453 -0.3225
  144OSM    H9S15823   1.117   0.913   7.227 -0.3009 -1.3437 -3.2340
  144OSM    H9T15824   1.283   0.983   7.186 -0.8593  1.9028  0.5208
  144OSM   C10S15825   1.270   0.907   7.375  0.2066  0.0650  0.3262
  144OSM   H10S15826   1.254   1.015   7.397 -0.2969  0.6825 -2.6740
  144OSM   H10T15827   1.380   0.889   7.372  0.2995  0.6967 -1.9007
  144OSM   C11S15828   1.199   0.811   7.461 -0.1946  0.7664  0.0708
  144OSM   H11S15829   1.224   0.706   7.435  0.7834  0.7940  0.8507
  144OSM   H11T15830   1.089   0.820   7.446 -0.0013 -0.1061 -2.3313
  144OSM   C12S15831   1.229   0.818   7.614  0.1434 -0.0075 -0.2005
  144OSM   H12S15832   1.340   0.821   7.619  0.1748 -1.5136  0.2457
  144OSM   H12T15833   1.189   0.728   7.664  1.8767  0.6440  2.5621
  144OSM   C13S15834   1.165   0.943   7.684 -0.0240  0.1302 -0.4579
  144OSM   H13S15835   1.054   0.940   7.676  0.0167 -1.9345 -0.7374
  144OSM   H13T15836   1.211   1.034   7.641 -0.7139  0.7972  0.1730
  144OSM   C14S15837   1.189   0.926   7.839  0.9109 -0.6226 -0.0247
  144OSM   H14S15838   1.209   0.817   7.850 -2.4911 -1.1735  2.1325
  144OSM   H14T15839   1.099   0.955   7.898  0.5320 -0.8356 -0.4956
  144OSM   C15S15840   1.314   1.002   7.887 -0.2078 -0.0366  0.2533
  144OSM   H15S15841   1.310   1.105   7.846 -0.1644  0.1571  0.7304
  144OSM   H15T15842   1.403   0.951   7.843 -0.5980 -0.4276 -0.0966
  144OSM   C16S15843   1.334   1.000   8.039 -0.1124  0.3040 -0.0091
  144OSM   H16S15844   1.233   0.980   8.081 -0.7595  2.3510 -0.4855
  144OSM   H16T15845   1.363   1.103   8.067  0.1414 -0.0610  1.1152
  144OSM   C17S15846   1.436   0.887   8.089 -0.6155  0.0804 -0.3753
  144OSM   H17S15847   1.539   0.921   8.065 -0.2422 -1.6013 -1.3400
  144OSM   H17T15848   1.438   0.796   8.026  0.2009 -1.0852  1.2583
  144OSM   C18S15849   1.406   0.843   8.232  0.4395 -0.1753  0.1148
  144OSM   H18S15850   1.437   0.738   8.249 -0.5387 -0.4609  0.1536
  144OSM   H18T15851   1.300   0.861   8.256  0.5554 -0.9249  1.2813
  144OSM   H18U15852   1.464   0.912   8.297  1.6997  1.0937 -2.1870
  144OSM    C1F15853   0.838   0.897   6.825 -1.2238 -0.6416 -0.5229
  144OSM     OF15854   0.790   0.814   6.744 -0.3588 -0.3504 -1.1330
  144OSM    C2F15855   0.754   0.948   6.937  0.4340 -0.0170  0.4268
  144OSM    H2F15856   0.645   0.936   6.917  0.3172  2.6055 -0.9650
  144OSM    H2G15857   0.773   1.056   6.953 -0.5191  0.2347 -0.0622
  144OSM    C3F15858   0.784   0.880   7.064  0.7813  0.5068 -0.1436
  144OSM    H3F15859   0.895   0.866   7.068  0.8634  0.8626 -0.8757
  144OSM    H3G15860   0.726   0.785   7.060  0.9869  0.3678  0.1055
  144OSM    C4F15861   0.739   0.949   7.194 -0.3392  0.4346  0.4270
  144OSM    H4F15862   0.632   0.978   7.184 -0.5728 -0.3376  0.5791
  144OSM    H4G15863   0.801   1.040   7.203  1.2348 -0.3809 -1.4894
  144OSM    C5F15864   0.762   0.862   7.315  0.1046 -0.1095 -0.0977
  144OSM    H5F15865   0.865   0.823   7.323  1.2298  2.6931  0.4045
  144OSM    H5G15866   0.693   0.775   7.305  0.2616 -0.1988 -0.4411
  144OSM    C6F15867   0.732   0.941   7.447  0.4359 -0.0535  0.6971
  144OSM    H6F15868   0.631   0.986   7.439  0.1949 -0.7484 -0.3643
  144OSM    H6G15869   0.807   1.022   7.459 -0.2069  0.4099  1.7208
  144OSM    C7F15870   0.745   0.842   7.560 -0.5408  1.3682  0.4587
  144OSM    H7F15871   0.851   0.822   7.589  0.0906  2.4687 -0.9719
  144OSM    H7G15872   0.691   0.748   7.535  0.4689  0.3749  1.7947
  144OSM    C8F15873   0.650   0.871   7.684 -0.0141  0.5063  0.4020
  144OSM    H8F15874   0.648   0.773   7.736 -1.2547 -0.2705 -1.0204
  144OSM    H8G15875   0.548   0.893   7.645  0.0689 -1.0444 -0.7592
  144OSM    C9F15876   0.697   0.978   7.781  0.2753 -1.0960 -0.8007
  144OSM    H9F15877   0.733   1.070   7.733 -0.2455 -0.4380  0.0656
  144OSM   C10F15878   0.709   0.969   7.917  0.6527  0.2277  0.2394
  144OSM   H10F15879   0.728   1.060   7.976 -1.2740  0.0875  1.1779
  144OSM   C11F15880   0.675   0.854   8.005 -0.6583 -0.2588 -0.5633
  144OSM   H11F15881   0.688   0.756   7.954 -1.5367 -0.9777  0.5629
  144OSM   H11G15882   0.575   0.864   8.051  1.1684  1.6441  3.5033
  144OSM   C12F15883   0.778   0.857   8.123  0.3878 -0.0088 -0.2132
  144OSM   H12F15884   0.734   0.799   8.207  1.9923 -0.9083  0.0425
  144OSM   H12G15885   0.787   0.963   8.153  0.2339  0.0613 -0.4162
  144OSM   C13F15886   0.916   0.797   8.103 -0.2444  0.4568 -0.2589
  144OSM   H13F15887   0.963   0.874   8.038  0.9565 -0.2500 -0.2654
  144OSM   H13G15888   0.912   0.696   8.055  0.9439 -0.0242  0.6205
  144OSM   C14F15889   0.998   0.789   8.232 -0.9969 -0.3346 -0.1997
  144OSM   H14F15890   0.992   0.885   8.287  1.1803 -0.7074  0.8089
  144OSM   H14G15891   1.105   0.778   8.203 -1.4376  0.6640 -2.4248
  144OSM   C15F15892   0.967   0.667   8.324 -0.0314 -0.4844  0.0997
  144OSM   H15F15893   0.962   0.579   8.257  0.4207  0.4832 -1.2542
  144OSM   H15G15894   0.868   0.678   8.374 -0.3254 -3.1289  0.2241
  144OSM   C16F15895   1.073   0.648   8.437 -0.2787 -0.3595 -0.3873
  144OSM   H16F15896   1.173   0.623   8.394 -0.3534 -1.1594 -0.1199
  144OSM   H16G15897   1.038   0.560   8.496 -1.1793  0.2890  0.0626
  144OSM   C17F15898   1.087   0.770   8.532 -0.2258  0.4794 -0.1079
  144OSM   H17F15899   0.984   0.798   8.563 -0.7583 -0.2940 -1.0810
  144OSM   H17G15900   1.121   0.856   8.471  0.9262 -0.2115 -0.4574
  144OSM   C18F15901   1.188   0.744   8.652  0.2737 -0.2779 -0.0022
  144OSM   H18F15902   1.177   0.833   8.716 -0.0903  0.9960 -1.7444
  144OSM   H18G15903   1.293   0.720   8.626  0.7268  0.8824  0.7054
  144OSM   H18H15904   1.143   0.658   8.707  0.8116  0.3053  1.3753
  145SAPE     N15905   5.110   2.698  10.756  0.3249  0.4187 -0.5842
  145SAPE   HN115906   5.164   2.727  10.840 -1.6054  0.7546  0.6236
  145SAPE   HN215907   5.174   2.707  10.675 -0.9014  3.5074 -1.3378
  145SAPE   HN315908   5.037   2.772  10.749  0.8368  0.8382 -1.6814
  145SAPE   C1215909   5.044   2.568  10.762  0.5023 -0.8645 -0.1934
  145SAPE  H12A15910   5.037   2.542  10.870 -0.8851  0.5113  0.0967
  145SAPE  H12B15911   5.111   2.494  10.714  0.4497 -2.2970  1.8328
  145SAPE   C1115912   4.910   2.568  10.686 -1.0157  0.5249  0.1075
  145SAPE  H11A15913   4.856   2.473  10.705 -1.7895  0.7083 -1.0573
  145SAPE  H11B15914   4.938   2.562  10.579  2.5587 -0.8614  0.9944
  145SAPE     P15915   4.703   2.722  10.648  0.1960 -0.4262  0.0858
  145SAPE   O1315916   4.625   2.599  10.644  0.1549  0.0651 -0.0723
  145SAPE   O1415917   4.644   2.833  10.729  0.2154 -0.1590 -0.1775
  145SAPE   O1215918   4.834   2.682  10.725  0.1944 -0.2266 -0.0679
  145SAPE   O1115919   4.739   2.775  10.503 -0.0658 -0.0245  0.2694
  145SAPE    C115920   4.841   2.876  10.473  0.1077  0.1687  0.5304
  145SAPE    HA15921   4.909   2.901  10.557  0.7265  1.0980 -0.2196
  145SAPE    HB15922   4.909   2.834  10.396 -0.1447 -1.1340  0.9965
  145SAPE    C215923   4.767   3.012  10.442 -0.2332  0.0731  0.6814
  145SAPE    HS15924   4.736   3.063  10.536  0.4454 -0.5639  1.2578
  145SAPE   O2115925   4.665   2.984  10.343  0.3537 -0.0845 -0.1094
  145SAPE   C2115926   4.541   2.975  10.393  0.6343  0.4116 -0.1499
  145SAPE   O2215927   4.507   2.980  10.510  0.1023  0.2259  0.5788
  145SAPE   C2215928   4.445   2.944  10.282  0.2434  0.9709 -0.3330
  145SAPE   H2R15929   4.492   2.862  10.223 -0.2257  0.3345  0.1711
  145SAPE   H2S15930   4.346   2.909  10.318 -1.2806  2.7750 -2.4740
  145SAPE    C315931   4.863   3.116  10.388  0.3188  0.6361  0.4007
  145SAPE    HX15932   4.952   3.067  10.343 -0.4482 -0.1753 -0.2631
  145SAPE    HY15933   4.901   3.177  10.473  0.4533 -0.0781  0.8568
  145SAPE   O3115934   4.806   3.192  10.281 -0.3603  0.1132 -0.0002
  145SAPE   C3115935   4.757   3.308  10.311 -0.5221  0.1352  0.3252
  145SAPE   O3215936   4.770   3.366  10.415  0.0256  0.2050  0.1537
  145SAPE   C3215937   4.683   3.361  10.188 -1.1348  0.0975 -0.6953
  145SAPE   H2X15938   4.593   3.297  10.180 -3.4867  2.8270  1.6899
  145SAPE   H2Y15939   4.740   3.354  10.093  0.4085  0.7772  0.1521
  145SAPE   C2315940   4.408   3.073  10.199  0.1335 -0.3976  0.2031
  145SAPE   H3R15941   4.501   3.109  10.150  0.4236  1.8342  2.1905
  145SAPE   H3S15942   4.378   3.153  10.270 -2.9335 -1.3725  0.1716
  145SAPE   C2415943   4.292   3.053  10.098 -0.0754 -0.2706 -0.0215
  145SAPE   H4R15944   4.269   3.149  10.047  0.5129  0.0193  0.2489
  145SAPE   H4S15945   4.202   3.026  10.158 -0.1271 -2.9975 -1.1678
  145SAPE   C2515946   4.330   2.954   9.996 -0.4348 -0.7580  0.1084
  145SAPE   H5R15947   4.345   2.857  10.046 -0.5338 -1.1920 -0.6817
  145SAPE   C2615948   4.364   2.970   9.866 -0.2798  0.2488  0.8428
  145SAPE   H6R15949   4.379   2.878   9.808  0.4869 -0.6335  2.3760
  145SAPE   C2715950   4.351   3.100   9.800 -0.3527 -0.7643  0.7164
  145SAPE   H7R15951   4.380   3.186   9.864 -0.1932 -1.4342  1.5772
  145SAPE   H7S15952   4.244   3.115   9.774 -0.6168  1.6693  2.7649
  145SAPE   C2815953   4.435   3.104   9.671  0.4779  0.2418  0.1745
  145SAPE   H8R15954   4.499   3.017   9.651  0.1911  0.3799 -1.4665
  145SAPE   C2915955   4.423   3.199   9.584 -0.0535  0.1865  0.0319
  145SAPE   H9R15956   4.490   3.194   9.497  1.8519  0.7954  1.3893
  145SAPE  C21015957   4.339   3.322   9.582  0.4376  1.3448  0.1309
  145SAPE  H10R15958   4.283   3.327   9.678  0.8360  1.9738  0.3410
  145SAPE  H10S15959   4.256   3.310   9.509  0.0778 -1.6674  0.9119
  145SAPE  C21115960   4.425   3.447   9.570 -0.3516  0.5518  0.2459
  145SAPE  H11R15961   4.522   3.450   9.622 -0.0735  1.0426 -0.2895
  145SAPE  C21215962   4.387   3.553   9.503  0.1867 -0.5943  0.3932
  145SAPE  H12R15963   4.455   3.640   9.503 -0.4467 -0.0929  0.3810
  145SAPE  C21315964   4.259   3.578   9.430  0.0905  0.0883  0.0037
  145SAPE  H13R15965   4.166   3.553   9.486  1.3235 -0.7933  1.7261
  145SAPE  H13S15966   4.260   3.516   9.338 -1.6586 -0.5697  0.3807
  145SAPE  C21415967   4.228   3.722   9.400 -0.8102 -0.3975 -0.5588
  145SAPE  H14R15968   4.234   3.785   9.490 -0.2076 -0.8288 -0.2864
  145SAPE  C21515969   4.197   3.781   9.286  0.3322 -0.1000  0.9770
  145SAPE  H15R15970   4.194   3.891   9.288 -0.1003 -0.0718 -0.3456
  145SAPE  C21615971   4.183   3.717   9.143  0.7397 -0.5945 -0.0528
  145SAPE  H16R15972   4.143   3.800   9.081  0.9462  1.4162  2.3088
  145SAPE  H16S15973   4.088   3.661   9.133  0.0383  0.4770  0.3233
  145SAPE  C21715974   4.303   3.653   9.074 -0.1312  0.2892  0.0273
  145SAPE  H17R15975   4.338   3.560   9.123  2.1770 -0.0447 -2.0179
  145SAPE  H17S15976   4.392   3.719   9.081  0.3651 -0.3815  0.0978
  145SAPE  C21815977   4.286   3.624   8.922 -0.5666 -0.4884 -0.1168
  145SAPE  H18R15978   4.205   3.549   8.910 -2.4150  1.4922 -0.6077
  145SAPE  H18S15979   4.381   3.588   8.877 -1.1285 -1.3274 -0.6513
  145SAPE  C21915980   4.230   3.747   8.860 -0.6786  0.3512  0.2979
  145SAPE  H19R15981   4.283   3.835   8.903 -2.9531  2.0825 -0.2402
  145SAPE  H19S15982   4.120   3.759   8.869 -0.6470  0.4306  0.6036
  145SAPE  C22015983   4.264   3.753   8.710 -0.6742 -0.0343 -0.0930
  145SAPE  H20R15984   4.194   3.826   8.663 -0.4291  0.6725  0.6149
  145SAPE  H20S15985   4.269   3.655   8.658 -1.3569  0.6071 -1.4298
  145SAPE  H20T15986   4.370   3.788   8.707 -0.8742  0.8430  1.8540
  145SAPE   C3315987   4.641   3.504  10.215  0.5395 -0.1137 -0.0995
  145SAPE   H3X15988   4.725   3.569  10.247  0.9464 -0.8026  0.2746
  145SAPE   H3Y15989   4.559   3.506  10.289  2.1601  0.1108  1.7750
  145SAPE   C3415990   4.577   3.564  10.083  0.1638 -0.1578 -0.1656
  145SAPE   H4X15991   4.647   3.557   9.997 -1.2723 -0.8332 -1.3266
  145SAPE   H4Y15992   4.559   3.673  10.094  1.8000  0.0556  0.6018
  145SAPE   C3515993   4.444   3.490  10.041 -0.6101  0.3176 -0.0081
  145SAPE   H5X15994   4.374   3.494  10.127 -0.7737 -2.2124  0.0361
  145SAPE   H5Y15995   4.459   3.384  10.011 -0.0827  0.5471 -0.5891
  145SAPE   C3615996   4.369   3.554   9.921  0.3039  0.6271  1.0327
  145SAPE   H6X15997   4.404   3.502   9.829  1.4106  1.5830  0.8800
  145SAPE   H6Y15998   4.405   3.659   9.915 -1.5481  1.3571  1.8555
  145SAPE   C3715999   4.214   3.547   9.934 -0.3760 -0.1153 -0.6744
  145SAPE   H7X16000   4.186   3.440   9.934 -2.6355  0.4004  0.1140
  145SAPE   H7Y16001   4.170   3.597   9.844  0.1135 -2.2116 -2.1654
  145SAPE   C3816002   4.146   3.604  10.058  0.3462  0.8123 -0.6612
  145SAPE   H8X16003   4.172   3.545  10.149 -0.5512  1.6889  0.1899
  145SAPE   H8Y16004   4.035   3.600  10.059  0.2670  0.8323  2.7306
  145SAPE   C3916005   4.172   3.755  10.092 -0.9282 -0.7445 -0.0925
  145SAPE   H9X16006   4.280   3.764  10.115 -0.6690 -2.0443 -0.7179
  145SAPE   H9Y16007   4.112   3.793  10.177 -0.1899  1.0218 -0.3271
  145SAPE  C31016008   4.137   3.859   9.984  0.3944  0.1685 -0.3484
  145SAPE  H10X16009   4.030   3.865   9.957 -0.0588  1.7459  1.5956
  145SAPE  H10Y16010   4.194   3.819   9.897 -1.6495 -0.0034 -1.6772
  145SAPE  C31116011   4.175   4.003  10.014 -0.1506  0.2199 -0.2024
  145SAPE  H11X16012   4.173   4.067   9.923 -0.5617 -0.0506 -0.3841
  145SAPE  H11Y16013   4.276   4.005  10.060 -0.0616 -2.9179 -0.0667
  145SAPE  C31216014   4.083   4.068  10.121 -0.5601 -0.6490  0.5033
  145SAPE  H12X16015   4.104   4.025  10.221  4.2571 -1.9052 -0.7581
  145SAPE  H12Y16016   3.978   4.041  10.100 -1.1193  1.4606  0.3196
  145SAPE  C31316017   4.107   4.216  10.138 -0.0559  0.7379  0.1593
  145SAPE  H13X16018   4.119   4.257  10.035  0.8659 -2.8787 -1.3374
  145SAPE  H13Y16019   4.206   4.231  10.186  0.3869 -0.7878 -0.2419
  145SAPE  C31416020   4.002   4.280  10.233 -0.2440  0.3106 -0.2559
  145SAPE  H14X16021   4.005   4.237  10.335  1.0877 -0.3701 -0.5640
  145SAPE  H14Y16022   3.900   4.271  10.189 -0.5924 -1.1058  0.7684
  145SAPE  C31516023   4.033   4.439  10.241  0.7195 -0.3599 -0.2109
  145SAPE  H15X16024   4.032   4.480  10.138  0.2447 -1.9732 -0.8877
  145SAPE  H15Y16025   4.129   4.444  10.297  0.4942  1.0780  0.0722
  145SAPE  C31616026   3.932   4.512  10.326  0.8506 -0.1022  1.0596
  145SAPE  H16X16027   3.959   4.620  10.322  0.2968  0.0416 -2.9017
  145SAPE  H16Y16028   3.942   4.467  10.427 -0.5509 -0.0204  1.2603
  145SAPE  C31716029   3.792   4.502  10.272  0.2678 -0.0918  0.0801
  145SAPE  H17X16030   3.750   4.400  10.281 -0.4460 -0.1520 -2.8398
  145SAPE  H17Y16031   3.792   4.526  10.164  1.3223  3.7196  0.7783
  145SAPE  C31816032   3.696   4.602  10.342  0.7713  0.0844 -0.2718
  145SAPE  H18X16033   3.750   4.699  10.340  1.6069 -0.3489  0.1957
  145SAPE  H18Y16034   3.673   4.576  10.447  1.7697 -0.2913 -0.1298
  145SAPE  H18Z16035   3.607   4.620  10.278  0.8502 -2.4223 -1.2173
  146SAPE     N16036   2.892   4.139  11.183 -0.1564 -0.3472 -0.0324
  146SAPE   HN116037   2.975   4.161  11.241 -1.3143  0.4772  1.3975
  146SAPE   HN216038   2.815   4.132  11.253 -0.0141  0.9788  0.2853
  146SAPE   HN316039   2.932   4.051  11.144 -1.0430 -0.8402  0.1447
  146SAPE   C1216040   2.866   4.227  11.072 -0.3009 -0.6262 -0.1019
  146SAPE  H12A16041   2.962   4.238  11.016 -0.6069  2.6433 -0.1817
  146SAPE  H12B16042   2.833   4.325  11.112  0.9608 -0.4215  0.4843
  146SAPE   C1116043   2.743   4.180  10.982 -0.4257 -0.3434 -0.3051
  146SAPE  H11A16044   2.654   4.155  11.043 -2.0285  0.6379 -2.1102
  146SAPE  H11B16045   2.785   4.093  10.927  0.7033 -0.2439  0.3916
  146SAPE     P16046   2.581   4.373  10.886 -0.0162  0.6664 -0.3096
  146SAPE   O1316047   2.487   4.322  10.986 -0.0432 -0.1059  0.2297
  146SAPE   O1416048   2.616   4.513  10.900 -0.2271  0.1341  0.6954
  146SAPE   O1216049   2.708   4.281  10.886  0.4655  0.1906 -0.2897
  146SAPE   O1116050   2.516   4.351  10.748  0.1387  0.1374 -0.4504
  146SAPE    C116051   2.538   4.229  10.680 -0.3009  0.1792  0.5958
  146SAPE    HA16052   2.533   4.247  10.571  0.8966 -0.8504  0.3433
  146SAPE    HB16053   2.638   4.181  10.684 -0.3572  0.0902  1.0521
  146SAPE    C216054   2.444   4.114  10.721 -0.3041 -0.1819  0.1433
  146SAPE    HS16055   2.474   4.094  10.826 -0.5569 -0.3857  0.1780
  146SAPE   O2116056   2.471   4.008  10.626 -0.6911 -0.3832 -0.5592
  146SAPE   C2116057   2.550   3.906  10.668 -0.1666  0.2657 -0.8529
  146SAPE   O2216058   2.592   3.886  10.781 -0.3434 -0.1189  0.0564
  146SAPE   C2216059   2.577   3.807  10.559 -0.3169  0.3779 -0.0697
  146SAPE   H2R16060   2.665   3.743  10.580  0.0593  0.1451 -2.0813
  146SAPE   H2S16061   2.485   3.746  10.549 -0.8235  1.2949 -1.3220
  146SAPE    C316062   2.297   4.159  10.726  0.1999 -0.1206  0.7649
  146SAPE    HX16063   2.294   4.253  10.786 -0.8045  0.9712 -0.9248
  146SAPE    HY16064   2.239   4.093  10.796 -2.5810 -0.2453 -1.4708
  146SAPE   O3116065   2.227   4.184  10.604  0.2731  0.6177  0.0663
  146SAPE   C3116066   2.154   4.082  10.546 -0.4674 -0.4883 -0.1327
  146SAPE   O3216067   2.117   3.980  10.605  0.4559  0.5129 -0.0561
  146SAPE   C3216068   2.101   4.140  10.419  0.1646 -0.6614 -0.4218
  146SAPE   H2X16069   2.063   4.241  10.445 -1.3541 -2.0514  3.4598
  146SAPE   H2Y16070   2.002   4.093  10.398 -0.3921  0.2729  0.0465
  146SAPE   C2316071   2.637   3.856  10.425  0.0798 -0.2576  0.3372
  146SAPE   H3R16072   2.725   3.923  10.435 -0.8383  1.5225 -2.4287
  146SAPE   H3S16073   2.558   3.909  10.368  1.4232  1.6143  0.1075
  146SAPE   C2416074   2.689   3.733  10.335 -0.0728 -0.3544  0.4546
  146SAPE   H4R16075   2.605   3.664  10.313 -2.2843  2.0969  0.7090
  146SAPE   H4S16076   2.766   3.674  10.390  1.6203  2.5554  1.4573
  146SAPE   C2516077   2.753   3.772  10.207 -0.3691  1.6087  0.5854
  146SAPE   H5R16078   2.862   3.785  10.207 -0.3626  1.5485  0.8519
  146SAPE   C2616079   2.689   3.785  10.087  0.1932 -0.1348 -0.9603
  146SAPE   H6R16080   2.749   3.808   9.998  1.6502  0.9376  0.2432
  146SAPE   C2716081   2.547   3.775  10.068  0.4085 -0.9014  0.8310
  146SAPE   H7R16082   2.502   3.874  10.045 -0.2263 -1.0263  1.4629
  146SAPE   H7S16083   2.485   3.745  10.156  0.0118  0.0967  0.9132
  146SAPE   C2816084   2.509   3.676   9.959  0.0338 -0.0990 -0.4760
  146SAPE   H8R16085   2.471   3.582  10.001 -0.8539  0.5968  0.3162
  146SAPE   C2916086   2.516   3.685   9.822 -0.3949 -0.5201 -0.5901
  146SAPE   H9R16087   2.486   3.594   9.769 -2.2829 -1.1421  1.3997
  146SAPE  C21016088   2.556   3.807   9.749  0.3931 -0.2389  0.3445
  146SAPE  H10R16089   2.531   3.898   9.809 -1.2347 -1.1705  1.1405
  146SAPE  H10S16090   2.478   3.810   9.669  1.2491 -1.4097 -0.5699
  146SAPE  C21116091   2.689   3.820   9.685  0.3343 -0.1948  0.0699
  146SAPE  H11R16092   2.771   3.827   9.758 -0.0038  1.2463  0.3518
  146SAPE  C21216093   2.718   3.808   9.550  0.7190 -0.3044  0.1277
  146SAPE  H12R16094   2.826   3.813   9.527  0.5605 -0.1548 -0.6127
  146SAPE  C21316095   2.629   3.789   9.435  0.2242  0.5375  0.6974
  146SAPE  H13R16096   2.660   3.868   9.364 -0.8265  0.4436  0.1144
  146SAPE  H13S16097   2.520   3.796   9.457  0.2414 -2.1457  2.1075
  146SAPE  C21416098   2.648   3.657   9.356  0.0501 -0.1322  0.0079
  146SAPE  H14R16099   2.590   3.571   9.393  1.4782 -2.2543 -2.3721
  146SAPE  C21516100   2.734   3.626   9.259 -0.4229  0.3240 -0.0125
  146SAPE  H15R16101   2.737   3.524   9.218  1.6532  0.1182  0.5358
  146SAPE  C21616102   2.846   3.714   9.211 -0.7812 -0.4232  0.4334
  146SAPE  H16R16103   2.854   3.803   9.277 -3.7411  1.6523 -1.7462
  146SAPE  H16S16104   2.818   3.755   9.112 -0.0897  1.1954  0.8779
  146SAPE  C21716105   2.975   3.627   9.209  0.0643  0.8334  0.3485
  146SAPE  H17R16106   2.983   3.560   9.121  0.4435  2.2422 -0.7258
  146SAPE  H17S16107   2.998   3.564   9.298 -0.4943 -0.9071 -0.6903
  146SAPE  C21816108   3.090   3.735   9.208 -0.3384 -0.3259 -0.3723
  146SAPE  H18R16109   3.105   3.779   9.309 -0.0219 -1.6843  0.1907
  146SAPE  H18S16110   3.066   3.820   9.141  0.2361  0.3909  0.3034
  146SAPE  C21916111   3.225   3.670   9.176 -1.0244  0.3105  0.0382
  146SAPE  H19R16112   3.226   3.619   9.078  2.1060  0.1219  0.0758
  146SAPE  H19S16113   3.233   3.596   9.259  0.7990  0.7912  0.3438
  146SAPE  C22016114   3.347   3.763   9.195  0.2786  0.5061  0.5874
  146SAPE  H20R16115   3.369   3.769   9.304  1.1636  1.2052  0.3856
  146SAPE  H20S16116   3.333   3.861   9.146 -1.4788 -0.8651 -1.8255
  146SAPE  H20T16117   3.438   3.712   9.156 -0.3792 -2.4875  2.5881
  146SAPE   C3316118   2.191   4.147  10.295 -0.3411  0.0533 -0.5734
  146SAPE   H3X16119   2.234   4.044  10.284 -0.2926 -0.1640  1.3061
  146SAPE   H3Y16120   2.281   4.209  10.317 -0.1494 -0.5601  0.4539
  146SAPE   C3416121   2.133   4.190  10.161  0.1033 -0.9761  0.3679
  146SAPE   H4X16122   2.131   4.299  10.139  1.3873 -0.8365  0.8627
  146SAPE   H4Y16123   2.028   4.154  10.167  0.7950 -2.8322  2.9490
  146SAPE   C3516124   2.216   4.135  10.052  0.0813 -0.2396  0.2008
  146SAPE   H5X16125   2.230   4.026  10.068  0.4919  0.1734  3.1325
  146SAPE   H5Y16126   2.310   4.194  10.039  0.5907 -0.8441  1.0525
  146SAPE   C3616127   2.143   4.124   9.910 -0.2625 -0.5730  0.0934
  146SAPE   H6X16128   2.103   4.226   9.890  1.6744  0.6318  2.0176
  146SAPE   H6Y16129   2.051   4.066   9.932  0.5711 -1.2599  1.9525
  146SAPE   C3716130   2.232   4.073   9.805 -0.2228 -0.0855  0.3085
  146SAPE   H7X16131   2.290   3.982   9.830  1.9550 -0.0552 -3.6626
  146SAPE   H7Y16132   2.308   4.153   9.795  1.7634 -2.0093 -0.8576
  146SAPE   C3816133   2.160   4.046   9.669 -0.1522 -0.9731  0.0371
  146SAPE   H8X16134   2.089   4.128   9.645 -0.0784 -1.6327 -2.8047
  146SAPE   H8Y16135   2.086   3.964   9.680 -2.6693  1.1706  0.3469
  146SAPE   C3916136   2.256   4.059   9.556 -0.1792 -0.2732 -0.0689
  146SAPE   H9X16137   2.328   3.975   9.544 -0.5706 -0.5630 -0.4361
  146SAPE   H9Y16138   2.323   4.146   9.572 -1.5435  1.0039 -1.0766
  146SAPE  C31016139   2.181   4.081   9.420 -0.4348 -0.0473  0.2841
  146SAPE  H10X16140   2.127   4.178   9.418 -2.3144 -1.0510  0.4785
  146SAPE  H10Y16141   2.104   4.002   9.419 -0.3721 -0.1690 -2.8696
  146SAPE  C31116142   2.270   4.066   9.297 -0.0988  0.7241 -0.3599
  146SAPE  H11X16143   2.316   3.967   9.280 -1.0527  0.2968 -0.5552
  146SAPE  H11Y16144   2.356   4.135   9.311 -0.3370  1.1521 -0.9559
  146SAPE  C31216145   2.220   4.115   9.161  0.3540 -0.1357  0.1263
  146SAPE  H12X16146   2.305   4.167   9.114  1.0656 -0.3991  1.0987
  146SAPE  H12Y16147   2.137   4.188   9.170 -0.4869 -1.1948  1.4208
  146SAPE  C31316148   2.172   4.001   9.067 -0.0754 -0.0421 -0.8059
  146SAPE  H13X16149   2.117   4.025   8.973 -3.3237 -3.8682 -0.1710
  146SAPE  H13Y16150   2.095   3.939   9.118 -1.5652  3.0145  0.9062
  146SAPE  C31416151   2.295   3.928   9.004 -0.1086 -0.3623  0.2215
  146SAPE  H14X16152   2.349   3.864   9.078 -0.8662 -4.0076 -2.0934
  146SAPE  H14Y16153   2.358   4.006   8.958 -1.3321 -0.0219 -0.9689
  146SAPE  C31516154   2.250   3.819   8.902 -0.0765  0.4355  0.7567
  146SAPE  H15X16155   2.179   3.871   8.834 -1.0516 -1.4624  0.2552
  146SAPE  H15Y16156   2.194   3.744   8.963 -0.5211 -0.0601 -0.2487
  146SAPE  C31616157   2.364   3.747   8.816  0.3993 -0.0355 -0.4177
  146SAPE  H16X16158   2.408   3.819   8.744 -1.1929  0.1370 -1.2600
  146SAPE  H16Y16159   2.305   3.673   8.757 -0.1840 -1.4856  1.8521
  146SAPE  C31716160   2.470   3.668   8.886 -0.0721 -0.7907  0.3017
  146SAPE  H17X16161   2.469   3.569   8.836  0.0159  0.1259 -1.5956
  146SAPE  H17Y16162   2.449   3.659   8.995 -3.1923  0.8875 -0.0531
  146SAPE  C31816163   2.608   3.730   8.878  1.0400 -0.6061 -0.3773
  146SAPE  H18X16164   2.609   3.834   8.916  0.1994 -1.3437  1.7822
  146SAPE  H18Y16165   2.645   3.738   8.773  1.7667 -3.3035 -0.4039
  146SAPE  H18Z16166   2.692   3.678   8.928  0.9317  0.0720  0.5249
  147SAPE     N16167   6.024   0.162  10.830  0.0366 -0.3157 -1.0802
  147SAPE   HN116168   6.017   0.256  10.874 -0.3128 -0.6965 -0.3006
  147SAPE   HN216169   6.062   0.109  10.911  1.2085  1.4236 -0.4239
  147SAPE   HN316170   6.094   0.159  10.753 -0.2433  1.6499 -1.4714
  147SAPE   C1216171   5.897   0.108  10.770  0.1342 -0.2131 -0.6762
  147SAPE  H12A16172   5.923   0.014  10.718  3.0068  0.2703 -0.2952
  147SAPE  H12B16173   5.869   0.177  10.687 -0.6067 -1.6292 -1.6433
  147SAPE   C1116174   5.785   0.092  10.871 -0.6876 -0.3793  0.5303
  147SAPE  H11A16175   5.692   0.085  10.811 -0.5498  0.2624  0.2369
  147SAPE  H11B16176   5.778   0.188  10.927  0.1216 -0.0443  0.0691
  147SAPE     P16177   5.805  -0.164  10.902  0.0320 -0.3053  0.2696
  147SAPE   O1316178   5.941  -0.223  10.889  1.3960  0.0778  0.5402
  147SAPE   O1416179   5.700  -0.233  10.984 -0.8352  0.7947  0.0268
  147SAPE   O1216180   5.818  -0.017  10.962 -0.3625  0.2328  0.0559
  147SAPE   O1116181   5.743  -0.158  10.758 -0.2034  0.2528  0.0024
  147SAPE    C116182   5.794  -0.229  10.643 -0.2289  0.1148 -0.1378
  147SAPE    HA16183   5.772  -0.173  10.550 -0.2425 -0.2477 -0.3546
  147SAPE    HB16184   5.902  -0.250  10.650 -0.3019  0.2082  1.9544
  147SAPE    C216185   5.723  -0.365  10.611  0.1207  0.5379  0.3025
  147SAPE    HS16186   5.732  -0.433  10.698 -1.6554 -0.4153 -0.2345
  147SAPE   O2116187   5.787  -0.413  10.488 -0.2985  0.2062  0.4179
  147SAPE   C2116188   5.890  -0.483  10.502 -0.9111  0.0825 -0.3317
  147SAPE   O2216189   5.943  -0.524  10.610 -0.2037 -0.6594 -0.0714
  147SAPE   C2216190   5.959  -0.511  10.365 -0.0303  0.0463  0.2269
  147SAPE   H2R16191   5.878  -0.494  10.291 -1.5952  1.9031  2.2512
  147SAPE   H2S16192   6.027  -0.425  10.349 -0.0186 -0.1876 -1.1411
  147SAPE    C316193   5.575  -0.338  10.596  0.3488 -0.1154  0.5490
  147SAPE    HX16194   5.566  -0.230  10.572 -2.0610 -0.6927 -1.6153
  147SAPE    HY16195   5.523  -0.347  10.694 -1.2478 -2.1390 -0.3900
  147SAPE   O3116196   5.517  -0.415  10.489  0.4639  0.2884 -0.3471
  147SAPE   C3116197   5.478  -0.539  10.528  1.2440 -0.3382 -0.5032
  147SAPE   O3216198   5.499  -0.591  10.633  0.6802 -0.0804 -0.5058
  147SAPE   C3216199   5.408  -0.598  10.408 -0.2842  0.3828  0.2654
  147SAPE   H2X16200   5.385  -0.527  10.326  3.0433  0.3203 -0.8666
  147SAPE   H2Y16201   5.323  -0.656  10.451 -0.9889  1.4570  0.3827
  147SAPE   C2316202   6.010  -0.657  10.357 -0.5659 -0.0150  0.3191
  147SAPE   H3R16203   5.919  -0.720  10.363 -0.2014 -0.5235  0.6223
  147SAPE   H3S16204   6.079  -0.672  10.443  0.8330  1.2895 -0.5201
  147SAPE   C2416205   6.094  -0.683  10.221  0.4119 -0.6584 -0.1207
  147SAPE   H4R16206   6.123  -0.789  10.240 -1.0118 -0.9958  0.3062
  147SAPE   H4S16207   6.190  -0.628  10.216  0.9099 -1.4309  0.7218
  147SAPE   C2516208   6.015  -0.659  10.095  1.1818 -1.2194  0.0618
  147SAPE   H5R16209   5.961  -0.563  10.088 -0.3625 -1.9186  1.6858
  147SAPE   C2616210   5.988  -0.751   9.999  0.4294  0.3710  0.1644
  147SAPE   H6R16211   5.925  -0.718   9.915  0.3053 -0.7398 -0.1867
  147SAPE   C2716212   6.043  -0.892   9.995  0.2056  0.2198 -0.2827
  147SAPE   H7R16213   6.028  -0.938  10.095  1.2784  1.4952  0.5009
  147SAPE   H7S16214   6.153  -0.887   9.982  0.1942 -0.8457 -0.9208
  147SAPE   C2816215   5.973  -0.966   9.883 -0.4298  1.1334 -0.8384
  147SAPE   H8R16216   5.873  -1.000   9.913  0.9895 -1.1974  1.6699
  147SAPE   C2916217   6.019  -1.008   9.762  0.5147 -0.3168  0.3154
  147SAPE   H9R16218   5.945  -1.064   9.703  0.1450 -0.0644  0.5330
  147SAPE  C21016219   6.158  -0.998   9.702  0.0314 -0.2099 -0.0514
  147SAPE  H10R16220   6.218  -0.949   9.781 -0.2036  1.6621 -0.9632
  147SAPE  H10S16221   6.160  -0.912   9.631 -1.4942 -1.2857 -1.4733
  147SAPE  C21116222   6.241  -1.101   9.629  0.3917 -0.2904  0.4902
  147SAPE  H11R16223   6.308  -1.165   9.689 -1.2188  0.5701  3.4279
  147SAPE  C21216224   6.212  -1.137   9.501  0.0277 -0.0237 -0.1226
  147SAPE  H12R16225   6.283  -1.203   9.448  1.4636  2.3237 -1.2835
  147SAPE  C21316226   6.103  -1.090   9.407 -0.2712 -0.1065 -0.6799
  147SAPE  H13R16227   6.077  -0.983   9.422  0.5251 -0.2131  1.9548
  147SAPE  H13S16228   6.013  -1.149   9.432  0.1251 -0.4528 -0.0662
  147SAPE  C21416229   6.143  -1.104   9.266  0.3147  0.1205  0.5561
  147SAPE  H14R16230   6.208  -1.022   9.232 -0.2224  0.6224  0.7203
  147SAPE  C21516231   6.118  -1.202   9.177  0.3823 -0.8754 -0.4344
  147SAPE  H15R16232   6.139  -1.179   9.072  0.4440 -0.8796 -0.4231
  147SAPE  C21616233   6.023  -1.317   9.206 -0.1614  0.0922  0.1674
  147SAPE  H16R16234   6.000  -1.331   9.314  1.6210  0.5282  0.6238
  147SAPE  H16S16235   6.072  -1.411   9.173  0.0275 -0.2449  1.3611
  147SAPE  C21716236   5.886  -1.304   9.128 -1.0454 -0.8213  0.3526
  147SAPE  H17R16237   5.831  -1.209   9.146 -0.8549 -0.8671  1.1935
  147SAPE  H17S16238   5.821  -1.388   9.161 -1.1809 -1.2252 -0.8793
  147SAPE  C21816239   5.923  -1.339   8.981 -0.0412 -0.5990  0.4887
  147SAPE  H18R16240   5.978  -1.434   8.999  2.2248  0.3387 -1.0507
  147SAPE  H18S16241   5.994  -1.268   8.933  0.4876 -1.5703 -0.1936
  147SAPE  C21916242   5.821  -1.371   8.875  0.1785 -0.0888 -0.4167
  147SAPE  H19R16243   5.769  -1.280   8.837  0.3924 -0.0172 -0.5437
  147SAPE  H19S16244   5.732  -1.423   8.916  0.2233 -2.1931 -2.7969
  147SAPE  C22016245   5.881  -1.457   8.762  0.5226  0.2608  0.6676
  147SAPE  H20R16246   5.918  -1.557   8.792  1.0001  0.0191 -0.6904
  147SAPE  H20S16247   5.955  -1.395   8.706  0.8265 -0.7144 -0.0339
  147SAPE  H20T16248   5.805  -1.467   8.682  0.7614  0.3338  0.4300
  147SAPE   C3316249   5.504  -0.709  10.349  0.1082  0.7740 -0.2873
  147SAPE   H3X16250   5.513  -0.782  10.432  0.1535 -0.0266 -0.9815
  147SAPE   H3Y16251   5.603  -0.667  10.322  1.3876 -0.8124  1.6087
  147SAPE   C3416252   5.449  -0.790  10.233  1.1403  0.2775 -0.1561
  147SAPE   H4X16253   5.387  -0.709  10.188  0.7875  0.1823  0.1432
  147SAPE   H4Y16254   5.374  -0.867  10.263  0.5693 -0.4931 -3.2754
  147SAPE   C3516255   5.546  -0.857  10.145  0.2326 -0.6286  0.1299
  147SAPE   H5X16256   5.593  -0.948  10.188  0.0055 -0.6892  0.2519
  147SAPE   H5Y16257   5.629  -0.784  10.135  0.0300 -0.2284  1.1716
  147SAPE   C3616258   5.485  -0.877  10.007  0.5563  0.4106  0.4435
  147SAPE   H6X16259   5.442  -0.781   9.972 -1.1090 -0.1501  0.8311
  147SAPE   H6Y16260   5.407  -0.957  10.009  0.4914  0.4775  0.5998
  147SAPE   C3716261   5.594  -0.930   9.905 -0.5116  0.3544  0.4841
  147SAPE   H7X16262   5.621  -1.035   9.930  1.3953  1.1694  2.2036
  147SAPE   H7Y16263   5.691  -0.877   9.919  1.5732 -2.9162 -0.5258
  147SAPE   C3816264   5.549  -0.940   9.754 -0.1875  0.2840 -0.0894
  147SAPE   H8X16265   5.565  -0.835   9.721 -1.3718  0.2596 -0.8225
  147SAPE   H8Y16266   5.440  -0.961   9.745 -0.3031  0.2708  1.1451
  147SAPE   C3916267   5.608  -1.042   9.670 -0.6216  0.4938  0.5460
  147SAPE   H9X16268   5.601  -1.138   9.725  0.2037  1.5690  2.6305
  147SAPE   H9Y16269   5.718  -1.026   9.668  0.0708 -3.2114 -1.1300
  147SAPE  C31016270   5.535  -1.067   9.529 -0.0091 -0.0379  0.3076
  147SAPE  H10X16271   5.534  -0.964   9.487  1.9467  0.0167  0.3012
  147SAPE  H10Y16272   5.428  -1.085   9.553 -0.0690  0.4565  0.4307
  147SAPE  C31116273   5.597  -1.171   9.442  0.0622 -0.5269  1.1748
  147SAPE  H11X16274   5.628  -1.256   9.506 -1.5694 -2.6625 -0.6729
  147SAPE  H11Y16275   5.686  -1.133   9.387  0.0664 -2.7785 -0.5463
  147SAPE  C31216276   5.492  -1.211   9.334 -1.0665  0.2324 -0.4761
  147SAPE  H12X16277   5.526  -1.146   9.250  2.3518  1.0480  1.3563
  147SAPE  H12Y16278   5.400  -1.165   9.373 -1.9818 -1.1780 -0.8965
  147SAPE  C31316279   5.477  -1.358   9.292  0.4310 -0.1488  0.2438
  147SAPE  H13X16280   5.462  -1.410   9.389  1.7022  1.6715  1.4834
  147SAPE  H13Y16281   5.565  -1.386   9.230  1.4915 -0.0455  1.6468
  147SAPE  C31416282   5.357  -1.388   9.202  0.8039 -0.5054 -0.3727
  147SAPE  H14X16283   5.264  -1.338   9.237 -0.0430 -1.8445 -0.6322
  147SAPE  H14Y16284   5.332  -1.496   9.197 -2.7676  0.2320 -1.2663
  147SAPE  C31516285   5.378  -1.331   9.057  0.3367  0.4028  0.3637
  147SAPE  H15X16286   5.442  -1.401   8.999 -1.8239 -0.3486 -1.2592
  147SAPE  H15Y16287   5.428  -1.232   9.068 -1.1633  1.3640 -0.9191
  147SAPE  C31616288   5.243  -1.325   8.976 -0.3726  0.1615 -0.2765
  147SAPE  H16X16289   5.166  -1.390   9.023 -1.6159  1.2761 -0.7015
  147SAPE  H16Y16290   5.263  -1.367   8.875 -1.4631  1.7676 -1.2180
  147SAPE  C31716291   5.191  -1.184   8.956 -0.3670  0.4170 -0.1571
  147SAPE  H17X16292   5.272  -1.113   8.929  1.0235 -0.4961  1.3951
  147SAPE  H17Y16293   5.146  -1.142   9.049  4.7419 -1.8021  3.8287
  147SAPE  C31816294   5.093  -1.174   8.845  0.5279 -0.3710  0.2038
  147SAPE  H18X16295   4.997  -1.209   8.888 -0.3526  1.1687 -0.4500
  147SAPE  H18Y16296   5.122  -1.237   8.758  1.4545 -0.2273  0.3926
  147SAPE  H18Z16297   5.069  -1.071   8.810 -0.9969  0.1359  2.4966
  148SAPE     N16298   0.692   3.249  10.921 -0.2651  0.2691 -0.1412
  148SAPE   HN116299   0.769   3.179  10.912  0.2480  0.9839 -1.9739
  148SAPE   HN216300   0.734   3.334  10.963 -0.8564  0.8368 -0.6639
  148SAPE   HN316301   0.622   3.207  10.985  0.2638 -0.8931 -0.2986
  148SAPE   C1216302   0.632   3.285  10.790  0.2504  0.0380  0.2410
  148SAPE  H12A16303   0.603   3.188  10.743  0.0853  0.3109 -0.2364
  148SAPE  H12B16304   0.701   3.343  10.725  1.2125  1.0725  2.1099
  148SAPE   C1116305   0.513   3.373  10.808  0.2040 -0.3569  0.4479
  148SAPE  H11A16306   0.492   3.413  10.706 -1.5275 -2.5865 -0.1419
  148SAPE  H11B16307   0.543   3.465  10.863  0.4750  0.4183 -0.9522
  148SAPE     P16308   0.298   3.225  10.799  0.2528  0.0217 -0.0752
  148SAPE   O1316309   0.349   3.099  10.745  0.1746 -0.1949  0.6122
  148SAPE   O1416310   0.192   3.203  10.896 -0.0177 -0.7489  0.0806
  148SAPE   O1216311   0.410   3.307  10.867  0.1417 -0.1898  0.5266
  148SAPE   O1116312   0.249   3.333  10.691 -0.3067 -0.3804 -0.3529
  148SAPE    C116313   0.178   3.282  10.573 -0.2620  0.7013 -0.0402
  148SAPE    HA16314   0.096   3.214  10.603 -0.0282  1.3878  2.3651
  148SAPE    HB16315   0.116   3.356  10.519 -2.1501 -0.1798  0.8400
  148SAPE    C216316   0.263   3.246  10.453  0.1843  0.8791  0.3897
  148SAPE    HS16317   0.315   3.151  10.476  2.2916  1.6729 -0.8911
  148SAPE   O2116318   0.353   3.352  10.420 -0.0950 -0.2678  0.7559
  148SAPE   C2116319   0.473   3.306  10.377 -0.1044 -0.2757  0.0027
  148SAPE   O2216320   0.501   3.187  10.373  0.4800 -0.4541  0.3543
  148SAPE   C2216321   0.571   3.423  10.367 -0.4914 -0.0823  0.0276
  148SAPE   H2R16322   0.530   3.512  10.314 -0.2914 -0.3277 -0.5423
  148SAPE   H2S16323   0.578   3.449  10.475 -1.0544  2.4619 -0.4844
  148SAPE    C316324   0.172   3.226  10.323 -0.4446 -0.3390 -0.1668
  148SAPE    HX16325   0.131   3.327  10.300  1.9717  0.4160 -1.5150
  148SAPE    HY16326   0.100   3.150  10.360  1.8427 -1.0773  3.2848
  148SAPE   O3116327   0.242   3.181  10.208  0.0665  0.0120  0.2557
  148SAPE   C3116328   0.258   3.050  10.191  0.3652  0.0145  0.1139
  148SAPE   O3216329   0.218   2.961  10.266  0.5625  0.4561 -0.1877
  148SAPE   C3216330   0.344   3.024  10.070  0.0361 -0.8160 -0.5298
  148SAPE   H2X16331   0.422   2.951  10.101  1.8508  1.6043  0.9332
  148SAPE   H2Y16332   0.390   3.122  10.044 -1.9474  0.1924 -0.3698
  148SAPE   C2316333   0.712   3.397  10.310  0.6080 -0.0146  0.0037
  148SAPE   H3R16334   0.752   3.310  10.366  1.5019 -0.2509 -0.9543
  148SAPE   H3S16335   0.781   3.483  10.326  3.0264 -1.2693 -2.7863
  148SAPE   C2416336   0.713   3.356  10.162  0.1784 -0.4227 -0.9877
  148SAPE   H4R16337   0.644   3.271  10.148  0.8735 -0.8923 -1.6751
  148SAPE   H4S16338   0.812   3.332  10.116  0.7619  1.3746 -0.7474
  148SAPE   C2516339   0.673   3.477  10.093  0.6879  0.1343 -0.9314
  148SAPE   H5R16340   0.685   3.566  10.156 -1.2042  0.1121 -0.4869
  148SAPE   C2616341   0.618   3.475   9.970 -0.1627 -0.1024  0.2802
  148SAPE   H6R16342   0.594   3.573   9.927 -2.9393 -1.4769 -1.5867
  148SAPE   C2716343   0.590   3.349   9.885 -1.0252  0.2718 -0.3106
  148SAPE   H7R16344   0.504   3.369   9.818 -2.4803 -2.7949  0.4723
  148SAPE   H7S16345   0.560   3.266   9.953  0.0056  1.1519  1.3030
  148SAPE   C2816346   0.717   3.324   9.803 -0.1653 -0.1618  0.0386
  148SAPE   H8R16347   0.802   3.285   9.861 -1.2865 -1.0969  1.1212
  148SAPE   C2916348   0.726   3.343   9.665  0.8969  0.0012 -0.3405
  148SAPE   H9R16349   0.823   3.330   9.614  1.3242  3.0299 -0.4876
  148SAPE  C21016350   0.618   3.391   9.576  0.4957  0.6212  0.4538
  148SAPE  H10R16351   0.655   3.422   9.476  0.7782 -0.0159  0.3523
  148SAPE  H10S16352   0.572   3.484   9.614 -2.9064 -0.9917  0.6437
  148SAPE  C21116353   0.508   3.287   9.570 -0.9778 -0.2783  0.6731
  148SAPE  H11R16354   0.504   3.214   9.653 -1.3717  0.8277  1.6482
  148SAPE  C21216355   0.423   3.272   9.471 -0.0505  0.1296  0.5531
  148SAPE  H12R16356   0.346   3.195   9.464  2.1882 -2.1195 -1.6045
  148SAPE  C21316357   0.415   3.363   9.344 -0.5178  0.3869  0.6259
  148SAPE  H13R16358   0.419   3.471   9.371 -1.0027  1.0134 -1.6284
  148SAPE  H13S16359   0.323   3.363   9.281 -1.3144  2.3748  1.7011
  148SAPE  C21416360   0.520   3.334   9.245  1.2170 -0.3465 -0.3120
  148SAPE  H14R16361   0.594   3.263   9.284  1.1919 -0.2719 -0.1271
  148SAPE  C21516362   0.541   3.390   9.126 -0.6483 -0.2353 -0.4820
  148SAPE  H15R16363   0.626   3.349   9.068  0.1474  0.2503  0.3208
  148SAPE  C21616364   0.453   3.503   9.066 -0.0561 -0.6164  0.0636
  148SAPE  H16R16365   0.375   3.538   9.137 -0.5100 -1.1807 -0.1568
  148SAPE  H16S16366   0.393   3.477   8.977 -0.8689  0.7822  0.1714
  148SAPE  C21716367   0.548   3.626   9.021  0.4576  0.1477 -0.1232
  148SAPE  H17R16368   0.633   3.570   8.977  0.3744  1.2869 -1.8055
  148SAPE  H17S16369   0.582   3.680   9.111 -1.7896  1.7988 -0.1845
  148SAPE  C21816370   0.487   3.711   8.911  0.3693 -0.0264  0.7065
  148SAPE  H18R16371   0.390   3.756   8.941 -1.4604 -1.5416 -2.3896
  148SAPE  H18S16372   0.461   3.648   8.824 -1.9266  0.5863  0.8801
  148SAPE  C21916373   0.586   3.819   8.865 -0.3063  0.0148 -1.0349
  148SAPE  H19R16374   0.533   3.881   8.789  0.8947 -0.5066 -2.3601
  148SAPE  H19S16375   0.674   3.778   8.811  0.2358 -0.9248  0.5140
  148SAPE  C22016376   0.624   3.922   8.966  0.0299 -0.1424 -0.4905
  148SAPE  H20R16377   0.698   3.868   9.029  1.1220  1.6763 -0.1486
  148SAPE  H20S16378   0.532   3.945   9.023 -0.3922 -2.0330 -0.3626
  148SAPE  H20T16379   0.675   4.017   8.938  0.5492 -0.7818 -1.8323
  148SAPE   C3316380   0.277   2.976   9.939  0.0134 -0.0901 -0.9842
  148SAPE   H3X16381   0.236   3.074   9.907 -1.3573  0.0885  1.1651
  148SAPE   H3Y16382   0.198   2.901   9.962  0.5099 -0.4598 -0.4544
  148SAPE   C3416383   0.383   2.944   9.835  0.3613  0.0780  0.0488
  148SAPE   H4X16384   0.448   2.875   9.893  0.0091  1.5721  2.3055
  148SAPE   H4Y16385   0.438   3.039   9.816  0.5918 -0.0397  0.1270
  148SAPE   C3516386   0.322   2.889   9.707  0.3567 -0.1723 -0.6729
  148SAPE   H5X16387   0.239   2.962   9.691  1.5521  0.9883 -1.8013
  148SAPE   H5Y16388   0.276   2.790   9.726  0.0041 -0.3403 -2.2810
  148SAPE   C3616389   0.424   2.885   9.591  0.2873  0.1231 -0.1963
  148SAPE   H6X16390   0.489   2.795   9.600 -0.0698 -0.3728 -2.1940
  148SAPE   H6Y16391   0.488   2.976   9.586  0.4743 -0.0764 -2.6613
  148SAPE   C3716392   0.356   2.878   9.460 -0.2412  0.2029 -0.1520
  148SAPE   H7X16393   0.301   2.970   9.432  1.4451  0.6601 -2.2127
  148SAPE   H7Y16394   0.282   2.795   9.462 -1.0106  0.8751 -0.1956
  148SAPE   C3816395   0.472   2.874   9.354  0.4679  0.3551 -0.2596
  148SAPE   H8X16396   0.532   2.784   9.380 -0.6522 -0.5618 -0.8003
  148SAPE   H8Y16397   0.534   2.964   9.377  1.5245 -0.7359  1.4318
  148SAPE   C3916398   0.433   2.873   9.209 -0.0688  0.2013  0.3047
  148SAPE   H9X16399   0.377   2.777   9.205 -0.7259  0.5997 -0.5178
  148SAPE   H9Y16400   0.525   2.878   9.147 -0.8643 -0.9143 -1.0322
  148SAPE  C31016401   0.337   2.985   9.168  0.0291  0.5069  0.3722
  148SAPE  H10X16402   0.382   3.086   9.181  0.1079  0.8488 -2.0932
  148SAPE  H10Y16403   0.243   2.975   9.226 -0.6975 -1.2413 -0.9922
  148SAPE  C31116404   0.302   2.983   9.021  0.5416 -0.2485 -0.2670
  148SAPE  H11X16405   0.275   2.882   8.984  1.2587 -0.5047 -0.1070
  148SAPE  H11Y16406   0.382   3.036   8.964 -0.5398  1.5990 -0.1262
  148SAPE  C31216407   0.165   3.066   9.004 -0.3291 -0.2119  0.5062
  148SAPE  H12X16408   0.183   3.163   9.056  3.4471 -1.0564  1.0548
  148SAPE  H12Y16409   0.087   3.006   9.055 -2.0184  0.7537 -0.7840
  148SAPE  C31316410   0.133   3.081   8.855  0.0529 -0.5070  0.2238
  148SAPE  H13X16411   0.151   2.981   8.811  2.2320 -0.9760  1.9920
  148SAPE  H13Y16412   0.217   3.143   8.817  2.1415 -1.7992  2.4256
  148SAPE  C31416413  -0.005   3.144   8.824  0.8704  0.6980 -0.0333
  148SAPE  H14X16414  -0.053   3.225   8.884  0.8666  0.4087  0.3519
  148SAPE  H14Y16415  -0.078   3.061   8.833  1.4950  0.0382 -0.8463
  148SAPE  C31516416  -0.000   3.206   8.686  0.2548 -0.3170 -0.6724
  148SAPE  H15X16417   0.021   3.127   8.611  0.4114 -1.1415  0.2160
  148SAPE  H15Y16418   0.072   3.290   8.686 -2.0769  1.8518  1.3264
  148SAPE  C31616419  -0.131   3.272   8.640 -0.1196 -0.1099 -0.3507
  148SAPE  H16X16420  -0.161   3.350   8.713  2.5090  1.2785 -0.6434
  148SAPE  H16Y16421  -0.220   3.206   8.632  0.4313 -1.1776  1.6443
  148SAPE  C31716422  -0.110   3.338   8.505 -0.1549  0.8513 -0.2346
  148SAPE  H17X16423  -0.031   3.416   8.510  1.2750 -0.5708 -0.3084
  148SAPE  H17Y16424  -0.212   3.380   8.485 -0.4805  0.9931  1.5579
  148SAPE  C31816425  -0.084   3.242   8.388  0.2169  0.1234  0.0935
  148SAPE  H18X16426  -0.076   3.295   8.291 -0.6927 -1.8208 -1.1043
  148SAPE  H18Y16427  -0.166   3.169   8.371  0.3866 -0.1174  0.3074
  148SAPE  H18Z16428   0.010   3.187   8.407  1.1825  1.8109  0.4213
  149SAPE     N16429   0.341   4.844  10.918 -0.2166 -0.0669 -0.0532
  149SAPE   HN116430   0.346   4.797  10.825  2.5221 -0.9088  0.4266
  149SAPE   HN216431   0.429   4.818  10.967 -0.1384  0.9461  0.3614
  149SAPE   HN316432   0.266   4.795  10.971 -1.3547 -1.1391 -2.4896
  149SAPE   C1216433   0.310   4.987  10.928 -0.3677 -0.2219  0.0018
  149SAPE  H12A16434   0.203   5.010  10.909 -0.0187  1.9974  0.4227
  149SAPE  H12B16435   0.358   5.037  10.842 -2.8716  1.5892 -0.4685
  149SAPE   C1116436   0.363   5.038  11.066 -0.8523  0.3374  0.2161
  149SAPE  H11A16437   0.306   4.987  11.146 -1.1534  1.9004  1.0427
  149SAPE  H11B16438   0.336   5.145  11.079 -0.5334  0.4230  0.1833
  149SAPE     P16439   0.620   5.118  11.064  0.6148 -0.1753 -0.0173
  149SAPE   O1316440   0.589   5.235  11.157  0.0571 -0.0767  0.6860
  149SAPE   O1416441   0.746   5.046  11.088  0.1940 -0.3043 -0.0266
  149SAPE   O1216442   0.505   5.010  11.072  0.4681  0.0559  0.0805
  149SAPE   O1116443   0.615   5.168  10.915  0.1248  0.6076  0.3846
  149SAPE    C116444   0.630   5.085  10.802 -0.1812 -0.1488  0.1110
  149SAPE    HA16445   0.576   4.989  10.815 -1.7356  0.6324 -0.2337
  149SAPE    HB16446   0.576   5.141  10.722 -2.3951 -2.7672 -0.3779
  149SAPE    C216447   0.775   5.065  10.768 -0.2748  0.6409 -0.0755
  149SAPE    HS16448   0.839   5.092  10.854  0.7147 -1.7586  0.0324
  149SAPE   O2116449   0.813   5.166  10.670  0.3064  0.7561 -0.0901
  149SAPE   C2116450   0.940   5.177  10.647 -0.2145  0.1759 -0.4347
  149SAPE   O2216451   1.035   5.110  10.690  1.3017  0.4406 -0.7177
  149SAPE   C2216452   0.945   5.286  10.536 -0.3303 -0.0695  0.5102
  149SAPE   H2R16453   0.908   5.239  10.442  2.2496 -1.1815 -0.0382
  149SAPE   H2S16454   0.875   5.364  10.572 -1.8319 -1.3044  0.3806
  149SAPE    C316455   0.788   4.919  10.713 -0.0279  0.5622  0.1065
  149SAPE    HX16456   0.773   4.840  10.789  3.3040 -0.5845 -0.2693
  149SAPE    HY16457   0.888   4.910  10.666 -0.9829 -0.1235 -1.9108
  149SAPE   O3116458   0.698   4.906  10.605 -0.2600 -0.4629 -0.1564
  149SAPE   C3116459   0.703   4.799  10.528  0.5801 -0.0920 -0.2746
  149SAPE   O3216460   0.780   4.709  10.553  0.0180  0.6348  0.3954
  149SAPE   C3216461   0.598   4.806  10.412 -0.8467  0.4689  0.7409
  149SAPE   H2X16462   0.504   4.851  10.450 -1.6378 -1.7935  1.5958
  149SAPE   H2Y16463   0.574   4.703  10.379 -1.1808  1.2592 -1.6851
  149SAPE   C2316464   1.083   5.346  10.521  0.4177 -0.0745 -0.3846
  149SAPE   H3R16465   1.149   5.264  10.484  0.7891 -0.4012  0.9669
  149SAPE   H3S16466   1.125   5.371  10.621 -1.2121 -0.2686  0.3812
  149SAPE   C2416467   1.080   5.469  10.428 -0.5655 -0.6669  0.3800
  149SAPE   H4R16468   1.027   5.552  10.481 -0.7956  0.1847 -1.1259
  149SAPE   H4S16469   1.024   5.439  10.337 -0.8162 -1.4930  0.7935
  149SAPE   C2516470   1.221   5.514  10.397  0.1273  0.2175  0.2392
  149SAPE   H5R16471   1.292   5.477  10.473  1.2685 -0.1695 -0.9730
  149SAPE   C2616472   1.270   5.587  10.300 -0.0216 -0.2302 -0.2176
  149SAPE   H6R16473   1.376   5.613  10.314  0.1561 -0.6171 -0.7869
  149SAPE   C2716474   1.203   5.641  10.176  0.9665  0.2231  0.4250
  149SAPE   H7R16475   1.209   5.751  10.183  1.2243  0.3744 -1.6796
  149SAPE   H7S16476   1.092   5.638  10.171  0.9312  2.2648 -0.8936
  149SAPE   C2816477   1.274   5.609  10.046  0.8733 -0.0409 -0.6782
  149SAPE   H8R16478   1.383   5.599  10.055  0.8687  0.5426  0.1623
  149SAPE   C2916479   1.218   5.594   9.930 -0.0301 -0.6923  1.0148
  149SAPE   H9R16480   1.295   5.593   9.851  1.3735 -0.2669  2.3263
  149SAPE  C21016481   1.073   5.600   9.890 -0.0547 -0.2660  0.5202
  149SAPE  H10R16482   1.015   5.644   9.974 -2.1166 -1.6313 -0.1046
  149SAPE  H10S16483   1.029   5.499   9.877 -2.4008  0.7627 -0.0543
  149SAPE  C21116484   1.052   5.689   9.767 -0.1670 -0.2102 -0.5710
  149SAPE  H11R16485   1.042   5.796   9.786  0.6677 -0.2536  0.1366
  149SAPE  C21216486   1.055   5.641   9.640  0.0093  0.2923  0.3077
  149SAPE  H12R16487   1.035   5.713   9.560 -2.5607 -0.8921 -0.2032
  149SAPE  C21316488   1.083   5.504   9.592  0.8123 -0.0847 -0.5884
  149SAPE  H13R16489   0.991   5.444   9.576 -0.6004  2.5501 -3.5090
  149SAPE  H13S16490   1.149   5.442   9.657 -1.2704 -0.9751  0.7555
  149SAPE  C21416491   1.159   5.502   9.461  0.3332  0.2500  1.0258
  149SAPE  H14R16492   1.269   5.504   9.466  0.5840 -3.3404  0.1516
  149SAPE  C21516493   1.090   5.486   9.339  0.2518  0.6038  0.2714
  149SAPE  H15R16494   1.151   5.475   9.249 -1.9889 -1.0147 -1.1385
  149SAPE  C21616495   0.937   5.475   9.322 -0.1258 -0.0379 -0.2462
  149SAPE  H16R16496   0.880   5.436   9.409 -0.4414 -1.5390 -1.0794
  149SAPE  H16S16497   0.922   5.399   9.242  2.0314 -1.1469  0.3282
  149SAPE  C21716498   0.870   5.609   9.278 -0.3638  0.0004  0.5103
  149SAPE  H17R16499   0.946   5.641   9.203  1.3450 -1.2005  1.6431
  149SAPE  H17S16500   0.872   5.686   9.358  1.2798 -0.3882  0.8791
  149SAPE  C21816501   0.730   5.584   9.221  0.5896  0.5115  0.7805
  149SAPE  H18R16502   0.667   5.675   9.218  0.8215  0.6710  0.7717
  149SAPE  H18S16503   0.681   5.503   9.279 -0.1603  0.0670 -0.4442
  149SAPE  C21916504   0.739   5.530   9.075  0.5514 -0.4141  0.4225
  149SAPE  H19R16505   0.814   5.448   9.071  0.4775 -0.4754  0.2291
  149SAPE  H19S16506   0.768   5.613   9.007  0.2184  0.3285  1.1710
  149SAPE  C22016507   0.602   5.477   9.019 -0.2066  0.4730 -0.5202
  149SAPE  H20R16508   0.569   5.386   9.073  1.4420  1.4611  2.3561
  149SAPE  H20S16509   0.602   5.461   8.909 -0.5277 -1.2158 -0.2943
  149SAPE  H20T16510   0.525   5.551   9.049  0.3662  1.1502 -0.6941
  149SAPE   C3316511   0.666   4.879  10.292 -0.7831  0.5719  0.3893
  149SAPE   H3X16512   0.775   4.861  10.295 -0.7209  0.9945  0.7433
  149SAPE   H3Y16513   0.662   4.990  10.300 -1.2899  0.6580 -0.7517
  149SAPE   C3416514   0.617   4.829  10.160  0.4347  0.3566  1.4762
  149SAPE   H4X16515   0.636   4.720  10.156  0.5835  0.4219 -0.7990
  149SAPE   H4Y16516   0.688   4.869  10.085  0.5830 -0.8429  0.9660
  149SAPE   C3516517   0.480   4.884  10.130  0.6371  0.1339 -0.1085
  149SAPE   H5X16518   0.471   4.991  10.159 -1.5610  0.8956 -3.1907
  149SAPE   H5Y16519   0.394   4.840  10.185  1.4217  0.9862  1.9186
  149SAPE   C3616520   0.443   4.886   9.977  0.2991  0.4399  1.4858
  149SAPE   H6X16521   0.517   4.943   9.916  0.4632 -2.2928 -1.1031
  149SAPE   H6Y16522   0.348   4.943   9.970  0.2122  0.3456  1.8755
  149SAPE   C3716523   0.414   4.744   9.926  0.5094 -0.4610 -0.6711
  149SAPE   H7X16524   0.322   4.716   9.982 -1.2115  0.8229 -2.6875
  149SAPE   H7Y16525   0.491   4.678   9.971  0.2747 -0.1925  0.1451
  149SAPE   C3816526   0.403   4.719   9.782  0.2804 -0.5692  0.5266
  149SAPE   H8X16527   0.308   4.755   9.737  0.0253 -2.1616 -0.2538
  149SAPE   H8Y16528   0.410   4.610   9.763  2.4225 -0.4667  0.4509
  149SAPE   C3916529   0.521   4.782   9.714  0.6347 -0.5409  0.2687
  149SAPE   H9X16530   0.609   4.767   9.780  1.2551  0.9502 -0.1653
  149SAPE   H9Y16531   0.521   4.893   9.708  2.4107 -0.5772 -1.5525
  149SAPE  C31016532   0.548   4.732   9.571  0.3182 -0.0616  0.8483
  149SAPE  H10X16533   0.539   4.622   9.559  1.4218  0.0018 -1.0662
  149SAPE  H10Y16534   0.656   4.747   9.547  0.1858  0.3085  0.4706
  149SAPE  C31116535   0.457   4.809   9.465  0.3684  0.4774 -0.0033
  149SAPE  H11X16536   0.459   4.919   9.484 -0.0457  0.6598 -1.0046
  149SAPE  H11Y16537   0.354   4.775   9.487  1.2580 -2.2988  0.1813
  149SAPE  C31216538   0.494   4.787   9.316 -0.4755 -0.0707  0.7994
  149SAPE  H12X16539   0.516   4.679   9.303  1.2346  0.3878 -0.4183
  149SAPE  H12Y16540   0.587   4.846   9.302  0.6758 -1.2550  2.9650
  149SAPE  C31316541   0.395   4.847   9.211 -0.6046  0.3082  0.0018
  149SAPE  H13X16542   0.405   4.957   9.214 -0.3992  0.3468 -1.2852
  149SAPE  H13Y16543   0.290   4.817   9.232 -0.1741 -0.2481  1.4857
  149SAPE  C31416544   0.425   4.811   9.065 -0.1420 -0.2957 -0.1377
  149SAPE  H14X16545   0.424   4.700   9.058  1.1452 -0.4115  1.1886
  149SAPE  H14Y16546   0.516   4.861   9.025 -0.7063 -0.8173 -2.2178
  149SAPE  C31516547   0.315   4.858   8.964  0.0149 -0.2780  0.2990
  149SAPE  H15X16548   0.292   4.966   8.959  0.9055 -0.1240 -1.2312
  149SAPE  H15Y16549   0.221   4.810   8.996 -0.4237  0.0009 -0.5256
  149SAPE  C31616550   0.352   4.821   8.812  0.1279  0.2610 -0.3405
  149SAPE  H16X16551   0.453   4.861   8.790  0.2675  0.3033  0.3465
  149SAPE  H16Y16552   0.268   4.866   8.754 -1.9253  0.0035  2.2245
  149SAPE  C31716553   0.348   4.668   8.788 -0.2756 -0.4288  0.5515
  149SAPE  H17X16554   0.251   4.620   8.813 -0.0303 -1.8424 -1.0342
  149SAPE  H17Y16555   0.422   4.625   8.858  0.2348  1.5832  1.3094
  149SAPE  C31816556   0.374   4.634   8.645  0.3250 -0.4834 -0.5321
  149SAPE  H18X16557   0.463   4.692   8.611 -0.8449  0.5118 -1.9915
  149SAPE  H18Y16558   0.287   4.665   8.585  1.5398  2.0050 -1.1637
  149SAPE  H18Z16559   0.395   4.526   8.629 -0.3828 -0.9379  1.3327
  150SAPE     N16560   4.186   3.576  11.089  0.4027  0.4459 -0.1816
  150SAPE   HN116561   4.185   3.679  11.107  0.1305  0.7323 -1.7224
  150SAPE   HN216562   4.096   3.531  11.115  0.5185 -0.6007 -1.4556
  150SAPE   HN316563   4.262   3.533  11.145 -0.4515 -0.0367  0.6376
  150SAPE   C1216564   4.186   3.550  10.945 -0.0319  0.5963 -0.5019
  150SAPE  H12A16565   4.275   3.600  10.901 -0.3942  0.7353 -1.0839
  150SAPE  H12B16566   4.094   3.600  10.909 -1.1962 -2.0095 -1.3750
  150SAPE   C1116567   4.169   3.397  10.914 -0.5144  0.1606  0.2451
  150SAPE  H11A16568   4.266   3.351  10.940 -0.1190  0.8933  0.0886
  150SAPE  H11B16569   4.144   3.379  10.807 -1.2260  0.4253  0.3581
  150SAPE     P16570   4.056   3.186  11.011 -0.1655  0.4090  0.2001
  150SAPE   O1316571   4.181   3.148  11.081 -0.5309  0.3592 -0.7675
  150SAPE   O1416572   3.925   3.148  11.070 -0.4316 -0.0932 -0.1858
  150SAPE   O1216573   4.058   3.343  10.986  0.4435 -0.2199  1.0501
  150SAPE   O1116574   4.064   3.125  10.868  0.1555  0.0204 -0.1107
  150SAPE    C116575   3.960   3.152  10.772 -0.1370  0.7338  0.0323
  150SAPE    HA16576   3.862   3.185  10.812 -0.6337 -1.2010  0.4879
  150SAPE    HB16577   3.987   3.224  10.692  2.3598 -1.0362 -0.8410
  150SAPE    C216578   3.912   3.021  10.697 -0.8942  0.6515  0.4635
  150SAPE    HS16579   3.908   2.944  10.777 -1.3684 -0.2336 -0.3891
  150SAPE   O2116580   4.013   2.990  10.605  0.1285  0.0225 -0.8922
  150SAPE   C2116581   4.034   2.864  10.585 -0.5026  0.4178  0.4834
  150SAPE   O2216582   3.967   2.771  10.630  0.1830  0.0850 -0.0882
  150SAPE   C2216583   4.124   2.858  10.460 -0.0999  0.5126  0.0488
  150SAPE   H2R16584   4.117   2.959  10.415 -0.3919  1.0749  1.3133
  150SAPE   H2S16585   4.231   2.836  10.480 -0.4817 -0.7876  0.8218
  150SAPE    C316586   3.778   3.038  10.612 -0.2949  0.3272 -0.4973
  150SAPE    HX16587   3.695   3.055  10.683 -0.4294 -2.2431  0.0674
  150SAPE    HY16588   3.749   2.943  10.562  1.2534 -0.7232  0.5258
  150SAPE   O3116589   3.789   3.148  10.518 -0.1623  0.2607  0.2431
  150SAPE   C3116590   3.792   3.125  10.389 -0.3342 -0.2226 -0.5773
  150SAPE   O3216591   3.775   3.020  10.331  0.2192  0.5610 -0.0089
  150SAPE   C3216592   3.816   3.259  10.311  0.0407  0.1049  0.2374
  150SAPE   H2X16593   3.862   3.328  10.385 -1.8468  0.0161  1.5704
  150SAPE   H2Y16594   3.720   3.303  10.277  0.5981  1.5418  0.4613
  150SAPE   C2316595   4.052   2.756  10.366  1.2886  0.1994  0.6637
  150SAPE   H3R16596   3.945   2.761  10.393  1.1213  0.8296 -0.0785
  150SAPE   H3S16597   4.097   2.656  10.387  0.4843 -0.1771  0.6023
  150SAPE   C2416598   4.061   2.791  10.212  0.0779 -0.5087 -0.7432
  150SAPE   H4R16599   4.168   2.811  10.192 -0.0264 -0.2141 -1.0244
  150SAPE   H4S16600   3.992   2.878  10.205  2.3537  1.5807  1.0992
  150SAPE   C2516601   4.017   2.676  10.126  0.1501  0.6756  0.1690
  150SAPE   H5R16602   4.051   2.578  10.162  1.5163 -0.1272 -2.9548
  150SAPE   C2616603   3.937   2.683  10.015  0.5281  0.3481  0.8511
  150SAPE   H6R16604   3.920   2.587   9.963  3.1097 -0.0751  0.6617
  150SAPE   C2716605   3.879   2.811   9.957 -0.4069  0.0094 -0.4733
  150SAPE   H7R16606   3.913   2.817   9.852 -1.0906  1.7975 -0.6263
  150SAPE   H7S16607   3.905   2.904  10.012 -0.3242  0.0775 -0.6294
  150SAPE   C2816608   3.729   2.818   9.964 -0.5877  0.2894  0.3746
  150SAPE   H8R16609   3.688   2.865  10.054 -3.4180 -0.7484 -0.2591
  150SAPE   C2916610   3.638   2.787   9.866  0.4178  0.0393 -0.1957
  150SAPE   H9R16611   3.530   2.797   9.885  0.4953  1.2268 -0.3037
  150SAPE  C21016612   3.669   2.734   9.730  0.2069  0.9744  0.5524
  150SAPE  H10R16613   3.602   2.648   9.706  1.6041  0.3451 -1.3467
  150SAPE  H10S16614   3.771   2.690   9.731  0.8626  2.4382  0.5309
  150SAPE  C21116615   3.662   2.840   9.625  0.4366 -0.0540  0.7158
  150SAPE  H11R16616   3.691   2.943   9.648  0.0039  0.6042 -1.4165
  150SAPE  C21216617   3.619   2.827   9.494 -0.0372 -0.4215 -0.1272
  150SAPE  H12R16618   3.618   2.915   9.429  0.1222 -1.2518 -1.2926
  150SAPE  C21316619   3.578   2.701   9.418 -0.3020  0.3834  0.3896
  150SAPE  H13R16620   3.471   2.694   9.389  0.0349  0.9880 -1.0854
  150SAPE  H13S16621   3.593   2.613   9.483 -0.2116 -0.5343 -0.8537
  150SAPE  C21416622   3.672   2.708   9.298  0.7283 -0.3375 -0.7447
  150SAPE  H14R16623   3.776   2.740   9.318  0.6411  0.1922 -1.1257
  150SAPE  C21516624   3.637   2.667   9.177  0.6479  0.3680 -0.1682
  150SAPE  H15R16625   3.711   2.661   9.097  1.2987 -0.4379  0.4748
  150SAPE  C21616626   3.495   2.624   9.146 -0.3316  0.9401 -0.0639
  150SAPE  H16R16627   3.440   2.714   9.113 -1.9750  0.1165  0.3140
  150SAPE  H16S16628   3.447   2.570   9.230  0.6900 -0.0702 -0.0984
  150SAPE  C21716629   3.510   2.514   9.037  0.2821 -0.8666 -0.0297
  150SAPE  H17R16630   3.595   2.443   9.050  1.8097  1.2317  2.7081
  150SAPE  H17S16631   3.537   2.563   8.941 -0.0721  0.1571  0.3780
  150SAPE  C21816632   3.376   2.443   9.012  0.4851 -0.3369  0.7317
  150SAPE  H18R16633   3.297   2.520   9.026  1.2016  0.2650  1.5600
  150SAPE  H18S16634   3.352   2.353   9.072 -0.9971 -1.8188 -1.8958
  150SAPE  C21916635   3.374   2.410   8.861 -0.0250 -0.1556 -0.8896
  150SAPE  H19R16636   3.325   2.311   8.846  0.3029 -0.2726 -1.2179
  150SAPE  H19S16637   3.475   2.382   8.825 -0.3114 -1.1696 -0.9537
  150SAPE  C22016638   3.313   2.509   8.762  0.0155 -0.3873 -0.4103
  150SAPE  H20R16639   3.204   2.520   8.776  0.4455  1.9904  1.5427
  150SAPE  H20S16640   3.320   2.471   8.657 -2.6419  0.1003 -0.8132
  150SAPE  H20T16641   3.357   2.611   8.762  2.5546 -1.3688 -1.9689
  150SAPE   C3316642   3.924   3.228  10.199  0.0356  0.3318  0.3242
  150SAPE   H3X16643   3.998   3.148  10.219  2.9341  2.2128 -2.0779
  150SAPE   H3Y16644   3.978   3.321  10.174  1.4003 -0.4723  0.1887
  150SAPE   C3416645   3.859   3.195  10.064  0.3368 -0.0512 -0.6243
  150SAPE   H4X16646   3.786   3.278  10.048  0.6984  0.4098  0.0755
  150SAPE   H4Y16647   3.798   3.103  10.074  1.5407 -0.8283 -0.3003
  150SAPE   C3516648   3.957   3.157   9.953  0.3006 -0.3877  0.5407
  150SAPE   H5X16649   4.004   3.059   9.978  0.4779 -0.1893  1.0044
  150SAPE   H5Y16650   4.042   3.224   9.928  0.2405 -1.4656 -3.1580
  150SAPE   C3616651   3.884   3.129   9.817 -0.4426 -0.0907 -0.4542
  150SAPE   H6X16652   3.805   3.060   9.854  0.1058 -0.9329 -0.8240
  150SAPE   H6Y16653   3.960   3.068   9.764 -0.5213 -2.0220  1.5024
  150SAPE   C3716654   3.826   3.251   9.748 -0.1894 -0.5542  0.1123
  150SAPE   H7X16655   3.776   3.315   9.825  0.3702  1.0683 -0.8248
  150SAPE   H7Y16656   3.746   3.215   9.679  2.0112 -1.3312 -2.1668
  150SAPE   C3816657   3.924   3.350   9.684 -0.2063  0.7443  0.3009
  150SAPE   H8X16658   4.000   3.290   9.630 -0.4314  0.0955  0.6796
  150SAPE   H8Y16659   3.971   3.400   9.771 -1.9237 -1.2665  2.5606
  150SAPE   C3916660   3.864   3.439   9.583  0.7980 -0.6546  0.4937
  150SAPE   H9X16661   3.926   3.531   9.573 -0.0521 -0.0957  0.2623
  150SAPE   H9Y16662   3.764   3.461   9.627  0.2305 -2.2472  0.0626
  150SAPE  C31016663   3.853   3.370   9.443  0.2643  0.6190 -0.8851
  150SAPE  H10X16664   3.804   3.271   9.452  3.3465 -0.9405 -0.0263
  150SAPE  H10Y16665   3.958   3.349   9.414  0.4160  1.6769 -1.1524
  150SAPE  C31116666   3.797   3.463   9.329  0.3663  0.2531  0.4754
  150SAPE  H11X16667   3.832   3.406   9.240  0.5664  0.0345  0.6913
  150SAPE  H11Y16668   3.845   3.562   9.343  0.7294  0.1201  0.1912
  150SAPE  C31216669   3.646   3.466   9.329 -0.1950  0.7704 -0.0937
  150SAPE  H12X16670   3.615   3.544   9.256  0.6252 -1.4136 -2.9627
  150SAPE  H12Y16671   3.619   3.505   9.429 -1.7277 -0.4684  0.0222
  150SAPE  C31316672   3.568   3.338   9.295 -0.2319 -1.0015 -1.0097
  150SAPE  H13X16673   3.458   3.351   9.309  0.1600  0.4197  1.2560
  150SAPE  H13Y16674   3.587   3.258   9.370  1.6401  0.7452  0.4915
  150SAPE  C31416675   3.601   3.273   9.157 -0.0347  0.0055 -0.1976
  150SAPE  H14X16676   3.693   3.319   9.114  0.3856  0.0333  0.6946
  150SAPE  H14Y16677   3.516   3.280   9.086 -0.8005  0.0168  0.6993
  150SAPE  C31516678   3.659   3.131   9.178 -0.6942 -0.8598  0.8043
  150SAPE  H15X16679   3.588   3.062   9.228 -0.6495 -1.0470  0.6118
  150SAPE  H15Y16680   3.752   3.141   9.238 -0.0870 -0.3091 -0.2001
  150SAPE  C31616681   3.716   3.081   9.041  0.8584  0.2030 -0.5008
  150SAPE  H16X16682   3.794   3.003   9.058  1.4553  0.2668 -2.5768
  150SAPE  H16Y16683   3.764   3.163   8.983  3.4697 -0.3842  0.6718
  150SAPE  C31716684   3.612   3.026   8.945 -0.2265  0.2552 -0.0650
  150SAPE  H17X16685   3.526   3.096   8.938 -1.8659 -1.5035  1.3719
  150SAPE  H17Y16686   3.573   2.930   8.984  1.6602 -0.5000  0.0897
  150SAPE  C31816687   3.670   3.000   8.801  0.5372 -0.0054  0.2557
  150SAPE  H18X16688   3.693   3.095   8.748 -0.1583 -0.1880 -0.3998
  150SAPE  H18Y16689   3.588   2.951   8.745 -0.5589  1.0684  0.8665
  150SAPE  H18Z16690   3.756   2.930   8.810 -0.9941 -2.4134 -2.2206
  151SAPE     N16691   0.174   2.222  10.796 -0.1327  0.2783 -0.2113
  151SAPE   HN116692   0.271   2.202  10.827 -0.1868  0.8342  0.3465
  151SAPE   HN216693   0.128   2.280  10.869 -1.1686  0.2503 -0.8250
  151SAPE   HN316694   0.118   2.135  10.791  0.2551  0.0730 -1.2426
  151SAPE   C1216695   0.161   2.302  10.669 -0.0023  0.0217  0.1846
  151SAPE  H12A16696   0.198   2.235  10.588 -0.1467  1.6918 -1.3216
  151SAPE  H12B16697   0.238   2.381  10.685 -1.4866  1.6465 -0.3561
  151SAPE   C1116698   0.021   2.350  10.648 -0.2358 -0.3766 -0.2438
  151SAPE  H11A16699  -0.046   2.261  10.658 -2.1537  1.0271 -0.0268
  151SAPE  H11B16700   0.015   2.374  10.540  0.1831 -0.5929 -0.3159
  151SAPE     P16701  -0.153   2.530  10.706 -0.4389 -0.1493  0.0231
  151SAPE   O1316702  -0.262   2.431  10.687 -0.3092  0.1974 -0.2191
  151SAPE   O1416703  -0.184   2.631  10.806 -0.0079 -0.5995 -0.1926
  151SAPE   O1216704  -0.022   2.456  10.742  0.2582  0.4430 -0.1429
  151SAPE   O1116705  -0.127   2.603  10.568  0.0212 -0.2508  0.4536
  151SAPE    C116706  -0.033   2.706  10.550  0.2348 -0.5846  0.0751
  151SAPE    HA16707  -0.050   2.792  10.620 -1.6896  2.2368 -3.4952
  151SAPE    HB16708   0.072   2.671  10.553  0.5915  0.4967  1.1500
  151SAPE    C216709  -0.042   2.755  10.401 -0.3813  0.6553 -0.6935
  151SAPE    HS16710   0.051   2.811  10.380 -0.2437  1.8000  2.5183
  151SAPE   O2116711  -0.154   2.843  10.398  0.1055 -0.4025 -0.0516
  151SAPE   C2116712  -0.129   2.966  10.455 -0.0189 -0.4400  0.3860
  151SAPE   O2216713  -0.023   3.006  10.502  0.3723  0.1481 -0.1346
  151SAPE   C2216714  -0.262   3.049  10.435 -0.2419 -0.2944  0.3848
  151SAPE   H2R16715  -0.338   2.992  10.378  0.9366 -1.1067 -0.4152
  151SAPE   H2S16716  -0.302   3.067  10.537  2.0545 -0.5095  1.4049
  151SAPE    C316717  -0.051   2.630  10.304  0.2926 -0.3328 -0.0516
  151SAPE    HX16718  -0.143   2.570  10.326  1.6439 -1.8598  1.7435
  151SAPE    HY16719   0.034   2.563  10.326  0.6570  0.1186 -0.0823
  151SAPE   O3116720  -0.027   2.677  10.166 -0.5582 -0.2712  0.3689
  151SAPE   C3116721  -0.119   2.665  10.071  0.1810 -0.3478  0.1626
  151SAPE   O3216722  -0.228   2.617  10.081  1.1142  0.0134 -0.7578
  151SAPE   C3216723  -0.058   2.736   9.951 -0.1616 -0.0569  0.3366
  151SAPE   H2X16724   0.050   2.709   9.946  0.3811  2.1128 -0.4831
  151SAPE   H2Y16725  -0.063   2.846   9.963  0.7911  0.1377 -0.9007
  151SAPE   C2316726  -0.240   3.184  10.367  0.0174  0.1354  0.0023
  151SAPE   H3R16727  -0.147   3.241  10.387  0.0155  0.8224 -1.7420
  151SAPE   H3S16728  -0.331   3.241  10.393  0.9545  0.2522  3.4455
  151SAPE   C2416729  -0.242   3.164  10.209 -0.4901  0.3013  0.4540
  151SAPE   H4R16730  -0.254   3.260  10.153  0.4954 -0.1556 -0.5659
  151SAPE   H4S16731  -0.331   3.105  10.178  0.8507 -0.1417 -2.9595
  151SAPE   C2516732  -0.121   3.093  10.153  0.6772  0.2493 -0.3704
  151SAPE   H5R16733  -0.107   2.994  10.200 -0.6241  0.3669  0.3250
  151SAPE   C2616734  -0.040   3.140  10.066 -0.2835 -0.4728  0.3658
  151SAPE   H6R16735   0.046   3.080  10.032  1.0466  1.7836 -0.4869
  151SAPE   C2716736  -0.046   3.274   9.994  0.2180 -0.0657  0.3342
  151SAPE   H7R16737  -0.096   3.347  10.061  0.4185  1.0882 -0.7399
  151SAPE   H7S16738  -0.119   3.281   9.911 -0.2324  1.5036  0.8239
  151SAPE   C2816739   0.080   3.329   9.939 -0.3671  0.5683  1.1322
  151SAPE   H8R16740   0.140   3.379  10.016  2.1054  1.4866 -1.1926
  151SAPE   C2916741   0.124   3.311   9.810 -0.0351  0.3206  0.0385
  151SAPE   H9R16742   0.221   3.357   9.790 -0.6883  2.2872  1.1405
  151SAPE  C21016743   0.065   3.241   9.688 -0.7458  0.3884 -0.0167
  151SAPE  H10R16744  -0.015   3.170   9.717 -0.9924 -0.1562 -1.9058
  151SAPE  H10S16745   0.149   3.172   9.665  0.4270  0.4746  3.3665
  151SAPE  C21116746   0.012   3.328   9.581  0.1011  0.4117 -0.0976
  151SAPE  H11R16747  -0.003   3.430   9.619  0.2014  0.8544 -1.2137
  151SAPE  C21216748  -0.014   3.303   9.452 -0.4941  0.3221  0.1026
  151SAPE  H12R16749  -0.061   3.384   9.394  0.3649  2.0192  1.6718
  151SAPE  C21316750   0.007   3.159   9.391  0.4049 -0.1597 -0.2524
  151SAPE  H13R16751   0.012   3.080   9.469  1.8998  1.1180  1.0267
  151SAPE  H13S16752   0.108   3.162   9.345  0.6683  0.9912  0.3512
  151SAPE  C21416753  -0.104   3.150   9.294 -0.5369  0.4660  0.5589
  151SAPE  H14R16754  -0.089   3.190   9.192 -1.8938 -0.1985  0.0667
  151SAPE  C21516755  -0.224   3.088   9.316 -0.7441 -0.0368  0.2332
  151SAPE  H15R16756  -0.301   3.087   9.238  0.6546  3.6356 -1.4134
  151SAPE  C21616757  -0.261   3.020   9.445 -0.4854  0.6995  0.8103
  151SAPE  H16R16758  -0.168   3.006   9.504  0.2059 -2.1016 -0.7244
  151SAPE  H16S16759  -0.312   2.925   9.417  1.2400 -0.0999  0.2172
  151SAPE  C21716760  -0.364   3.111   9.514 -0.3531 -1.1519 -0.2563
  151SAPE  H17R16761  -0.447   3.124   9.441  0.6481 -0.0739 -1.2280
  151SAPE  H17S16762  -0.317   3.210   9.528 -3.1004  0.3440 -0.8598
  151SAPE  C21816763  -0.428   3.059   9.647 -0.6327  0.2915 -0.1892
  151SAPE  H18R16764  -0.464   2.955   9.631  0.3945 -0.0914 -0.1189
  151SAPE  H18S16765  -0.512   3.125   9.675  0.4024  0.3841  3.1541
  151SAPE  C21916766  -0.324   3.042   9.760 -0.1362 -0.1896 -0.0407
  151SAPE  H19R16767  -0.270   3.139   9.765 -1.4814  0.6490 -1.2309
  151SAPE  H19S16768  -0.249   2.963   9.738  2.4431  1.2055  2.9299
  151SAPE  C22016769  -0.396   3.005   9.892 -0.3263  0.2925 -0.0605
  151SAPE  H20R16770  -0.458   2.920   9.856 -0.5685 -0.0780  1.1740
  151SAPE  H20S16771  -0.471   3.081   9.922 -1.4401 -0.1510 -1.6119
  151SAPE  H20T16772  -0.320   2.968   9.964  0.4618  0.9011 -0.5740
  151SAPE   C3316773  -0.124   2.693   9.816  0.1805 -1.1066 -0.1399
  151SAPE   H3X16774  -0.229   2.731   9.811 -0.1307 -1.8907  0.2864
  151SAPE   H3Y16775  -0.131   2.582   9.811  0.5790 -1.0749 -2.7645
  151SAPE   C3416776  -0.039   2.741   9.695  0.3186  0.4996  0.2611
  151SAPE   H4X16777   0.054   2.680   9.691 -0.5103 -0.7390 -0.8376
  151SAPE   H4Y16778  -0.026   2.851   9.705 -2.1047  0.9294 -0.6056
  151SAPE   C3516779  -0.112   2.715   9.561  0.2480 -0.2321  0.3338
  151SAPE   H5X16780  -0.209   2.768   9.553 -0.5310 -1.8526 -2.5672
  151SAPE   H5Y16781  -0.144   2.608   9.568 -0.8055 -0.0084 -0.6876
  151SAPE   C3616782  -0.030   2.740   9.429  0.6062  0.6509 -0.6206
  151SAPE   H6X16783   0.070   2.693   9.439 -0.5403 -2.1975 -1.2975
  151SAPE   H6Y16784  -0.012   2.849   9.421  0.1440  0.7962  0.1858
  151SAPE   C3716785  -0.107   2.692   9.303  0.3405 -0.3059 -0.1247
  151SAPE   H7X16786  -0.214   2.721   9.308  0.7217  0.9476  1.4428
  151SAPE   H7Y16787  -0.103   2.581   9.300 -1.8571 -0.4064 -0.5144
  151SAPE   C3816788  -0.046   2.747   9.169  0.1776  0.6243 -0.2320
  151SAPE   H8X16789   0.063   2.732   9.185 -0.2383 -0.1270  2.2491
  151SAPE   H8Y16790  -0.071   2.855   9.159  0.0947  0.6062 -0.2207
  151SAPE   C3916791  -0.089   2.670   9.047 -0.2312 -0.3813  0.3565
  151SAPE   H9X16792  -0.200   2.674   9.033  0.0236  4.1235 -2.6850
  151SAPE   H9Y16793  -0.050   2.567   9.061  0.3534  0.0413  2.0222
  151SAPE  C31016794  -0.035   2.728   8.919 -0.0629 -0.4656  0.1592
  151SAPE  H10X16795   0.067   2.769   8.930 -0.9225  1.8247  0.2010
  151SAPE  H10Y16796  -0.092   2.822   8.901 -1.9960 -1.7247 -0.5490
  151SAPE  C31116797  -0.062   2.644   8.791 -0.0106 -0.1429  0.1915
  151SAPE  H11X16798  -0.172   2.631   8.801 -0.2209  0.8908 -0.6891
  151SAPE  H11Y16799   0.006   2.556   8.796  1.9741  1.2763 -0.4613
  151SAPE  C31216800  -0.032   2.713   8.656  0.4931  0.4589  0.5727
  151SAPE  H12X16801   0.072   2.750   8.649  0.2455  0.9657 -0.9692
  151SAPE  H12Y16802  -0.097   2.803   8.645 -0.7578 -0.6254 -1.6459
  151SAPE  C31316803  -0.068   2.623   8.534 -0.4161 -0.2270  0.2210
  151SAPE  H13X16804  -0.071   2.684   8.441  1.2530 -3.1001 -1.8728
  151SAPE  H13Y16805  -0.169   2.584   8.558 -0.3426 -1.3710 -1.1726
  151SAPE  C31416806   0.032   2.504   8.517  0.5015  0.1946 -0.2391
  151SAPE  H14X16807  -0.009   2.426   8.585 -0.9909 -0.9009 -2.2701
  151SAPE  H14Y16808   0.132   2.539   8.549  1.6255 -1.3080 -1.8826
  151SAPE  C31516809   0.042   2.453   8.376  0.6626 -0.6238 -0.2326
  151SAPE  H15X16810  -0.058   2.462   8.328  0.8492 -0.7421 -0.6479
  151SAPE  H15Y16811   0.059   2.344   8.363  3.1313 -0.0983 -2.0107
  151SAPE  C31616812   0.151   2.520   8.298  0.0135 -0.5420  0.4056
  151SAPE  H16X16813   0.245   2.486   8.347  0.8100 -0.0600 -0.7414
  151SAPE  H16Y16814   0.147   2.631   8.305  0.0681 -0.5876  1.2843
  151SAPE  C31716815   0.137   2.488   8.149 -0.1519  0.2422 -0.4939
  151SAPE  H17X16816   0.044   2.530   8.107  1.2904  2.9008 -1.2535
  151SAPE  H17Y16817   0.134   2.378   8.138 -1.6254  0.2326 -0.2229
  151SAPE  C31816818   0.254   2.549   8.059  1.1553 -0.4372 -0.4831
  151SAPE  H18X16819   0.260   2.656   8.087 -0.5552 -0.9928  2.4623
  151SAPE  H18Y16820   0.222   2.539   7.953  0.9534  0.9686 -0.5705
  151SAPE  H18Z16821   0.354   2.501   8.063  1.1985 -0.7115 -2.9901
  152SAPE     N16822   3.362   1.239  10.759  0.1772 -0.0266 -0.2458
  152SAPE   HN116823   3.460   1.274  10.756  0.3665 -0.5521 -0.3737
  152SAPE   HN216824   3.318   1.287  10.839 -1.5352 -0.8309 -0.6726
  152SAPE   HN316825   3.370   1.135  10.766 -0.8603 -0.1250 -0.3852
  152SAPE   C1216826   3.304   1.290  10.632 -1.0659 -0.2042 -0.2264
  152SAPE  H12A16827   3.244   1.202  10.599  0.1250 -0.3897 -2.0071
  152SAPE  H12B16828   3.385   1.306  10.558  0.1747  2.2001  1.5354
  152SAPE   C1116829   3.217   1.413  10.658  0.1375 -0.8282  0.7347
  152SAPE  H11A16830   3.182   1.456  10.562  2.9882  3.3239  1.2905
  152SAPE  H11B16831   3.283   1.489  10.704  0.7998 -0.9186 -0.0468
  152SAPE     P16832   3.029   1.506  10.811 -0.1617  0.1686 -0.0789
  152SAPE   O1316833   2.925   1.449  10.902  0.1476  0.8286 -0.4219
  152SAPE   O1416834   3.135   1.587  10.882 -0.0822 -0.2401  0.9820
  152SAPE   O1216835   3.108   1.387  10.747  0.5557  0.2729 -0.3635
  152SAPE   O1116836   2.962   1.589  10.698  0.4000 -0.0519  0.1572
  152SAPE    C116837   2.861   1.530  10.621 -0.5256  0.1579 -0.4768
  152SAPE    HA16838   2.878   1.421  10.607  1.0782 -0.0052  2.1593
  152SAPE    HB16839   2.760   1.532  10.668 -1.0679 -4.4031 -1.0222
  152SAPE    C216840   2.858   1.585  10.475 -0.3955 -0.1492  0.1669
  152SAPE    HS16841   2.958   1.552  10.438 -1.3266 -1.0993 -1.5798
  152SAPE   O2116842   2.844   1.724  10.476 -0.4478  0.2488 -0.5134
  152SAPE   C2116843   2.906   1.797  10.383  0.0003  0.2070 -0.2470
  152SAPE   O2216844   2.981   1.741  10.300 -0.0084 -0.2410  0.0989
  152SAPE   C2216845   2.859   1.935  10.388 -0.4170 -0.8834  0.0569
  152SAPE   H2R16846   2.776   1.954  10.460 -0.1902  0.1928  0.0479
  152SAPE   H2S16847   2.948   2.000  10.401  0.4071 -1.5063 -2.0209
  152SAPE    C316848   2.745   1.521  10.390  0.0683  0.5363 -0.0716
  152SAPE    HX16849   2.650   1.532  10.447  0.8090  0.6911  1.1756
  152SAPE    HY16850   2.757   1.411  10.387  0.4594  0.4975  1.5559
  152SAPE   O3116851   2.708   1.578  10.262 -0.0326  0.3841 -0.0679
  152SAPE   C3116852   2.752   1.518  10.157 -0.1393  0.3802 -0.0813
  152SAPE   O3216853   2.819   1.418  10.151 -0.4025 -0.3826  0.2567
  152SAPE   C3216854   2.713   1.606  10.033  0.0021  0.6270  0.0549
  152SAPE   H2X16855   2.754   1.707  10.057  1.0648 -0.0003  0.9619
  152SAPE   H2Y16856   2.603   1.620  10.029  0.0679  1.7301  1.2903
  152SAPE   C2316857   2.801   1.981  10.254 -0.0842 -0.8151  0.7502
  152SAPE   H3R16858   2.706   1.929  10.229 -0.4016  0.9339 -2.2232
  152SAPE   H3S16859   2.868   1.953  10.171 -0.9401  2.4564 -1.2324
  152SAPE   C2416860   2.765   2.126  10.242 -0.3411  1.1470 -0.3235
  152SAPE   H4R16861   2.704   2.146  10.333  0.5065 -0.5075  0.6770
  152SAPE   H4S16862   2.704   2.134  10.150  1.8117  0.2725 -1.9055
  152SAPE   C2516863   2.891   2.210  10.238  0.2598 -0.1510 -0.6474
  152SAPE   H5R16864   2.946   2.186  10.331  0.1116 -1.9914 -0.9908
  152SAPE   C2616865   2.936   2.307  10.158  1.0261  0.8473 -0.8097
  152SAPE   H6R16866   3.023   2.369  10.185 -1.0793  2.7505  2.3769
  152SAPE   C2716867   2.868   2.346  10.028  0.6975 -0.2904 -0.5912
  152SAPE   H7R16868   2.824   2.448  10.041 -0.0705 -0.8185  1.2058
  152SAPE   H7S16869   2.776   2.285  10.015 -0.2007  0.7944  0.3881
  152SAPE   C2816870   2.952   2.351   9.907 -0.3745 -0.1958  0.6672
  152SAPE   H8R16871   3.053   2.390   9.928  0.8956 -2.9022 -0.0117
  152SAPE   C2916872   2.931   2.314   9.778  0.3692  0.0939  0.5720
  152SAPE   H9R16873   3.004   2.330   9.698  0.2927  1.6394  0.7900
  152SAPE  C21016874   2.806   2.259   9.721  0.1488  0.6543 -0.0794
  152SAPE  H10R16875   2.716   2.311   9.759  1.3015  1.0148  2.3161
  152SAPE  H10S16876   2.784   2.152   9.742  1.2512  0.8929  2.8009
  152SAPE  C21116877   2.796   2.288   9.579  0.0692 -0.3706  0.5097
  152SAPE  H11R16878   2.768   2.389   9.546 -2.2512 -2.0920 -3.5597
  152SAPE  C21216879   2.808   2.202   9.477  0.4319  0.7542  0.0159
  152SAPE  H12R16880   2.799   2.245   9.376 -2.3123 -1.6243 -0.8809
  152SAPE  C21316881   2.841   2.060   9.494  0.0334 -0.1378  0.5756
  152SAPE  H13R16882   2.763   2.011   9.556 -2.4828 -1.0423 -2.9648
  152SAPE  H13S16883   2.930   2.064   9.559 -0.1368  0.6036  0.7679
  152SAPE  C21416884   2.871   1.980   9.368 -0.2593  0.7915  0.8407
  152SAPE  H14R16885   2.979   1.979   9.348 -0.3385 -2.0704  0.0025
  152SAPE  C21516886   2.795   1.903   9.283 -0.6930 -0.2392  0.5949
  152SAPE  H15R16887   2.844   1.853   9.198 -0.9326 -0.3879  0.5402
  152SAPE  C21616888   2.652   1.875   9.289  0.1342  0.1726 -0.3769
  152SAPE  H16R16889   2.613   1.907   9.388  0.6292 -1.1619  0.2640
  152SAPE  H16S16890   2.633   1.766   9.284 -0.3350  0.3116 -2.6265
  152SAPE  C21716891   2.565   1.951   9.183 -0.1890 -0.6878  0.2336
  152SAPE  H17R16892   2.458   1.928   9.205  0.1103 -0.8074  1.6405
  152SAPE  H17S16893   2.587   1.918   9.080 -2.0178  0.5044 -0.6058
  152SAPE  C21816894   2.577   2.112   9.179 -0.5561  0.6743  0.3084
  152SAPE  H18R16895   2.682   2.146   9.189 -0.5140  0.1808  1.8458
  152SAPE  H18S16896   2.525   2.144   9.272  0.6810  1.7406  0.6629
  152SAPE  C21916897   2.510   2.185   9.066  0.8198  0.7688 -0.4738
  152SAPE  H19R16898   2.404   2.153   9.059  1.2075 -0.3194 -1.7163
  152SAPE  H19S16899   2.558   2.154   8.971 -0.8220 -1.5137 -0.6398
  152SAPE  C22016900   2.518   2.332   9.081  0.0618 -0.3506  0.0959
  152SAPE  H20R16901   2.624   2.361   9.072  0.3586 -1.6756 -1.0083
  152SAPE  H20S16902   2.482   2.362   9.182 -0.3472 -1.9967  0.4655
  152SAPE  H20T16903   2.455   2.377   9.002 -0.2872 -0.1833  0.4621
  152SAPE   C3316904   2.764   1.562   9.895  0.0721  0.4547  0.2950
  152SAPE   H3X16905   2.718   1.465   9.871  0.8906  0.5089 -1.7125
  152SAPE   H3Y16906   2.875   1.561   9.888  0.0449  0.2874 -0.1114
  152SAPE   C3416907   2.711   1.657   9.784 -0.4167  0.7291 -0.1516
  152SAPE   H4X16908   2.741   1.762   9.807 -1.9869  1.0344  0.6631
  152SAPE   H4Y16909   2.600   1.656   9.788 -0.4371 -1.1400 -0.4209
  152SAPE   C3516910   2.756   1.634   9.641 -0.4665 -0.3953  0.4457
  152SAPE   H5X16911   2.845   1.698   9.626  0.6623 -2.1485 -0.6714
  152SAPE   H5Y16912   2.688   1.669   9.561  0.9598 -3.2826 -2.2009
  152SAPE   C3616913   2.794   1.490   9.598 -0.3179 -0.0811  0.7453
  152SAPE   H6X16914   2.701   1.430   9.591  0.1117 -1.2315  3.4801
  152SAPE   H6Y16915   2.855   1.428   9.668 -1.2351 -0.8042  0.9293
  152SAPE   C3716916   2.847   1.490   9.457 -0.6450 -0.2498  0.3359
  152SAPE   H7X16917   2.790   1.562   9.394  1.4004  1.6651  0.5206
  152SAPE   H7Y16918   2.842   1.383   9.428 -0.8737 -0.3650  0.7975
  152SAPE   C3816919   2.995   1.540   9.459  0.3265  0.2053  0.4069
  152SAPE   H8X16920   3.047   1.470   9.528 -1.9109  1.7033  3.9540
  152SAPE   H8Y16921   3.020   1.643   9.493  1.0239  0.1510  0.0741
  152SAPE   C3916922   3.059   1.527   9.317  0.5928  0.4978  0.2011
  152SAPE   H9X16923   3.007   1.586   9.239  0.3541  0.2882  0.1999
  152SAPE   H9Y16924   3.053   1.419   9.292  1.8123 -0.5644  3.8882
  152SAPE  C31016925   3.204   1.569   9.322 -1.0737  0.9429 -0.1745
  152SAPE  H10X16926   3.270   1.508   9.387  1.3156  1.6449 -1.7954
  152SAPE  H10Y16927   3.210   1.671   9.365 -0.1401  0.6549  0.4109
  152SAPE  C31116928   3.266   1.561   9.183  0.6013  1.1619  0.5339
  152SAPE  H11X16929   3.374   1.579   9.200  0.0788  2.0996  3.4655
  152SAPE  H11Y16930   3.233   1.635   9.108  3.2043 -0.2728 -2.2431
  152SAPE  C31216931   3.243   1.410   9.126  0.1258 -0.4496 -0.1572
  152SAPE  H12X16932   3.138   1.390   9.093  0.6516  1.4891 -3.5309
  152SAPE  H12Y16933   3.268   1.329   9.198 -0.1413 -0.0030  0.4465
  152SAPE  C31316934   3.324   1.394   8.992  0.1232 -1.0240 -0.6238
  152SAPE  H13X16935   3.424   1.437   9.012 -0.5187 -0.2290  1.0374
  152SAPE  H13Y16936   3.269   1.457   8.919 -1.7543  1.2447  2.5280
  152SAPE  C31416937   3.326   1.249   8.940  0.6196 -1.1062  0.7206
  152SAPE  H14X16938   3.288   1.180   9.018 -0.8841 -0.2968  0.7288
  152SAPE  H14Y16939   3.432   1.221   8.920  0.7143 -1.1660  1.2875
  152SAPE  C31516940   3.241   1.218   8.815  0.4646 -0.2229  0.3104
  152SAPE  H15X16941   3.258   1.282   8.726  0.9608 -1.8398 -0.7935
  152SAPE  H15Y16942   3.131   1.223   8.832  0.8651 -0.4075  3.7514
  152SAPE  C31616943   3.265   1.069   8.771 -0.4055  1.0694  0.1965
  152SAPE  H16X16944   3.213   0.996   8.836 -2.5094  1.0182 -1.4602
  152SAPE  H16Y16945   3.376   1.060   8.779 -0.5361  0.5525  1.7112
  152SAPE  C31716946   3.219   1.038   8.626  1.1994  0.1493  0.9589
  152SAPE  H17X16947   3.273   0.963   8.565 -0.5841  1.0170 -1.8925
  152SAPE  H17Y16948   3.230   1.130   8.565 -3.8362  0.2021 -0.3069
  152SAPE  C31816949   3.064   1.006   8.626  0.6003 -0.5658 -0.0431
  152SAPE  H18X16950   3.024   0.921   8.684  2.9909 -2.3273 -0.8113
  152SAPE  H18Y16951   3.022   0.977   8.528 -0.8062 -1.9719  0.9268
  152SAPE  H18Z16952   3.005   1.097   8.652  1.3642 -0.3639  1.0893
  153SAPE     N16953   1.814   2.910  11.031  0.1326  0.2895 -0.1844
  153SAPE   HN116954   1.852   2.854  11.110 -0.2085  2.9129  1.9823
  153SAPE   HN216955   1.756   2.990  11.063  2.9822  2.5614 -0.2274
  153SAPE   HN316956   1.760   2.843  10.972 -0.0786  1.2890 -1.1545
  153SAPE   C1216957   1.920   2.977  10.951  0.5161  0.3452 -0.0749
  153SAPE  H12A16958   1.953   3.065  11.010 -0.6321  3.4792 -3.7103
  153SAPE  H12B16959   1.883   3.011  10.852  1.6142 -0.6846 -0.8698
  153SAPE   C1116960   2.027   2.879  10.921 -0.1308  0.3758 -0.0055
  153SAPE  H11A16961   2.085   2.857  11.013  0.9739 -3.0305 -1.3430
  153SAPE  H11B16962   2.095   2.928  10.848  0.9627  1.0163  1.4043
  153SAPE     P16963   2.013   2.696  10.723 -0.2332  0.1022 -0.8379
  153SAPE   O1316964   2.159   2.708  10.706  0.0991 -0.0170 -0.5889
  153SAPE   O1416965   1.960   2.561  10.705 -0.6753 -0.0170 -0.4064
  153SAPE   O1216966   1.977   2.757  10.868 -0.4817  0.3570 -0.2169
  153SAPE   O1116967   1.936   2.790  10.637 -0.7511 -0.5020 -0.0119
  153SAPE    C116968   1.830   2.753  10.551 -0.1155  0.0407 -0.3861
  153SAPE    HA16969   1.755   2.696  10.609 -0.4517  0.8695  0.0005
  153SAPE    HB16970   1.793   2.853  10.520  1.0376  0.3605 -0.7760
  153SAPE    C216971   1.875   2.680  10.425 -0.2657  0.1679 -0.6417
  153SAPE    HS16972   1.917   2.580  10.448 -0.9458 -0.8763 -3.5272
  153SAPE   O2116973   1.968   2.763  10.357 -0.2339  0.9965 -0.0201
  153SAPE   C2116974   2.074   2.690  10.303  0.3743 -0.1519 -0.0352
  153SAPE   O2216975   2.093   2.569  10.311  0.5576 -0.7176 -0.0427
  153SAPE   C2216976   2.167   2.788  10.233 -1.2210  0.6357  0.0931
  153SAPE   H2R16977   2.142   2.888  10.276 -1.9870  0.8324 -0.7745
  153SAPE   H2S16978   2.266   2.748  10.263 -1.4935  0.5447  0.8991
  153SAPE    C316979   1.755   2.658  10.330  0.0513 -0.5445  0.5070
  153SAPE    HX16980   1.702   2.756  10.328 -0.8782 -1.0422 -1.0921
  153SAPE    HY16981   1.681   2.593  10.381 -1.7398  1.9161  1.2876
  153SAPE   O3116982   1.788   2.615  10.189 -0.3828  0.5323  0.4362
  153SAPE   C3116983   1.817   2.486  10.178  0.7377 -0.4227 -1.0880
  153SAPE   O3216984   1.816   2.406  10.277  0.4653  0.7293  0.5995
  153SAPE   C3216985   1.882   2.462  10.041 -0.8013  0.3913  0.0594
  153SAPE   H2X16986   1.874   2.352  10.024  0.7002  0.6146 -2.6945
  153SAPE   H2Y16987   1.990   2.484  10.054 -0.1944 -1.5454 -1.2832
  153SAPE   C2316988   2.145   2.795  10.079 -0.1569  0.0031 -0.1252
  153SAPE   H3R16989   2.042   2.826  10.051  0.4287  3.0280  0.6916
  153SAPE   H3S16990   2.159   2.702  10.021  1.3236  0.3434 -0.3533
  153SAPE   C2416991   2.236   2.906  10.033  0.5080 -0.0492  0.0725
  153SAPE   H4R16992   2.247   2.979  10.116 -3.1057  0.1626  0.5235
  153SAPE   H4S16993   2.189   2.972   9.956 -0.2442 -0.5723  0.0750
  153SAPE   C2516994   2.371   2.844  10.002 -0.0097 -0.1014  0.9503
  153SAPE   H5R16995   2.436   2.811  10.084  1.8160 -0.6301 -0.6287
  153SAPE   C2616996   2.418   2.836   9.875  0.3242  0.0980  0.2182
  153SAPE   H6R16997   2.512   2.781   9.863 -0.2348 -0.5316 -1.4779
  153SAPE   C2716998   2.358   2.896   9.752  0.4225  0.2221  0.6193
  153SAPE   H7R16999   2.431   2.963   9.702  0.5049  0.0047  0.4443
  153SAPE   H7S17000   2.283   2.976   9.773  0.2443  0.4710 -0.8550
  153SAPE   C2817001   2.306   2.803   9.644 -0.0429 -1.1666 -0.2742
  153SAPE   H8R17002   2.198   2.782   9.639 -0.7723  2.0923 -0.2806
  153SAPE   C2917003   2.383   2.764   9.544 -0.4805  0.2746  0.6599
  153SAPE   H9R17004   2.336   2.701   9.467  2.3280 -0.7705 -0.3230
  153SAPE  C21017005   2.529   2.789   9.522 -0.0327 -0.5065 -0.3697
  153SAPE  H10R17006   2.587   2.815   9.613  1.1156  0.0158 -1.2217
  153SAPE  H10S17007   2.551   2.866   9.445  0.7627  0.7485  1.0611
  153SAPE  C21117008   2.584   2.657   9.479  0.6781  0.0617 -0.4095
  153SAPE  H11R17009   2.600   2.590   9.565 -0.5119 -0.0211 -0.2327
  153SAPE  C21217010   2.599   2.613   9.352  0.5855  0.0222  0.0278
  153SAPE  H12R17011   2.629   2.511   9.324  1.6198  0.7600 -1.6896
  153SAPE  C21317012   2.569   2.679   9.229 -0.3152 -0.2578  0.3443
  153SAPE  H13R17013   2.488   2.754   9.247  0.9844  0.9866  1.2548
  153SAPE  H13S17014   2.531   2.602   9.160 -0.2619 -0.5559  0.6450
  153SAPE  C21417015   2.684   2.763   9.175  0.0437 -0.1195 -0.1808
  153SAPE  H14R17016   2.728   2.831   9.249 -1.3093 -1.0674  1.5637
  153SAPE  C21517017   2.740   2.767   9.055 -0.9371  0.1557  0.7361
  153SAPE  H15R17018   2.836   2.820   9.042 -0.7233  0.1231  2.0502
  153SAPE  C21617019   2.705   2.673   8.947  0.4240  0.4999 -0.3591
  153SAPE  H16R17020   2.615   2.614   8.975  0.7659 -0.0691 -0.4465
  153SAPE  H16S17021   2.789   2.602   8.939 -0.1056 -0.4829  1.9630
  153SAPE  C21717022   2.673   2.737   8.811 -0.1269 -0.1961 -0.4699
  153SAPE  H17R17023   2.754   2.792   8.759 -0.6824  0.7497 -0.3597
  153SAPE  H17S17024   2.608   2.825   8.832  2.3722  2.8622 -4.1018
  153SAPE  C21817025   2.624   2.625   8.708 -0.4046 -0.6390  0.4191
  153SAPE  H18R17026   2.700   2.545   8.699 -0.2308 -0.2747 -2.1825
  153SAPE  H18S17027   2.617   2.685   8.614  0.4583 -0.4536  0.4621
  153SAPE  C21917028   2.478   2.581   8.748 -0.3013  0.3876  0.3294
  153SAPE  H19R17029   2.446   2.622   8.846 -0.1068  1.0337  0.1279
  153SAPE  H19S17030   2.478   2.470   8.751  2.5211  0.3271  1.1647
  153SAPE  C22017031   2.369   2.637   8.656 -0.4128 -0.0912 -0.1822
  153SAPE  H20R17032   2.342   2.742   8.680  0.3583 -0.2881  1.7600
  153SAPE  H20S17033   2.279   2.571   8.665 -0.3749 -0.0279  0.7905
  153SAPE  H20T17034   2.383   2.628   8.547  3.3457  1.4151  0.0322
  153SAPE   C3317035   1.824   2.546   9.925 -0.2899  0.0196 -0.2502
  153SAPE   H3X17036   1.822   2.655   9.951 -0.7419 -0.0100 -0.1529
  153SAPE   H3Y17037   1.716   2.523   9.913 -0.1344 -3.1660  2.7852
  153SAPE   C3417038   1.891   2.532   9.786 -0.0315 -0.0793 -0.3753
  153SAPE   H4X17039   1.916   2.425   9.774  2.2707  0.4025 -0.3012
  153SAPE   H4Y17040   1.984   2.592   9.788 -0.8160  1.2477  2.4297
  153SAPE   C3517041   1.799   2.582   9.667 -0.6319  0.0812  0.7293
  153SAPE   H5X17042   1.752   2.682   9.681 -1.3069  0.1578 -1.6593
  153SAPE   H5Y17043   1.712   2.513   9.657 -2.4989  2.4412 -0.1472
  153SAPE   C3617044   1.866   2.585   9.529 -0.0545  0.5124  0.0453
  153SAPE   H6X17045   1.922   2.492   9.507 -1.4696 -1.3657  3.4762
  153SAPE   H6Y17046   1.934   2.672   9.525 -0.6271  0.9972  0.6409
  153SAPE   C3717047   1.758   2.608   9.419 -0.0251  0.4714  0.0443
  153SAPE   H7X17048   1.691   2.686   9.461 -2.2492 -1.2473 -0.1205
  153SAPE   H7Y17049   1.695   2.517   9.419  1.4727 -0.5876  0.5895
  153SAPE   C3817050   1.816   2.640   9.282  0.6238 -0.3609 -0.1650
  153SAPE   H8X17051   1.863   2.546   9.245  0.9757 -0.7102  1.1343
  153SAPE   H8Y17052   1.888   2.723   9.298 -1.0932  1.4588 -1.3675
  153SAPE   C3917053   1.717   2.677   9.183  0.1556  0.2397 -0.0765
  153SAPE   H9X17054   1.669   2.772   9.217  0.9012  1.2994 -1.8500
  153SAPE   H9Y17055   1.638   2.600   9.169 -0.9522  1.4522 -0.7500
  153SAPE  C31017056   1.786   2.711   9.046  0.2968  0.8324  0.2442
  153SAPE  H10X17057   1.847   2.619   9.028 -1.2424  0.1470 -1.7648
  153SAPE  H10Y17058   1.850   2.800   9.065  0.3405  0.4569  2.0519
  153SAPE  C31117059   1.692   2.724   8.930  0.0008  0.2959  0.0790
  153SAPE  H11X17060   1.620   2.807   8.944 -0.1594  0.1905 -0.1114
  153SAPE  H11Y17061   1.632   2.632   8.914  0.8421 -0.4017  0.8092
  153SAPE  C31217062   1.765   2.751   8.796  0.9725 -0.7281 -0.4147
  153SAPE  H12X17063   1.844   2.676   8.773 -1.1853 -2.6566 -2.0178
  153SAPE  H12Y17064   1.802   2.855   8.799 -1.1661  0.0896 -0.8581
  153SAPE  C31317065   1.669   2.753   8.670 -0.7429  1.0290  0.4862
  153SAPE  H13X17066   1.624   2.652   8.659 -0.3336  0.8470  0.4329
  153SAPE  H13Y17067   1.735   2.767   8.582  0.6193  1.4372  1.5338
  153SAPE  C31417068   1.563   2.862   8.670  0.1459  0.3559 -0.2058
  153SAPE  H14X17069   1.616   2.958   8.689  0.1854  0.0203  1.5513
  153SAPE  H14Y17070   1.497   2.847   8.758  0.8473 -0.3727  0.2168
  153SAPE  C31517071   1.493   2.876   8.539  0.6808 -0.3416  0.0465
  153SAPE  H15X17072   1.405   2.807   8.546  0.9370 -1.0990 -2.9999
  153SAPE  H15Y17073   1.546   2.832   8.452  1.4099 -0.1201  0.3709
  153SAPE  C31617074   1.438   3.011   8.512  0.2618  0.1028 -0.5871
  153SAPE  H16X17075   1.515   3.084   8.482  0.7478  1.4136  3.2605
  153SAPE  H16Y17076   1.389   3.061   8.598 -0.7363 -2.8772  0.7107
  153SAPE  C31717077   1.331   3.004   8.397 -0.1262 -0.3208  0.3338
  153SAPE  H17X17078   1.241   2.945   8.425  0.1058 -0.5712  0.5549
  153SAPE  H17Y17079   1.365   2.943   8.311 -1.1242 -0.7773  0.2463
  153SAPE  C31817080   1.284   3.142   8.352  0.7273  0.7325  0.0594
  153SAPE  H18X17081   1.205   3.174   8.423 -2.4953 -0.7466 -2.5560
  153SAPE  H18Y17082   1.239   3.131   8.251  2.8268 -0.6439 -0.8003
  153SAPE  H18Z17083   1.376   3.203   8.342  0.5934  0.9118 -0.0730
  154SAPE     N17084   3.480   2.800  11.119  0.1943 -0.4690  0.5836
  154SAPE   HN117085   3.414   2.722  11.142  1.5521 -1.4583  1.3113
  154SAPE   HN217086   3.575   2.786  11.157  0.8952 -2.4452 -1.6260
  154SAPE   HN317087   3.435   2.892  11.137 -3.0646 -1.7593 -0.3004
  154SAPE   C1217088   3.501   2.784  10.969  0.0481  0.5293 -0.2846
  154SAPE  H12A17089   3.605   2.745  10.960  1.2568  3.6116 -1.1595
  154SAPE  H12B17090   3.497   2.883  10.918  1.5883  0.8831  0.2281
  154SAPE   C1117091   3.393   2.691  10.905  0.1139 -0.8665  0.9499
  154SAPE  H11A17092   3.405   2.582  10.926  0.5173 -0.9268  0.4114
  154SAPE  H11B17093   3.409   2.698  10.796  0.0346  0.4276  1.0123
  154SAPE     P17094   3.137   2.660  10.889 -0.1184  0.1575  0.0724
  154SAPE   O1317095   3.122   2.548  10.985  0.5269  0.6225  0.2456
  154SAPE   O1417096   3.035   2.767  10.878  0.0295  0.6118  0.4876
  154SAPE   O1217097   3.261   2.743  10.933 -0.0297  0.3524 -0.0229
  154SAPE   O1117098   3.177   2.597  10.758  0.6842  0.3833 -0.6538
  154SAPE    C117099   3.125   2.476  10.703  0.6505 -0.0797 -0.0790
  154SAPE    HA17100   3.206   2.404  10.679 -0.9921 -1.5883 -1.3572
  154SAPE    HB17101   3.064   2.418  10.776 -0.0942  1.2531  0.4064
  154SAPE    C217102   3.027   2.492  10.582  0.0999  0.1196 -0.4102
  154SAPE    HS17103   2.993   2.391  10.549  2.0790 -0.0682 -2.0354
  154SAPE   O2117104   3.103   2.566  10.489  0.2681  0.1064 -0.1408
  154SAPE   C2117105   3.184   2.491  10.420 -0.1337  0.1148  0.1744
  154SAPE   O2217106   3.189   2.371  10.413 -0.0264 -0.2706  0.2579
  154SAPE   C2217107   3.271   2.588  10.333  0.3025  0.0527  0.4319
  154SAPE   H2R17108   3.237   2.693  10.345 -1.0730 -0.2165 -0.8815
  154SAPE   H2S17109   3.373   2.580  10.376  1.5432  1.9157 -1.9213
  154SAPE    C317110   2.898   2.563  10.630  0.6441 -0.5583  0.4473
  154SAPE    HX17111   2.920   2.668  10.662 -0.6963  0.2808 -1.2225
  154SAPE    HY17112   2.857   2.504  10.715 -1.4387  0.9751  0.5973
  154SAPE   O3117113   2.792   2.578  10.525 -0.1523 -0.3174 -0.5139
  154SAPE   C3117114   2.727   2.474  10.489 -0.2287  0.2977 -0.1652
  154SAPE   O3217115   2.751   2.356  10.527 -0.2188 -0.8536 -0.2740
  154SAPE   C3217116   2.629   2.512  10.387 -0.7845  0.1803  0.0570
  154SAPE   H2X17117   2.683   2.545  10.295  0.5530 -2.1411 -0.0562
  154SAPE   H2Y17118   2.573   2.601  10.423 -1.1523  0.9353 -2.1616
  154SAPE   C2317119   3.268   2.554  10.185  0.7186 -0.3601  0.0761
  154SAPE   H3R17120   3.168   2.542  10.139  0.1033  0.7724  1.0630
  154SAPE   H3S17121   3.312   2.453  10.182  0.6437 -0.3960  0.1986
  154SAPE   C2417122   3.368   2.647  10.103  0.4376  0.3112 -0.3397
  154SAPE   H4R17123   3.368   2.589  10.008  1.6750  2.0673 -1.4657
  154SAPE   H4S17124   3.468   2.643  10.151 -0.5994 -1.7699  1.8352
  154SAPE   C2517125   3.319   2.787  10.080 -0.0096 -0.5360  0.3283
  154SAPE   H5R17126   3.326   2.853  10.168 -1.1594 -0.5240  0.4350
  154SAPE   C2617127   3.238   2.824   9.972 -0.4911 -0.3286  0.5270
  154SAPE   H6R17128   3.191   2.924   9.975 -2.3504 -0.6615 -5.0280
  154SAPE   C2717129   3.193   2.746   9.850  0.0546  0.2805 -0.8129
  154SAPE   H7R17130   3.100   2.794   9.813  0.9631  0.4887 -2.9172
  154SAPE   H7S17131   3.172   2.646   9.893  1.7229  1.6487  3.7979
  154SAPE   C2817132   3.287   2.728   9.732  0.3174 -0.8261  0.2613
  154SAPE   H8R17133   3.374   2.796   9.731 -0.7403  0.6143 -1.3936
  154SAPE   C2917134   3.273   2.645   9.628  0.1189 -0.1685 -0.0185
  154SAPE   H9R17135   3.354   2.641   9.554  1.6978  1.2740  1.5089
  154SAPE  C21017136   3.154   2.559   9.603  0.2160  0.2444  0.3020
  154SAPE  H10R17137   3.091   2.546   9.693 -0.0700 -0.0350  0.0630
  154SAPE  H10S17138   3.203   2.460   9.593  2.6161  1.3352  0.3868
  154SAPE  C21117139   3.060   2.597   9.488  0.5992 -0.1732  0.1122
  154SAPE  H11R17140   2.994   2.683   9.511 -0.6342 -0.5941 -1.6232
  154SAPE  C21217141   3.049   2.557   9.359  0.8442  0.7168 -0.5797
  154SAPE  H12R17142   2.981   2.608   9.289  0.0438  0.0634 -0.3005
  154SAPE  C21317143   3.135   2.444   9.298  0.1283  0.3829  0.0860
  154SAPE  H13R17144   3.224   2.422   9.361  1.0643  3.3450 -0.0491
  154SAPE  H13S17145   3.188   2.474   9.206 -2.0943  2.3473 -0.6643
  154SAPE  C21417146   3.056   2.319   9.289 -0.1312  0.9818 -0.2909
  154SAPE  H14R17147   3.074   2.253   9.375  0.5150  1.0080 -0.3988
  154SAPE  C21517148   2.989   2.280   9.183 -0.3063  1.1285 -0.3632
  154SAPE  H15R17149   2.943   2.180   9.175  1.2109  0.2203  1.5289
  154SAPE  C21617150   2.966   2.363   9.065  0.1400  0.5267  0.4718
  154SAPE  H16R17151   3.058   2.404   9.018  2.0243 -0.5302  3.0253
  154SAPE  H16S17152   2.899   2.450   9.083 -0.1541  0.6023 -0.8726
  154SAPE  C21717153   2.894   2.285   8.954  0.5865  0.0885 -0.1479
  154SAPE  H17R17154   2.784   2.272   8.970  0.1616  4.4272  1.6687
  154SAPE  H17S17155   2.955   2.195   8.931 -0.5590  0.0315 -3.6011
  154SAPE  C21817156   2.889   2.349   8.811 -0.5574 -0.3868 -1.0875
  154SAPE  H18R17157   2.984   2.404   8.800  0.5595 -1.9498  0.2023
  154SAPE  H18S17158   2.816   2.431   8.831 -1.8471 -1.8816  0.7810
  154SAPE  C21917159   2.858   2.258   8.700  0.3837 -0.3087  0.3910
  154SAPE  H19R17160   2.758   2.212   8.719 -0.4196  1.1507 -0.1571
  154SAPE  H19S17161   2.931   2.177   8.679  0.3702 -0.3188  0.3831
  154SAPE  C22017162   2.845   2.339   8.568  0.5469  0.1819 -0.3346
  154SAPE  H20R17163   2.925   2.416   8.563 -0.3098  1.3782  2.1717
  154SAPE  H20S17164   2.744   2.387   8.567 -0.1439 -1.1639 -3.0449
  154SAPE  H20T17165   2.843   2.265   8.486  1.0107 -1.3520  0.9865
  154SAPE   C3317166   2.535   2.400  10.343 -0.5597  0.9318 -0.3957
  154SAPE   H3X17167   2.474   2.367  10.430 -1.5566  0.5085 -1.2371
  154SAPE   H3Y17168   2.590   2.306  10.320  0.7202  1.3053  0.9574
  154SAPE   C3417169   2.437   2.434  10.235 -0.2814  0.3761  0.2119
  154SAPE   H4X17170   2.381   2.522  10.275 -0.1740 -0.4486  2.3262
  154SAPE   H4Y17171   2.369   2.347  10.220 -2.4029  1.8822  0.4807
  154SAPE   C3517172   2.507   2.473  10.107 -0.6778 -0.4543 -0.1125
  154SAPE   H5X17173   2.577   2.393  10.074 -1.8606 -1.2912 -0.7155
  154SAPE   H5Y17174   2.557   2.571  10.114 -0.6656 -0.5627  1.8506
  154SAPE   C3617175   2.398   2.486   9.993 -0.2951 -0.0884 -0.1865
  154SAPE   H6X17176   2.461   2.506   9.903 -0.8164 -0.5988 -0.6810
  154SAPE   H6Y17177   2.329   2.571  10.013 -0.2911  0.5835 -2.6819
  154SAPE   C3717178   2.313   2.356   9.950  0.3639 -0.1346 -0.3759
  154SAPE   H7X17179   2.247   2.343  10.039 -0.6274  0.2578 -1.0490
  154SAPE   H7Y17180   2.374   2.265   9.933 -0.1218 -0.8129  1.2857
  154SAPE   C3817181   2.223   2.392   9.834  0.3535 -0.2163  0.1618
  154SAPE   H8X17182   2.179   2.492   9.856  1.4315  0.5706 -1.1234
  154SAPE   H8Y17183   2.150   2.309   9.842  0.7409 -0.5175  0.6549
  154SAPE   C3917184   2.283   2.398   9.694  0.7882  0.1772  0.3933
  154SAPE   H9X17185   2.321   2.298   9.666 -0.2331 -0.3003  0.6577
  154SAPE   H9Y17186   2.367   2.471   9.694  0.1936  0.9385 -1.7386
  154SAPE  C31017187   2.177   2.418   9.582 -0.1537 -0.3484  0.1087
  154SAPE  H10X17188   2.139   2.522   9.589 -1.2804 -0.8542  2.4979
  154SAPE  H10Y17189   2.092   2.346   9.587  1.0254 -1.8339 -0.3868
  154SAPE  C31117190   2.234   2.396   9.444  0.2185  0.1560 -0.7085
  154SAPE  H11X17191   2.246   2.286   9.440 -0.7737 -0.3328  3.7633
  154SAPE  H11Y17192   2.331   2.448   9.433  2.7593 -3.5137  1.9918
  154SAPE  C31217193   2.130   2.428   9.331 -0.4680  0.0438 -0.6595
  154SAPE  H12X17194   2.105   2.536   9.340 -0.6577 -0.1328  1.5041
  154SAPE  H12Y17195   2.041   2.371   9.364 -0.2170 -0.5514 -0.9815
  154SAPE  C31317196   2.182   2.390   9.190 -0.1050 -0.1836 -0.0898
  154SAPE  H13X17197   2.206   2.282   9.180  1.0246  0.1157 -0.7039
  154SAPE  H13Y17198   2.271   2.450   9.161 -0.4973 -0.4543 -1.9809
  154SAPE  C31417199   2.072   2.414   9.082 -0.4022 -0.4825 -0.0456
  154SAPE  H14X17200   2.059   2.522   9.102 -0.1495 -0.4144 -0.2475
  154SAPE  H14Y17201   1.981   2.359   9.115 -0.8115  1.8113  3.1252
  154SAPE  C31517202   2.117   2.393   8.938 -0.5903  0.0668 -0.4155
  154SAPE  H15X17203   2.216   2.444   8.938  0.0158 -0.9437  2.1063
  154SAPE  H15Y17204   2.046   2.456   8.880 -2.1684 -1.1065  0.1697
  154SAPE  C31617205   2.116   2.250   8.890 -0.2884 -0.1159 -0.0758
  154SAPE  H16X17206   2.024   2.202   8.933  0.0966 -0.9513 -0.1591
  154SAPE  H16Y17207   2.209   2.199   8.922  0.1132 -0.0035 -1.0400
  154SAPE  C31717208   2.095   2.224   8.740 -0.0281 -0.1498 -0.5631
  154SAPE  H17X17209   2.196   2.256   8.706 -0.7450  3.4700  0.3714
  154SAPE  H17Y17210   2.022   2.300   8.705  1.4659  1.2504 -0.7591
  154SAPE  C31817211   2.039   2.084   8.721 -0.2277 -0.0454 -0.4445
  154SAPE  H18X17212   2.024   2.064   8.613  0.0590 -0.4147 -0.4199
  154SAPE  H18Y17213   1.946   2.063   8.778  1.1479 -1.2699  1.4856
  154SAPE  H18Z17214   2.109   2.010   8.767  0.8187 -0.0107 -1.9012
  155SAPE     N17215   5.396   2.225  11.169 -0.4029 -0.3320  0.2892
  155SAPE   HN117216   5.388   2.322  11.131  1.6870  0.4490  1.6567
  155SAPE   HN217217   5.332   2.217  11.251  0.1454 -1.9900  0.5737
  155SAPE   HN317218   5.491   2.232  11.211 -0.6986  2.4384  0.7350
  155SAPE   C1217219   5.367   2.110  11.077 -0.3331  0.3425 -0.1192
  155SAPE  H12A17220   5.258   2.093  11.085 -0.3383  0.2148 -0.4579
  155SAPE  H12B17221   5.427   2.027  11.119  2.1717  1.7733 -0.6593
  155SAPE   C1117222   5.414   2.137  10.926  0.0574 -0.0456 -0.6513
  155SAPE  H11A17223   5.420   2.041  10.870  0.1184 -1.0106  0.9240
  155SAPE  H11B17224   5.521   2.164  10.929 -0.2801  1.3133 -0.0806
  155SAPE     P17225   5.186   2.219  10.840  0.2998  0.0594 -0.1780
  155SAPE   O1317226   5.171   2.069  10.830 -0.4763 -0.0135  0.6532
  155SAPE   O1417227   5.098   2.290  10.934 -0.1026  0.1207 -0.6007
  155SAPE   O1217228   5.341   2.245  10.869 -0.1262 -0.0281 -0.0673
  155SAPE   O1117229   5.174   2.282  10.693  0.0247 -0.3149 -0.0043
  155SAPE    C117230   5.268   2.254  10.593  0.3843  0.2017  0.3944
  155SAPE    HA17231   5.311   2.356  10.576 -1.9197  0.8595 -2.1282
  155SAPE    HB17232   5.343   2.180  10.628  0.1885 -0.8438 -1.3053
  155SAPE    C217233   5.200   2.204  10.462 -0.7279 -0.1718 -0.7641
  155SAPE    HS17234   5.277   2.214  10.383 -0.8503  1.7178 -0.6857
  155SAPE   O2117235   5.084   2.278  10.439  0.5425 -0.0452 -0.0664
  155SAPE   C2117236   5.059   2.307  10.307 -0.2424 -0.6706 -0.1811
  155SAPE   O2217237   5.130   2.290  10.211  0.1855  0.1959 -0.3673
  155SAPE   C2217238   4.922   2.378  10.296  0.5452  0.4116  0.5013
  155SAPE   H2R17239   4.840   2.303  10.297  1.6306 -0.8187  0.6188
  155SAPE   H2S17240   4.918   2.445  10.384  4.5512  2.6410 -0.7609
  155SAPE    C317241   5.173   2.050  10.472 -0.2381  0.5133 -0.0404
  155SAPE    HX17242   5.097   2.047  10.553 -1.7730  1.1157 -1.4059
  155SAPE    HY17243   5.260   1.987  10.499 -1.6906 -1.7499 -0.3261
  155SAPE   O3117244   5.118   2.003  10.345 -0.3022 -0.1684  0.2400
  155SAPE   C3117245   5.214   1.979  10.251 -0.1020 -0.0992  0.1166
  155SAPE   O3217246   5.336   1.989  10.266 -0.1066 -0.8407 -0.3712
  155SAPE   C3217247   5.143   1.923  10.129  0.2487 -0.5036  0.5651
  155SAPE   H2X17248   5.042   1.896  10.166  0.1920  0.3519  1.0595
  155SAPE   H2Y17249   5.203   1.835  10.095  0.3603 -0.3630  0.3984
  155SAPE   C2317250   4.896   2.462  10.177 -0.1252 -0.2201  0.8032
  155SAPE   H3R17251   4.912   2.404  10.083 -0.3272 -0.1365  0.7177
  155SAPE   H3S17252   4.972   2.543  10.182  0.2381 -0.5616  0.8507
  155SAPE   C2417253   4.753   2.526  10.164 -0.2853  0.5183  0.5778
  155SAPE   H4R17254   4.742   2.591  10.253  0.8026  0.3527  0.8463
  155SAPE   H4S17255   4.676   2.446  10.171  1.2497 -1.0807 -0.0399
  155SAPE   C2517256   4.747   2.603  10.032 -0.2048  0.1423 -0.9209
  155SAPE   H5R17257   4.826   2.680  10.037 -0.3130  0.1746  2.1899
  155SAPE   C2617258   4.658   2.594   9.932 -0.2085 -0.6616  0.1571
  155SAPE   H6R17259   4.666   2.655   9.841  0.6465 -2.1895 -0.8447
  155SAPE   C2717260   4.545   2.500   9.927  0.4939  0.5296 -0.4241
  155SAPE   H7R17261   4.555   2.422  10.006  2.3873  0.4541 -0.6999
  155SAPE   H7S17262   4.542   2.438   9.836 -1.3188 -0.2308  0.1082
  155SAPE   C2817263   4.425   2.577   9.947  0.0071 -0.9210  0.0960
  155SAPE   H8R17264   4.428   2.641  10.036  1.0442 -0.8142 -0.0008
  155SAPE   C2917265   4.320   2.599   9.859 -0.8890 -0.1909 -0.0935
  155SAPE   H9R17266   4.244   2.675   9.880  1.6352  2.4768  0.1522
  155SAPE  C21017267   4.315   2.539   9.725  0.3559  0.3733 -0.0506
  155SAPE  H10R17268   4.214   2.501   9.698 -0.0929  0.1718  1.7960
  155SAPE  H10S17269   4.359   2.437   9.718  0.8262  0.5215  0.7320
  155SAPE  C21117270   4.377   2.632   9.618  0.9118  0.0348  0.1308
  155SAPE  H11R17271   4.481   2.614   9.588  0.9311  1.4797 -0.7669
  155SAPE  C21217272   4.315   2.725   9.536 -0.6585  0.1229 -0.1664
  155SAPE  H12R17273   4.375   2.779   9.461 -0.0177 -1.0636 -0.5331
  155SAPE  C21317274   4.167   2.748   9.552  0.5861 -0.0465 -0.7362
  155SAPE  H13R17275   4.117   2.679   9.623 -1.4054  0.0872 -1.9248
  155SAPE  H13S17276   4.123   2.715   9.455 -0.4074 -1.5118  0.1669
  155SAPE  C21417277   4.136   2.889   9.586 -0.7545 -0.1485 -0.3315
  155SAPE  H14R17278   4.185   2.921   9.679  0.2184  0.4838 -1.0341
  155SAPE  C21517279   4.058   2.973   9.511  0.0720  0.3926  0.5020
  155SAPE  H15R17280   4.052   3.079   9.539  0.8035  0.4197  0.5800
  155SAPE  C21617281   3.980   2.932   9.384 -1.3617  0.1785  0.1310
  155SAPE  H16R17282   3.884   2.989   9.386 -1.8510 -0.5125 -1.5732
  155SAPE  H16S17283   3.944   2.826   9.382 -1.6171  0.2369  1.0614
  155SAPE  C21717284   4.057   2.969   9.256  0.1819 -0.4725 -0.3481
  155SAPE  H17R17285   3.994   2.947   9.167 -0.9891  1.6709 -0.1204
  155SAPE  H17S17286   4.150   2.908   9.262  1.7462  1.8667  0.4034
  155SAPE  C21817287   4.085   3.113   9.254 -0.3872 -0.3400  0.1022
  155SAPE  H18R17288   4.144   3.159   9.336  1.0064 -0.7418 -0.6390
  155SAPE  H18S17289   3.983   3.153   9.265 -1.7272 -3.9345  3.0647
  155SAPE  C21917290   4.155   3.158   9.123  0.3948 -0.2502  0.1668
  155SAPE  H19R17291   4.103   3.125   9.031 -0.1710 -1.6869  0.9766
  155SAPE  H19S17292   4.256   3.113   9.115  0.1755 -0.5559 -1.0233
  155SAPE  C22017293   4.152   3.311   9.120  0.3646 -0.5789 -0.1828
  155SAPE  H20R17294   4.192   3.342   9.219  0.9162 -0.1017 -0.5492
  155SAPE  H20S17295   4.057   3.361   9.093 -0.0716 -2.3178 -2.0783
  155SAPE  H20T17296   4.233   3.339   9.049  1.0675 -0.2932  0.7147
  155SAPE   C3317297   5.140   2.032  10.014  0.3130  0.6428 -0.6620
  155SAPE   H3X17298   5.238   2.076   9.986  0.9634 -0.7959 -0.7345
  155SAPE   H3Y17299   5.082   2.117  10.054 -0.8511 -0.4396  0.0302
  155SAPE   C3417300   5.084   1.972   9.887  0.0786 -0.3667  0.7266
  155SAPE   H4X17301   4.974   1.985   9.880  0.1890 -0.2066 -1.4968
  155SAPE   H4Y17302   5.112   1.865   9.891  1.6814 -0.0256 -0.3088
  155SAPE   C3517303   5.123   2.039   9.756 -0.2771 -0.1054 -0.5688
  155SAPE   H5X17304   5.230   2.067   9.747 -0.6573  1.2809 -1.1700
  155SAPE   H5Y17305   5.064   2.133   9.748 -1.3502 -0.7386 -0.2653
  155SAPE   C3617306   5.081   1.955   9.639  0.1628 -1.2041  0.7698
  155SAPE   H6X17307   4.974   1.924   9.640 -0.8981  2.0159  0.5351
  155SAPE   H6Y17308   5.144   1.865   9.629 -2.7221 -3.2593 -0.3286
  155SAPE   C3717309   5.104   2.024   9.499  0.2848 -0.5220  0.0073
  155SAPE   H7X17310   5.203   2.074   9.497  0.7835 -0.8967  4.6341
  155SAPE   H7Y17311   5.031   2.105   9.476 -0.5270 -1.5945 -1.3779
  155SAPE   C3817312   5.083   1.926   9.380 -0.4243 -0.1672 -0.7935
  155SAPE   H8X17313   4.984   1.877   9.384 -0.5132  0.0483 -0.2251
  155SAPE   H8Y17314   5.154   1.845   9.407  0.2932  0.7274  0.1033
  155SAPE   C3917315   5.140   1.978   9.245 -0.2393 -0.0723 -0.1761
  155SAPE   H9X17316   5.189   1.897   9.185  0.6203  0.3060 -0.0019
  155SAPE   H9Y17317   5.218   2.055   9.263 -1.4606  1.3583 -0.8268
  155SAPE  C31017318   5.036   2.031   9.151  0.3726  0.2092 -0.0145
  155SAPE  H10X17319   4.980   2.113   9.201 -0.0126 -0.8638  1.3810
  155SAPE  H10Y17320   4.961   1.953   9.125  0.8011 -0.4098  0.5625
  155SAPE  C31117321   5.111   2.076   9.023  1.1367  0.4762  0.4109
  155SAPE  H11X17322   5.174   1.996   8.980  0.1733  0.7532 -1.6159
  155SAPE  H11Y17323   5.176   2.162   9.048  2.0833 -0.3127  0.7200
  155SAPE  C31217324   5.021   2.121   8.902  0.1948  0.4191 -0.6621
  155SAPE  H12X17325   4.938   2.186   8.935  0.0554  0.9704 -2.0063
  155SAPE  H12Y17326   4.969   2.035   8.855  0.5288  0.7054 -1.5964
  155SAPE  C31317327   5.096   2.195   8.795  0.0349 -0.2683  0.3775
  155SAPE  H13X17328   5.189   2.244   8.832 -0.2989  0.4292  0.3052
  155SAPE  H13Y17329   5.021   2.266   8.754  0.7990  0.7325  0.6726
  155SAPE  C31417330   5.157   2.112   8.684 -0.5768 -0.7535  0.4585
  155SAPE  H14X17331   5.081   2.041   8.647 -2.0011  0.3967  1.0567
  155SAPE  H14Y17332   5.245   2.061   8.729 -0.8505 -1.0689  0.6406
  155SAPE  C31517333   5.190   2.217   8.566 -0.3339 -0.0607 -0.5284
  155SAPE  H15X17334   5.284   2.189   8.514  0.5247 -0.8188  1.3186
  155SAPE  H15Y17335   5.223   2.314   8.608  0.0149  0.9797 -3.0537
  155SAPE  C31617336   5.073   2.221   8.468 -0.4242 -0.1108  0.1380
  155SAPE  H16X17337   4.976   2.221   8.523 -1.1208  0.2189 -1.0563
  155SAPE  H16Y17338   5.075   2.125   8.412 -1.9487  0.5982 -1.2304
  155SAPE  C31717339   5.083   2.335   8.367  0.1910 -0.9052 -0.7471
  155SAPE  H17X17340   4.997   2.326   8.297 -0.9830 -2.7138  0.8203
  155SAPE  H17Y17341   5.170   2.328   8.298 -1.7260 -1.8861 -3.2447
  155SAPE  C31817342   5.078   2.475   8.441  0.0582  0.3514 -0.2521
  155SAPE  H18X17343   5.072   2.555   8.364 -2.0668 -1.0468 -1.6324
  155SAPE  H18Y17344   5.163   2.480   8.513 -0.7719  0.2388  0.7522
  155SAPE  H18Z17345   4.985   2.475   8.500 -0.4928 -1.0571 -1.0758
  156SAPE     N17346   2.284   0.364  10.891 -0.4955 -0.6283  0.2248
  156SAPE   HN117347   2.355   0.289  10.909  0.0843 -0.2829 -0.5646
  156SAPE   HN217348   2.236   0.385  10.981  0.3235  2.2895  0.0862
  156SAPE   HN317349   2.222   0.319  10.821 -0.2121  0.3938 -0.7035
  156SAPE   C1217350   2.356   0.480  10.838 -0.9332 -0.1661 -0.0715
  156SAPE  H12A17351   2.452   0.443  10.795 -1.8004 -3.2587  0.4393
  156SAPE  H12B17352   2.367   0.569  10.903 -0.7738  1.0229 -1.6568
  156SAPE   C1117353   2.276   0.544  10.718 -0.1321  0.2501 -0.0660
  156SAPE  H11A17354   2.291   0.477  10.630  2.2165  0.0903  0.3953
  156SAPE  H11B17355   2.323   0.634  10.675  0.1299 -0.0861 -0.4878
  156SAPE     P17356   2.018   0.567  10.642  0.1879  0.0423 -0.2341
  156SAPE   O1317357   1.928   0.457  10.690 -0.7563  1.1184 -0.0963
  156SAPE   O1417358   1.953   0.700  10.646  0.1210 -0.2377 -0.1871
  156SAPE   O1217359   2.136   0.574  10.746 -0.2330 -0.2274  0.0903
  156SAPE   O1117360   2.081   0.551  10.501 -0.4295  0.4430  0.6600
  156SAPE    C117361   2.055   0.437  10.415  0.3809  0.3176 -0.6939
  156SAPE    HA17362   2.112   0.350  10.454 -1.8467 -2.3837 -3.0591
  156SAPE    HB17363   1.952   0.398  10.428 -0.5946  3.0054  0.3451
  156SAPE    C217364   2.090   0.456  10.261 -0.4836  0.4037  0.1666
  156SAPE    HS17365   2.195   0.490  10.255 -0.0777 -0.8524 -0.0761
  156SAPE   O2117366   2.012   0.557  10.195 -1.0756 -0.1649 -0.6541
  156SAPE   C2117367   1.883   0.542  10.181 -0.9354 -0.3372 -0.5147
  156SAPE   O2217368   1.813   0.446  10.216 -0.3348  0.1827 -0.5008
  156SAPE   C2217369   1.832   0.665  10.107  0.1859  0.5747 -1.5593
  156SAPE   H2R17370   1.721   0.658  10.110  0.2435 -2.6302 -3.2268
  156SAPE   H2S17371   1.861   0.761  10.156  2.3148 -1.1080  0.7485
  156SAPE    C317372   2.081   0.325  10.184  0.0032 -0.2383  0.2039
  156SAPE    HX17373   1.986   0.275  10.211 -1.5284  3.2448  1.7496
  156SAPE    HY17374   2.162   0.255  10.214  0.2608  0.4637  1.1788
  156SAPE   O3117375   2.073   0.340  10.043 -0.1407 -0.0358 -0.1752
  156SAPE   C3117376   2.183   0.354   9.966 -0.2881 -0.1535 -0.5940
  156SAPE   O3217377   2.296   0.355  10.008 -0.4248 -0.8051 -0.2068
  156SAPE   C3217378   2.139   0.369   9.819  0.2118  0.3987  0.4595
  156SAPE   H2X17379   2.069   0.455   9.819  0.2009  0.4501 -1.5657
  156SAPE   H2Y17380   2.091   0.280   9.773  2.7596 -0.6810 -0.2906
  156SAPE   C2317381   1.873   0.673   9.958  0.4994 -1.0202 -0.3708
  156SAPE   H3R17382   1.789   0.725   9.907 -1.5601 -0.1984  3.4935
  156SAPE   H3S17383   1.869   0.572   9.911 -1.1637 -0.4183 -1.6405
  156SAPE   C2417384   2.005   0.744   9.927 -1.1138 -0.4784 -0.2083
  156SAPE   H4R17385   2.027   0.725   9.819 -1.9666 -0.0396 -0.4648
  156SAPE   H4S17386   2.079   0.682   9.981 -0.3623 -0.2316 -0.9263
  156SAPE   C2517387   2.000   0.891   9.958 -0.1124 -0.1145  0.5903
  156SAPE   H5R17388   2.032   0.922  10.059 -0.7041 -1.0904  1.0897
  156SAPE   C2617389   1.976   0.995   9.881  1.4092  0.5575  0.6102
  156SAPE   H6R17390   1.958   1.089   9.935 -1.8161 -0.6065  1.8270
  156SAPE   C2717391   1.945   0.979   9.738  0.3194 -0.4016  0.0116
  156SAPE   H7R17392   1.872   1.058   9.709  1.9624  1.2752  0.2138
  156SAPE   H7S17393   1.900   0.880   9.718 -0.7770 -0.0864  0.8324
  156SAPE   C2817394   2.070   0.997   9.656 -0.5589 -0.0553  0.1637
  156SAPE   H8R17395   2.162   0.992   9.716 -0.2101 -1.4450 -0.4729
  156SAPE   C2917396   2.071   1.015   9.522 -0.3973  0.2589  0.6573
  156SAPE   H9R17397   2.164   1.020   9.464 -2.2737 -0.2701 -2.6411
  156SAPE  C21017398   1.946   1.026   9.434 -0.2227  0.4115 -0.1337
  156SAPE  H10R17399   1.974   1.093   9.351  0.9040  0.5403  0.3314
  156SAPE  H10S17400   1.861   1.075   9.486  0.0308  1.3263 -0.5642
  156SAPE  C21117401   1.896   0.891   9.384  0.7042 -0.2113  0.1676
  156SAPE  H11R17402   1.878   0.824   9.469 -2.0212  0.0363 -0.1515
  156SAPE  C21217403   1.879   0.858   9.255  0.0198  0.6168 -0.4493
  156SAPE  H12R17404   1.843   0.757   9.228  1.1576 -0.0824  0.5150
  156SAPE  C21317405   1.911   0.936   9.133 -0.3197  0.8656  0.5326
  156SAPE  H13R17406   1.854   1.031   9.136  1.8399  2.3381 -1.4119
  156SAPE  H13S17407   1.866   0.890   9.042  1.8926  0.1903 -0.3120
  156SAPE  C21417408   2.057   0.968   9.114 -0.4055 -0.5414  0.1123
  156SAPE  H14R17409   2.116   0.925   9.197 -0.6253 -0.4237  0.3310
  156SAPE  C21517410   2.119   1.063   9.034  0.5842  0.1459 -0.1342
  156SAPE  H15R17411   2.228   1.071   9.023  0.4352  2.7773 -0.2964
  156SAPE  C21617412   2.038   1.148   8.931 -0.3772 -0.8157  0.2612
  156SAPE  H16R17413   1.928   1.138   8.939 -0.7564  0.7058 -1.9960
  156SAPE  H16S17414   2.075   1.129   8.828 -3.0512  1.0731 -1.1658
  156SAPE  C21717415   2.066   1.301   8.953 -0.1084  0.1547 -0.1316
  156SAPE  H17R17416   2.054   1.340   9.056 -0.2596 -0.9968  0.3018
  156SAPE  H17S17417   2.003   1.351   8.877 -0.2682 -0.3394 -0.3339
  156SAPE  C21817418   2.206   1.341   8.905 -0.4443 -0.4180  0.9055
  156SAPE  H18R17419   2.279   1.296   8.977  0.8814  0.4249  0.1220
  156SAPE  H18S17420   2.210   1.451   8.917 -0.7750 -0.2634 -0.2761
  156SAPE  C21917421   2.239   1.309   8.758  0.5035 -0.1102 -0.7554
  156SAPE  H19R17422   2.155   1.351   8.698  2.2168  1.5912 -2.0959
  156SAPE  H19S17423   2.250   1.200   8.736 -0.2420 -0.2258 -0.5930
  156SAPE  C22017424   2.358   1.387   8.700  0.4265 -0.4137  0.6785
  156SAPE  H20R17425   2.388   1.335   8.606 -1.2040  2.2017 -1.4308
  156SAPE  H20S17426   2.453   1.372   8.756  1.2852 -0.0819 -0.6496
  156SAPE  H20T17427   2.344   1.493   8.670  0.6724 -0.6155 -0.1740
  156SAPE   C3317428   2.263   0.403   9.722  0.4168  0.0304  0.0725
  156SAPE   H3X17429   2.329   0.314   9.711 -1.3394 -1.6660  2.3653
  156SAPE   H3Y17430   2.329   0.480   9.767  0.8925 -0.6193  0.5010
  156SAPE   C3417431   2.224   0.455   9.583 -0.7747 -0.4723  0.1812
  156SAPE   H4X17432   2.320   0.481   9.534 -0.7874 -0.0013  0.4007
  156SAPE   H4Y17433   2.168   0.551   9.588 -1.7552 -0.9380 -1.2815
  156SAPE   C3517434   2.144   0.358   9.495 -0.0582  0.0891  0.0162
  156SAPE   H5X17435   2.046   0.338   9.542 -0.4965  0.7488 -0.5886
  156SAPE   H5Y17436   2.193   0.259   9.482  2.7193  1.5137 -1.4549
  156SAPE   C3617437   2.102   0.416   9.358 -0.0804 -0.0433 -0.1123
  156SAPE   H6X17438   2.194   0.433   9.299  0.6453 -1.2122  0.6427
  156SAPE   H6Y17439   2.040   0.508   9.366 -0.0613  0.0806 -1.2572
  156SAPE   C3717440   2.018   0.315   9.272 -0.0805 -0.3492  0.3753
  156SAPE   H7X17441   1.997   0.373   9.180  0.4620 -0.9512 -0.1343
  156SAPE   H7Y17442   1.917   0.297   9.315 -0.3554  1.0240  0.3433
  156SAPE   C3817443   2.088   0.194   9.221 -0.7693 -0.3341 -0.2555
  156SAPE   H8X17444   2.092   0.125   9.308 -0.7682  1.8093  1.5365
  156SAPE   H8Y17445   2.195   0.221   9.205 -1.4591  1.3326 -2.6664
  156SAPE   C3917446   2.017   0.128   9.104 -0.1653  0.3046  0.0099
  156SAPE   H9X17447   1.907   0.134   9.123 -0.4446 -0.0727 -1.3593
  156SAPE   H9Y17448   2.040   0.020   9.100  1.2069  0.5627  0.3820
  156SAPE  C31017449   2.033   0.199   8.967  0.8672  0.3429 -0.5621
  156SAPE  H10X17450   2.138   0.174   8.939  1.3330 -0.6555  1.8359
  156SAPE  H10Y17451   2.016   0.308   8.976 -2.9333 -0.1736 -0.1294
  156SAPE  C31117452   1.939   0.145   8.852  0.4304 -0.0254 -0.0218
  156SAPE  H11X17453   1.835   0.157   8.889  0.4438 -2.5422  1.0841
  156SAPE  H11Y17454   1.949   0.037   8.828  1.2867  0.5286 -2.4349
  156SAPE  C31217455   1.944   0.225   8.718 -0.0474 -0.2040 -0.2992
  156SAPE  H12X17456   1.913   0.331   8.732  0.1115 -0.0465 -1.0836
  156SAPE  H12Y17457   1.864   0.185   8.652 -0.4184 -0.1880  0.1383
  156SAPE  C31317458   2.075   0.209   8.635  0.3424 -0.3091 -0.1287
  156SAPE  H13X17459   2.107   0.103   8.638 -0.1148 -0.4484 -0.2307
  156SAPE  H13Y17460   2.160   0.266   8.680  0.7055 -0.9354 -0.0015
  156SAPE  C31417461   2.059   0.261   8.490  0.3841 -0.9950  0.0290
  156SAPE  H14X17462   2.025   0.365   8.511  1.5408 -0.4295 -0.7398
  156SAPE  H14Y17463   1.975   0.219   8.430 -1.2312 -0.9885  2.1590
  156SAPE  C31517464   2.188   0.274   8.405  0.7454  0.2099 -1.3713
  156SAPE  H15X17465   2.216   0.167   8.411 -0.6133 -0.0949  2.1936
  156SAPE  H15Y17466   2.249   0.340   8.470  0.5211 -2.3339  1.6579
  156SAPE  C31617467   2.148   0.341   8.274  0.0341  0.3267  0.3110
  156SAPE  H16X17468   2.138   0.451   8.285 -0.9749  0.2050  0.7132
  156SAPE  H16Y17469   2.047   0.302   8.246 -0.7069  2.1696  0.2902
  156SAPE  C31717470   2.247   0.293   8.161  0.5530 -0.3557 -0.0814
  156SAPE  H17X17471   2.197   0.320   8.066 -0.0051 -1.7560 -0.2014
  156SAPE  H17Y17472   2.251   0.182   8.162 -0.7036 -0.4504  2.8857
  156SAPE  C31817473   2.393   0.339   8.167  0.2800 -0.1101 -0.3184
  156SAPE  H18X17474   2.426   0.329   8.272 -1.5838 -3.2112  0.1008
  156SAPE  H18Y17475   2.396   0.446   8.137  0.6927  0.8192  2.7007
  156SAPE  H18Z17476   2.465   0.287   8.100  0.2328 -1.5570  0.7072
  157SAPE     N17477   6.740   1.255  10.874  0.0391  0.0625 -0.0976
  157SAPE   HN117478   6.755   1.153  10.887 -0.0792  0.1136  0.4954
  157SAPE   HN217479   6.799   1.295  10.950 -0.0154 -0.6123  0.3042
  157SAPE   HN317480   6.641   1.281  10.896  0.8727  2.3956  1.2880
  157SAPE   C1217481   6.766   1.298  10.735 -0.0269 -0.3491  0.8137
  157SAPE  H12A17482   6.738   1.405  10.730  1.5701  0.1429  1.6584
  157SAPE  H12B17483   6.710   1.239  10.659  0.0624  1.0769 -0.4119
  157SAPE   C1117484   6.918   1.282  10.714 -0.1943 -0.0933  0.2077
  157SAPE  H11A17485   6.943   1.300  10.607  2.5852  1.2109  0.9713
  157SAPE  H11B17486   6.954   1.179  10.733  0.7426  0.4004  1.2949
  157SAPE     P17487   7.132   1.379  10.827  0.0063 -0.5590  0.3701
  157SAPE   O1317488   7.163   1.526  10.831  0.0485  0.2586 -0.8543
  157SAPE   O1417489   7.154   1.294  10.943 -0.2977 -0.3233  0.4636
  157SAPE   O1217490   6.984   1.377  10.799 -0.1056  0.0473 -0.2007
  157SAPE   O1117491   7.193   1.305  10.703  0.0219 -0.7950 -0.0360
  157SAPE    C117492   7.279   1.371  10.611 -0.5045  0.2989 -0.2958
  157SAPE    HA17493   7.346   1.446  10.658  0.8683 -0.6431 -0.6794
  157SAPE    HB17494   7.347   1.292  10.571 -0.1695  1.0056 -1.1799
  157SAPE    C217495   7.207   1.433  10.488  0.9355  0.0867  0.5491
  157SAPE    HS17496   7.102   1.458  10.514  0.8543  0.3518 -0.0216
  157SAPE   O2117497   7.208   1.327  10.385 -0.1166 -0.2872  0.4084
  157SAPE   C2117498   7.097   1.308  10.323 -0.4730 -0.3416 -0.2430
  157SAPE   O2217499   6.985   1.341  10.355  0.0369  0.3220 -0.3071
  157SAPE   C2217500   7.131   1.232  10.194  0.2866 -0.6605  0.3596
  157SAPE   H2R17501   7.187   1.308  10.136  1.1580 -0.6500  1.1982
  157SAPE   H2S17502   7.201   1.147  10.206  0.6167 -0.6421 -1.2290
  157SAPE    C317503   7.273   1.571  10.453  0.5481 -0.2090 -0.4311
  157SAPE    HX17504   7.379   1.560  10.483  0.1409 -0.9371  0.8166
  157SAPE    HY17505   7.234   1.635  10.536 -1.1579 -2.3384  0.5179
  157SAPE   O3117506   7.243   1.604  10.319  0.4867 -0.4338  0.3075
  157SAPE   C3117507   7.347   1.606  10.232  0.7433  0.2931 -0.2125
  157SAPE   O3217508   7.455   1.558  10.252 -0.4347 -0.2827  1.0167
  157SAPE   C3217509   7.302   1.663  10.104 -0.2880  0.0654  0.0656
  157SAPE   H2X17510   7.387   1.712  10.054 -2.0929  2.7017 -0.6211
  157SAPE   H2Y17511   7.222   1.741  10.111 -0.8568 -0.4846 -0.1553
  157SAPE   C2317512   6.996   1.197  10.114 -0.8167  0.2272  0.0722
  157SAPE   H3R17513   6.936   1.289  10.100  1.0077  1.2833 -1.2491
  157SAPE   H3S17514   6.946   1.123  10.181  0.6093 -0.0891  0.8193
  157SAPE   C2417515   7.025   1.132   9.979 -0.0304 -0.9690 -0.5587
  157SAPE   H4R17516   7.108   1.058   9.987  1.2304  0.2179 -2.0769
  157SAPE   H4S17517   7.071   1.201   9.905  0.6370 -1.2213 -0.3937
  157SAPE   C2517518   6.899   1.069   9.929 -0.4301  0.7789  0.4575
  157SAPE   H5R17519   6.849   0.993   9.991  0.8555  0.0722  0.6618
  157SAPE   C2617520   6.846   1.073   9.807  0.0452 -0.4274 -0.2627
  157SAPE   H6R17521   6.746   1.031   9.785  0.1284 -0.3405 -0.8209
  157SAPE   C2717522   6.895   1.154   9.690 -0.5690  0.3091 -0.1021
  157SAPE   H7R17523   6.973   1.226   9.721 -2.1686  1.4278  1.4623
  157SAPE   H7S17524   6.812   1.213   9.646  1.3583  2.1906 -1.4278
  157SAPE   C2817525   6.947   1.074   9.572 -0.2560  0.2080  1.3260
  157SAPE   H8R17526   7.057   1.063   9.569 -0.2615  0.3088  0.1840
  157SAPE   C2917527   6.877   1.020   9.470  0.7250  0.0394  0.2657
  157SAPE   H9R17528   6.928   0.948   9.406  0.4197 -0.4446  0.5639
  157SAPE  C21017529   6.726   1.020   9.465  0.1976  0.1126 -0.6745
  157SAPE  H10R17530   6.693   1.091   9.386 -0.4190 -0.3617 -0.8567
  157SAPE  H10S17531   6.683   1.055   9.561  2.3935 -1.4307  0.9688
  157SAPE  C21117532   6.668   0.882   9.430  0.5994 -0.9720 -0.0699
  157SAPE  H11R17533   6.637   0.813   9.510  2.0099 -0.0211  1.3583
  157SAPE  C21217534   6.645   0.847   9.309 -0.8269  0.3006 -0.5613
  157SAPE  H12R17535   6.600   0.747   9.301 -0.6397  0.2501 -0.9747
  157SAPE  C21317536   6.692   0.923   9.186  0.1879 -0.1765 -0.3205
  157SAPE  H13R17537   6.700   1.034   9.190  1.2871 -0.2211 -0.7292
  157SAPE  H13S17538   6.607   0.897   9.119 -1.8258 -2.3909  2.7969
  157SAPE  C21417539   6.825   0.880   9.129  0.3368  0.2315 -0.1229
  157SAPE  H14R17540   6.912   0.932   9.171  0.4663  0.5536 -0.7791
  157SAPE  C21517541   6.839   0.769   9.051 -0.5346  0.1209  0.0091
  157SAPE  H15R17542   6.938   0.742   9.011 -0.0054 -0.4888  1.6667
  157SAPE  C21617543   6.722   0.688   8.995  0.1811  0.6157 -0.4646
  157SAPE  H16R17544   6.632   0.754   9.000  0.4697  0.9800  0.0501
  157SAPE  H16S17545   6.702   0.598   9.058  0.9791  0.5105 -0.3614
  157SAPE  C21717546   6.741   0.634   8.852 -0.3270  0.2817 -0.6951
  157SAPE  H17R17547   6.826   0.564   8.836  0.6681  1.6737 -1.7964
  157SAPE  H17S17548   6.760   0.714   8.777 -0.1227  0.7812 -0.1158
  157SAPE  C21817549   6.623   0.556   8.804 -0.4934 -0.9812  0.0110
  157SAPE  H18R17550   6.536   0.624   8.813 -0.7158 -1.3443  0.6366
  157SAPE  H18S17551   6.602   0.475   8.877 -3.5566  0.0795  0.4272
  157SAPE  C21917552   6.638   0.485   8.666 -0.3521  0.3589  0.3091
  157SAPE  H19R17553   6.725   0.519   8.606  0.2527 -1.6998 -0.0664
  157SAPE  H19S17554   6.551   0.500   8.599 -1.3050 -1.1702  1.1337
  157SAPE  C22017555   6.665   0.341   8.690 -0.2842 -0.5159 -0.0713
  157SAPE  H20R17556   6.763   0.327   8.740  0.1208  1.5574 -0.1904
  157SAPE  H20S17557   6.665   0.293   8.589  0.4555  0.3341 -0.4914
  157SAPE  H20T17558   6.583   0.301   8.752 -0.1482  0.5916  0.8592
  157SAPE   C3317559   7.263   1.548  10.002  0.3712  0.3462  0.1158
  157SAPE   H3X17560   7.168   1.499  10.032  0.0808  0.7126 -0.1896
  157SAPE   H3Y17561   7.346   1.475   9.991  0.6448  0.4789  1.2492
  157SAPE   C3417562   7.240   1.603   9.859 -0.2984 -0.8363  0.2384
  157SAPE   H4X17563   7.329   1.654   9.816 -1.8133 -0.3839 -2.5217
  157SAPE   H4Y17564   7.156   1.675   9.870  0.4329  0.1379 -0.3767
  157SAPE   C3517565   7.204   1.496   9.754  0.8931 -0.1561  0.4348
  157SAPE   H5X17566   7.117   1.443   9.799  1.9881 -0.5972  2.0948
  157SAPE   H5Y17567   7.288   1.424   9.759  2.1117  1.2534  1.2184
  157SAPE   C3617568   7.159   1.559   9.619  0.1081  0.0842  0.0174
  157SAPE   H6X17569   7.242   1.625   9.585 -0.7966  1.8664  1.1477
  157SAPE   H6Y17570   7.066   1.613   9.646  0.9481  0.9124  1.3875
  157SAPE   C3717571   7.138   1.454   9.517 -0.3167  0.9898 -0.2873
  157SAPE   H7X17572   7.055   1.389   9.554  1.0043 -2.6963 -3.2131
  157SAPE   H7Y17573   7.231   1.395   9.503 -0.0178  0.7068  2.3375
  157SAPE   C3817574   7.090   1.513   9.385  0.4285 -0.1369  0.6972
  157SAPE   H8X17575   7.166   1.577   9.336  1.1932 -2.0134 -0.6927
  157SAPE   H8Y17576   7.004   1.581   9.399 -1.3743 -2.3762  1.1038
  157SAPE   C3917577   7.058   1.400   9.286 -0.6456 -0.0196 -0.0223
  157SAPE   H9X17578   6.982   1.337   9.335 -0.8201  2.0624  2.5676
  157SAPE   H9Y17579   7.141   1.331   9.258  0.1321  1.4002 -1.4049
  157SAPE  C31017580   6.998   1.462   9.162 -0.4929 -0.0678  0.1188
  157SAPE  H10X17581   7.058   1.541   9.112 -0.9343  0.3083  0.1680
  157SAPE  H10Y17582   6.909   1.519   9.198 -1.8186 -0.6273 -2.1076
  157SAPE  C31117583   6.949   1.352   9.068 -0.2120  0.3766 -0.7761
  157SAPE  H11X17584   6.882   1.290   9.131  1.2667  1.7556  2.3769
  157SAPE  H11Y17585   7.036   1.293   9.033 -0.5355 -0.9570  0.5645
  157SAPE  C31217586   6.873   1.418   8.956 -0.2897 -0.3066  0.9601
  157SAPE  H12X17587   6.953   1.476   8.904  1.1330 -2.4423  0.6521
  157SAPE  H12Y17588   6.792   1.477   9.004  0.0623  1.2278 -0.2328
  157SAPE  C31317589   6.796   1.321   8.860  0.0220  0.5835  0.0524
  157SAPE  H13X17590   6.751   1.373   8.773  1.5159  0.3655 -0.8827
  157SAPE  H13Y17591   6.718   1.265   8.917  0.5419  0.0026  0.2141
  157SAPE  C31417592   6.893   1.215   8.817  0.4693  0.3459 -0.1853
  157SAPE  H14X17593   6.953   1.159   8.892  2.4498 -0.2510 -2.0923
  157SAPE  H14Y17594   6.973   1.265   8.758  0.2458  1.2837  0.2846
  157SAPE  C31517595   6.831   1.098   8.734 -0.3204  0.5266 -0.1889
  157SAPE  H15X17596   6.802   1.128   8.631  1.3008  0.2420 -0.7693
  157SAPE  H15Y17597   6.738   1.068   8.786 -0.8992 -0.1909 -1.5847
  157SAPE  C31617598   6.927   0.975   8.728 -0.1130 -0.5362  0.3827
  157SAPE  H16X17599   6.880   0.896   8.666  0.8989 -0.5284 -0.4214
  157SAPE  H16Y17600   6.923   0.928   8.829 -0.0401 -1.4777 -0.0386
  157SAPE  C31717601   7.074   1.009   8.689  0.2737 -0.3269 -0.6978
  157SAPE  H17X17602   7.116   1.096   8.743 -2.1786  1.3763 -1.3476
  157SAPE  H17Y17603   7.059   1.051   8.587  2.1068  2.4172  0.0563
  157SAPE  C31817604   7.145   0.874   8.686  0.6754  0.2129 -0.0586
  157SAPE  H18X17605   7.145   0.820   8.783  0.5505 -3.2906 -1.8433
  157SAPE  H18Y17606   7.247   0.892   8.646  0.4997  0.7845 -0.2550
  157SAPE  H18Z17607   7.077   0.809   8.627 -0.3760  0.6276  0.6671
  158SAPE     N17608   1.879   2.030  10.661  0.4322  0.2661 -0.3132
  158SAPE   HN117609   1.893   2.005  10.561  4.0036 -2.4015  0.6456
  158SAPE   HN217610   1.779   2.060  10.670  1.2033  4.2008 -2.5103
  158SAPE   HN317611   1.930   2.118  10.682  1.3827 -0.5852  1.1889
  158SAPE   C1217612   1.920   1.915  10.738 -0.1931 -0.1796 -0.6892
  158SAPE  H12A17613   1.951   1.847  10.656  0.1557  0.1805 -0.8548
  158SAPE  H12B17614   1.833   1.877  10.797  0.0343 -0.4344 -0.5170
  158SAPE   C1117615   2.033   1.963  10.832  0.5277  0.4251  0.0275
  158SAPE  H11A17616   2.063   1.880  10.900 -2.2614 -0.7410 -0.0136
  158SAPE  H11B17617   1.985   2.039  10.897  0.6918 -0.6264  1.4279
  158SAPE     P17618   2.253   1.960  10.685 -0.3626  0.0024 -0.4386
  158SAPE   O1317619   2.342   1.926  10.799  0.6269  0.4736 -0.1007
  158SAPE   O1417620   2.210   1.848  10.600  0.1574  0.2471 -0.0766
  158SAPE   O1217621   2.125   2.035  10.747  0.5062  0.0672 -0.3655
  158SAPE   O1117622   2.312   2.077  10.600  0.0321  0.4965 -0.1559
  158SAPE    C117623   2.232   2.166  10.513 -0.6461  0.2620 -0.3584
  158SAPE    HA17624   2.150   2.228  10.556  1.5604  2.4878  0.8474
  158SAPE    HB17625   2.298   2.244  10.471 -0.2494  0.0818 -0.0748
  158SAPE    C217626   2.176   2.091  10.388  0.4046 -0.1771  0.0675
  158SAPE    HS17627   2.133   1.994  10.420 -1.3206 -0.4745 -2.7922
  158SAPE   O2117628   2.287   2.069  10.297 -0.3194 -0.0454  0.3582
  158SAPE   C2117629   2.267   1.974  10.202 -0.2236 -0.0577  0.4661
  158SAPE   O2217630   2.187   1.885  10.211 -0.9594  0.6668 -0.4203
  158SAPE   C2217631   2.370   1.992  10.090 -0.7696 -0.4043  0.3932
  158SAPE   H2R17632   2.409   2.096  10.087  1.5216 -1.1244  2.4768
  158SAPE   H2S17633   2.450   1.918  10.109 -0.8619 -0.7797 -0.6129
  158SAPE    C317634   2.063   2.176  10.322 -0.4979 -0.8159 -0.1855
  158SAPE    HX17635   2.103   2.262  10.263 -0.0549 -0.1704  1.0046
  158SAPE    HY17636   1.992   2.223  10.393  1.2634 -0.3814  1.3793
  158SAPE   O3117637   1.983   2.100  10.229 -0.3405  0.2819  0.8437
  158SAPE   C3117638   1.902   2.009  10.281 -0.2602 -0.0213  0.1493
  158SAPE   O3217639   1.897   1.983  10.401 -0.1029 -1.0552  0.1956
  158SAPE   C3217640   1.812   1.945  10.180  0.5581  0.7681  0.2645
  158SAPE   H2X17641   1.732   1.896  10.239  0.7326 -1.4403 -1.2338
  158SAPE   H2Y17642   1.866   1.863  10.130 -1.3965  1.2293 -2.8344
  158SAPE   C2317643   2.306   1.967   9.949 -0.0538 -0.4234  0.4535
  158SAPE   H3R17644   2.260   2.066   9.930  1.7027 -0.0337 -2.1948
  158SAPE   H3S17645   2.222   1.894   9.944 -0.8974  0.6118 -1.2900
  158SAPE   C2417646   2.403   1.931   9.832 -0.2346 -0.4909  0.3093
  158SAPE   H4R17647   2.341   1.889   9.750  1.2147 -2.8404  0.3357
  158SAPE   H4S17648   2.475   1.847   9.844 -0.0298 -0.1641  1.5155
  158SAPE   C2517649   2.485   2.048   9.785 -0.6940  0.1678  0.1478
  158SAPE   H5R17650   2.553   2.084   9.863 -0.1282 -0.1320 -0.1912
  158SAPE   C2617651   2.485   2.094   9.658  0.0150 -0.0735 -0.0939
  158SAPE   H6R17652   2.554   2.179   9.643  1.2606 -0.9426  0.4983
  158SAPE   C2717653   2.395   2.047   9.545 -0.1892  0.1416  0.0771
  158SAPE   H7R17654   2.428   1.953   9.496 -1.3874  0.5205 -1.5747
  158SAPE   H7S17655   2.399   2.126   9.467  0.1502 -1.5176 -1.6633
  158SAPE   C2817656   2.246   2.040   9.585 -0.0138  0.6976 -0.3403
  158SAPE   H8R17657   2.216   2.057   9.690 -1.4224  1.3742 -0.8310
  158SAPE   C2917658   2.147   2.002   9.505 -0.6270 -0.2125 -0.3915
  158SAPE   H9R17659   2.045   2.007   9.546 -0.0739 -1.0906  1.1461
  158SAPE  C21017660   2.160   1.975   9.356 -0.0201  0.6858  0.4197
  158SAPE  H10R17661   2.252   1.918   9.334  0.0156  1.3568 -1.3278
  158SAPE  H10S17662   2.178   2.076   9.314 -0.6071  0.8200  0.4863
  158SAPE  C21117663   2.053   1.898   9.287 -0.0701 -0.1897  0.0359
  158SAPE  H11R17664   1.956   1.907   9.340  0.3695  1.2743  0.6422
  158SAPE  C21217665   2.061   1.842   9.169 -0.0630  0.4286 -0.1871
  158SAPE  H12R17666   1.969   1.803   9.123 -0.3602 -0.7847  1.3500
  158SAPE  C21317667   2.184   1.832   9.083  0.0970 -0.0852  0.0056
  158SAPE  H13R17668   2.251   1.764   9.139  1.6054  0.8927 -0.5638
  158SAPE  H13S17669   2.231   1.931   9.064  2.6679 -1.3255 -0.5529
  158SAPE  C21417670   2.151   1.773   8.948  0.5932 -0.2653 -0.3595
  158SAPE  H14R17671   2.044   1.766   8.924  0.1205  2.9411  0.3216
  158SAPE  C21517672   2.234   1.737   8.851  0.3865  0.2966  0.4600
  158SAPE  H15R17673   2.204   1.688   8.757  0.0710  1.6136 -0.1560
  158SAPE  C21617674   2.383   1.766   8.857 -0.1283  0.2335  0.5138
  158SAPE  H16R17675   2.440   1.674   8.830  1.2569  1.5153 -1.1345
  158SAPE  H16S17676   2.418   1.799   8.958  2.9647 -2.1330  0.3641
  158SAPE  C21717677   2.444   1.871   8.765  0.1176 -0.4453  0.6425
  158SAPE  H17R17678   2.547   1.886   8.804  0.2583  0.1607  0.0589
  158SAPE  H17S17679   2.390   1.968   8.778  2.4817  0.8601  1.3105
  158SAPE  C21817680   2.456   1.829   8.615 -0.3397  0.4496  0.1763
  158SAPE  H18R17681   2.369   1.767   8.584  1.4351 -2.9080  1.3649
  158SAPE  H18S17682   2.538   1.755   8.620  0.5777  1.4519  0.4214
  158SAPE  C21917683   2.520   1.940   8.531 -0.9127  0.1006 -0.2515
  158SAPE  H19R17684   2.629   1.940   8.551 -0.7863 -2.5649 -0.5351
  158SAPE  H19S17685   2.481   2.041   8.557 -1.6474  0.1055 -1.3314
  158SAPE  C22017686   2.500   1.908   8.386  0.3296 -0.6370  0.3605
  158SAPE  H20R17687   2.389   1.913   8.377  0.2430 -2.7614 -0.1666
  158SAPE  H20S17688   2.525   1.806   8.350  0.3415 -0.3284 -0.5474
  158SAPE  H20T17689   2.547   1.979   8.315  1.9275 -1.1668  0.8600
  158SAPE   C3317690   1.758   2.035  10.066  0.0350  0.0532  0.4747
  158SAPE   H3X17691   1.739   2.138  10.105 -1.0012 -0.2770  0.8876
  158SAPE   H3Y17692   1.657   2.000  10.038  0.9040 -0.1052 -2.9477
  158SAPE   C3417693   1.839   2.025   9.941  0.3893  0.6846 -0.4690
  158SAPE   H4X17694   1.870   1.920   9.919  0.3418  0.4634  0.4980
  158SAPE   H4Y17695   1.937   2.077   9.949  0.7570 -0.1792  1.0539
  158SAPE   C3517696   1.744   2.075   9.824 -0.5864 -0.4036  0.0092
  158SAPE   H5X17697   1.716   2.181   9.844  0.9053  0.2528 -1.1608
  158SAPE   H5Y17698   1.656   2.008   9.825  0.0369 -1.3420 -2.2465
  158SAPE   C3617699   1.816   2.090   9.691 -0.2708 -0.0708  0.8369
  158SAPE   H6X17700   1.855   1.989   9.665  0.7789  0.0243  1.9699
  158SAPE   H6Y17701   1.902   2.159   9.699  2.3523 -3.0678  0.4294
  158SAPE   C3717702   1.727   2.130   9.579  0.3128  0.4331  0.0269
  158SAPE   H7X17703   1.681   2.224   9.615  1.4026  0.0431  2.6992
  158SAPE   H7Y17704   1.638   2.066   9.565  0.5134  0.3578 -0.9278
  158SAPE   C3817705   1.799   2.142   9.438 -0.3954 -0.6736  0.2645
  158SAPE   H8X17706   1.882   2.069   9.426  1.6708  1.3191  1.5070
  158SAPE   H8Y17707   1.863   2.232   9.434  2.0734 -2.3857 -1.6468
  158SAPE   C3917708   1.703   2.137   9.325  0.1363  0.2434  0.7646
  158SAPE   H9X17709   1.616   2.200   9.353  0.9909  0.9771  1.8117
  158SAPE   H9Y17710   1.665   2.035   9.303  3.3115 -0.5092 -2.2013
  158SAPE  C31017711   1.773   2.192   9.202 -0.8091  0.1083  0.4222
  158SAPE  H10X17712   1.868   2.135   9.189  1.2245  3.5714 -1.4101
  158SAPE  H10Y17713   1.788   2.300   9.218 -0.3315 -0.1463  1.7738
  158SAPE  C31117714   1.682   2.172   9.077  0.1416  0.3831 -0.0506
  158SAPE  H11X17715   1.731   2.251   9.016  0.6997  1.8931  2.2397
  158SAPE  H11Y17716   1.582   2.191   9.121  0.7078 -1.3490  2.0991
  158SAPE  C31217717   1.705   2.037   9.017 -0.6124 -0.1324 -0.2411
  158SAPE  H12X17718   1.661   1.967   9.091 -0.0178 -0.0041  0.2411
  158SAPE  H12Y17719   1.813   2.011   9.015  0.1586  2.7504 -0.7864
  158SAPE  C31317720   1.652   2.018   8.878  0.7081  0.1379  0.5035
  158SAPE  H13X17721   1.691   1.917   8.855  1.2563  0.7706 -1.5308
  158SAPE  H13Y17722   1.693   2.081   8.796  0.3448 -0.7098 -0.3380
  158SAPE  C31417723   1.498   2.009   8.869 -0.5789 -0.5696 -0.0130
  158SAPE  H14X17724   1.458   2.113   8.868  1.1195  0.1256 -0.2265
  158SAPE  H14Y17725   1.461   1.965   8.964 -0.9407 -0.4214 -0.0853
  158SAPE  C31517726   1.443   1.945   8.739 -0.2748  0.7977 -0.2074
  158SAPE  H15X17727   1.482   1.841   8.744 -0.5915  0.6482 -0.8187
  158SAPE  H15Y17728   1.484   2.002   8.653 -1.1307  3.3983  0.9792
  158SAPE  C31617729   1.295   1.942   8.736  0.1962  0.2126  0.1983
  158SAPE  H16X17730   1.260   2.025   8.801 -2.1845 -2.0979  2.0699
  158SAPE  H16Y17731   1.258   1.846   8.779  1.3668  0.1911  1.2199
  158SAPE  C31717732   1.253   1.955   8.587  0.2965 -0.0780  0.0240
  158SAPE  H17X17733   1.145   1.932   8.575  0.0905  0.7619  0.1911
  158SAPE  H17Y17734   1.298   1.868   8.536 -2.9677 -1.6630 -0.4437
  158SAPE  C31817735   1.277   2.093   8.526 -0.2201 -0.5891  0.4215
  158SAPE  H18X17736   1.384   2.123   8.532 -0.6910  0.8967  2.4922
  158SAPE  H18Y17737   1.214   2.169   8.576 -1.2741 -1.4852  0.4905
  158SAPE  H18Z17738   1.250   2.103   8.419 -0.9621 -0.8765  0.5758
  159SAPE     N17739   3.164   4.940   6.498 -0.1433  0.0820  0.4021
  159SAPE   HN117740   3.143   5.037   6.469 -1.4453 -0.0094  0.9994
  159SAPE   HN217741   3.263   4.952   6.530  0.0896 -1.8942  0.5300
  159SAPE   HN317742   3.165   4.877   6.415  2.0350  0.6464 -0.0650
  159SAPE   C1217743   3.068   4.901   6.611 -0.0232  0.2239 -0.8504
  159SAPE  H12A17744   2.973   4.895   6.554  0.3683  0.6820 -1.5628
  159SAPE  H12B17745   3.080   4.988   6.680 -1.0174 -0.3226  0.0447
  159SAPE   C1117746   3.109   4.771   6.683  0.1261 -0.7164  0.6945
  159SAPE  H11A17747   3.063   4.764   6.784 -1.3253  0.8075  0.2045
  159SAPE  H11B17748   3.218   4.780   6.698 -0.0455  0.4260  1.4165
  159SAPE     P17749   3.004   4.529   6.654  0.0203 -0.1640  0.0425
  159SAPE   O1317750   2.858   4.575   6.644 -0.4079  0.6896 -0.1799
  159SAPE   O1417751   3.039   4.413   6.571 -0.2078 -0.0361 -0.0567
  159SAPE   O1217752   3.090   4.647   6.604 -0.0369 -0.7048 -0.1270
  159SAPE   O1117753   3.049   4.493   6.798 -0.0047  0.1633  0.1837
  159SAPE    C117754   3.177   4.438   6.829 -0.0758 -0.4269 -0.4390
  159SAPE    HA17755   3.253   4.449   6.749  1.5527 -1.7382  0.8783
  159SAPE    HB17756   3.214   4.498   6.915 -1.2091  0.5886 -0.6296
  159SAPE    C217757   3.174   4.293   6.870  0.0872  0.1908 -0.2589
  159SAPE    HS17758   3.131   4.245   6.779  1.0205  1.2008 -1.2834
  159SAPE   O2117759   3.094   4.284   6.987 -0.0331  0.0516  0.3265
  159SAPE   C2117760   3.040   4.165   7.016  1.0236  0.7739 -0.0250
  159SAPE   O2217761   3.064   4.058   6.956  0.4472  0.0816  0.5991
  159SAPE   C2217762   2.944   4.179   7.128  0.7779 -0.2058 -0.2679
  159SAPE   H2R17763   2.995   4.194   7.226  2.0312 -1.4503 -0.6917
  159SAPE   H2S17764   2.882   4.269   7.110 -0.4665 -0.6536  1.4499
  159SAPE    C317765   3.320   4.231   6.892  0.7126 -0.4362  0.4489
  159SAPE    HX17766   3.360   4.253   6.790  0.4270  1.3008  0.6713
  159SAPE    HY17767   3.316   4.123   6.916  1.3540 -0.6043 -0.1527
  159SAPE   O3117768   3.404   4.308   6.986 -0.7801  0.2351  0.2030
  159SAPE   C3117769   3.392   4.277   7.117  0.2822 -0.0587  0.0507
  159SAPE   O3217770   3.314   4.199   7.167  0.5394 -0.0267  0.2036
  159SAPE   C3217771   3.507   4.338   7.199 -0.4814  0.4225 -0.3192
  159SAPE   H2X17772   3.538   4.436   7.156  0.5670 -0.2992 -1.2744
  159SAPE   H2Y17773   3.589   4.264   7.192 -1.8438 -1.1773 -0.1201
  159SAPE   C2317774   2.849   4.047   7.144  0.5753 -0.6537  0.0001
  159SAPE   H3R17775   2.913   3.957   7.148  0.6984 -0.5483  0.5251
  159SAPE   H3S17776   2.766   4.043   7.071 -0.7061 -0.8301  1.4074
  159SAPE   C2417777   2.780   4.044   7.284  0.9149 -0.4215 -0.3885
  159SAPE   H4R17778   2.857   4.023   7.362 -0.4828  0.5334  1.3045
  159SAPE   H4S17779   2.719   3.953   7.300  1.6812 -0.8930 -0.0593
  159SAPE   C2517780   2.704   4.170   7.311  0.8820  0.1404 -0.3527
  159SAPE   H5R17781   2.632   4.214   7.241 -0.2506  0.7924  1.1556
  159SAPE   C2617782   2.700   4.230   7.433 -0.2349  0.0115  0.1069
  159SAPE   H6R17783   2.640   4.320   7.452 -0.5055 -0.1472  0.0118
  159SAPE   C2717784   2.771   4.183   7.555  0.0578 -0.3685  0.6036
  159SAPE   H7R17785   2.796   4.267   7.623 -0.6276  0.8670 -0.6204
  159SAPE   H7S17786   2.872   4.143   7.530  1.2546  2.5678  0.3024
  159SAPE   C2817787   2.709   4.074   7.638  0.6547 -0.0764 -0.3654
  159SAPE   H8R17788   2.628   4.022   7.584  0.0607  2.4008 -2.0594
  159SAPE   C2917789   2.736   4.046   7.768 -0.3921  0.1429  0.0757
  159SAPE   H9R17790   2.688   3.966   7.826 -1.6163  1.5992  1.1681
  159SAPE  C21017791   2.843   4.111   7.855  0.6477 -0.0501  0.6137
  159SAPE  H10R17792   2.805   4.188   7.926  3.4392  1.4099  0.6711
  159SAPE  H10S17793   2.909   4.164   7.783  0.4999  1.3890  1.5011
  159SAPE  C21117794   2.920   4.006   7.928 -1.1088 -0.8569 -0.5643
  159SAPE  H11R17795   2.998   3.963   7.863 -0.3907 -0.6422  0.1372
  159SAPE  C21217796   2.898   3.972   8.055  0.0158  0.8953 -0.2560
  159SAPE  H12R17797   2.959   3.895   8.103 -1.0764  0.5245  0.5710
  159SAPE  C21317798   2.795   4.030   8.144 -0.0207  0.6314  0.4434
  159SAPE  H13R17799   2.766   3.948   8.213 -2.1888  1.5763  0.7144
  159SAPE  H13S17800   2.709   4.068   8.085 -0.2513 -0.8423 -0.2276
  159SAPE  C21417801   2.840   4.145   8.238 -0.4238 -0.3819  0.6411
  159SAPE  H14R17802   2.848   4.243   8.188 -1.3170  1.2402  3.4611
  159SAPE  C21517803   2.864   4.147   8.373  0.7376  0.8062  0.1282
  159SAPE  H15R17804   2.885   4.242   8.424  1.3248  1.0251 -0.5002
  159SAPE  C21617805   2.854   4.024   8.462  0.4718  0.0376 -0.1993
  159SAPE  H16R17806   2.867   3.929   8.405 -0.1023 -0.2031  0.0599
  159SAPE  H16S17807   2.754   4.008   8.508  0.6668 -0.2543  0.1286
  159SAPE  C21717808   2.955   4.032   8.574 -0.6889  0.8574  0.3903
  159SAPE  H17R17809   2.946   4.116   8.645 -1.5744  0.8526  0.2845
  159SAPE  H17S17810   3.054   4.027   8.523 -1.8205 -0.4765 -1.8689
  159SAPE  C21817811   2.962   3.907   8.667  0.1741  0.4423  0.1873
  159SAPE  H18R17812   2.986   3.821   8.601  0.5151  1.1580 -0.6452
  159SAPE  H18S17813   2.870   3.889   8.727 -0.8365  0.2319 -1.3801
  159SAPE  C21917814   3.080   3.923   8.772 -0.1421  0.2771  0.5667
  159SAPE  H19R17815   3.041   4.012   8.827  0.2914 -0.7199  2.5410
  159SAPE  H19S17816   3.172   3.954   8.718  0.2635 -2.3476 -0.3765
  159SAPE  C22017817   3.098   3.808   8.870 -0.5719 -0.1193  0.0560
  159SAPE  H20R17818   3.187   3.823   8.935 -0.0881 -2.3373 -0.0031
  159SAPE  H20S17819   3.113   3.713   8.815 -1.4229  0.8962 -2.0301
  159SAPE  H20T17820   3.008   3.804   8.936 -0.8736  0.9055 -0.2771
  159SAPE   C3317821   3.474   4.353   7.350  0.6786  0.8251 -0.5904
  159SAPE   H3X17822   3.374   4.402   7.361 -0.0548 -0.7062 -0.1029
  159SAPE   H3Y17823   3.552   4.414   7.399  1.3579 -0.2501 -0.3072
  159SAPE   C3417824   3.474   4.223   7.430 -0.2650  0.1486 -0.0732
  159SAPE   H4X17825   3.576   4.180   7.440  0.7639  1.9533 -1.9453
  159SAPE   H4Y17826   3.424   4.139   7.377  1.1531  0.2470 -1.6711
  159SAPE   C3517827   3.424   4.246   7.575 -0.3110 -0.1441 -0.2411
  159SAPE   H5X17828   3.343   4.322   7.573 -0.0791  0.1740  1.0976
  159SAPE   H5Y17829   3.512   4.293   7.624 -1.5122  1.7957  0.1872
  159SAPE   C3617830   3.379   4.116   7.640  0.1516 -0.0690 -0.7540
  159SAPE   H6X17831   3.450   4.031   7.634  1.9636  1.2707  0.7611
  159SAPE   H6Y17832   3.277   4.079   7.615  0.0975 -1.9995  1.8693
  159SAPE   C3717833   3.359   4.146   7.794  1.0271  0.0261 -0.2187
  159SAPE   H7X17834   3.294   4.234   7.809  2.1681  0.6754  1.1599
  159SAPE   H7Y17835   3.459   4.172   7.835  0.2872 -1.0963  2.5401
  159SAPE   C3817836   3.316   4.024   7.870 -0.5876 -0.0938  0.8974
  159SAPE   H8X17837   3.399   3.950   7.875  0.3360  0.6715 -1.6509
  159SAPE   H8Y17838   3.230   3.972   7.821 -1.4169  0.2761  1.9183
  159SAPE   C3917839   3.276   4.067   8.010 -0.0625 -0.5352 -0.3857
  159SAPE   H9X17840   3.176   4.115   8.013  0.7374  1.3326 -1.6707
  159SAPE   H9Y17841   3.349   4.143   8.046 -2.2748  2.6557 -2.1144
  159SAPE  C31017842   3.276   3.950   8.107  0.4888 -0.2147  0.7154
  159SAPE  H10X17843   3.379   3.908   8.112  1.4090  1.9654  1.6692
  159SAPE  H10Y17844   3.211   3.871   8.063  0.8452 -1.4321  2.3014
  159SAPE  C31117845   3.240   3.974   8.255 -0.4172  0.2979 -0.1313
  159SAPE  H11X17846   3.132   4.001   8.262 -0.9676 -2.0160  1.4432
  159SAPE  H11Y17847   3.303   4.061   8.285  3.0236 -2.0080 -0.2309
  159SAPE  C31217848   3.270   3.863   8.357 -0.0572 -0.5315  0.3803
  159SAPE  H12X17849   3.331   3.784   8.308 -0.0119  0.1294 -0.6524
  159SAPE  H12Y17850   3.179   3.803   8.379 -0.8160  0.0311 -1.1383
  159SAPE  C31317851   3.347   3.914   8.479 -0.3497  0.3910  0.1000
  159SAPE  H13X17852   3.282   3.988   8.532 -0.3135  1.1568 -0.8990
  159SAPE  H13Y17853   3.433   3.974   8.442  0.7999 -0.9833  0.4698
  159SAPE  C31417854   3.394   3.799   8.558  0.0482  0.3556  0.0936
  159SAPE  H14X17855   3.448   3.728   8.492  0.8288  1.0604 -0.0308
  159SAPE  H14Y17856   3.305   3.741   8.593 -0.4110  1.0652  0.1199
  159SAPE  C31517857   3.488   3.846   8.665 -0.9719 -0.8624 -0.1220
  159SAPE  H15X17858   3.441   3.929   8.722 -1.4154  0.0940 -1.8063
  159SAPE  H15Y17859   3.577   3.885   8.613 -1.3994 -0.3007 -0.4481
  159SAPE  C31617860   3.511   3.729   8.756 -0.4878  0.1469  0.3045
  159SAPE  H16X17861   3.532   3.641   8.691  1.4176  1.9080 -1.6438
  159SAPE  H16Y17862   3.422   3.699   8.815 -2.4773 -0.3967 -2.7394
  159SAPE  C31717863   3.643   3.728   8.837 -0.3866 -0.3225  0.2204
  159SAPE  H17X17864   3.644   3.635   8.898  1.4357  0.0525  0.8143
  159SAPE  H17Y17865   3.650   3.817   8.902 -0.7726  2.2792 -3.0298
  159SAPE  C31817866   3.761   3.716   8.744  0.3824  0.3684  0.1229
  159SAPE  H18X17867   3.859   3.707   8.796  0.2987 -0.0866  0.2142
  159SAPE  H18Y17868   3.769   3.796   8.668 -1.9512 -0.5770 -1.2138
  159SAPE  H18Z17869   3.757   3.622   8.686 -0.2345  1.0455 -0.9559
  160SAPE     N17870   1.386   5.605   6.635  0.4047  0.2535  0.9819
  160SAPE   HN117871   1.368   5.503   6.635 -1.6022  0.5506 -0.0715
  160SAPE   HN217872   1.298   5.639   6.591  0.7472  1.0169  0.8595
  160SAPE   HN317873   1.452   5.643   6.565  0.8480 -0.7516  0.8381
  160SAPE   C1217874   1.402   5.651   6.768  0.3398 -0.4576  0.6426
  160SAPE  H12A17875   1.463   5.574   6.821  0.5373 -1.3172 -0.8004
  160SAPE  H12B17876   1.298   5.661   6.806  1.0481  1.3308  2.3121
  160SAPE   C1117877   1.457   5.798   6.773  0.4132  0.1466 -0.0258
  160SAPE  H11A17878   1.560   5.799   6.732 -0.0567  2.0129 -1.2820
  160SAPE  H11B17879   1.462   5.837   6.877  0.2374 -1.4372  0.6059
  160SAPE     P17880   1.417   6.003   6.603 -0.0885 -0.1741  0.0633
  160SAPE   O1317881   1.562   5.992   6.596  0.3246  0.7476  0.3968
  160SAPE   O1417882   1.333   6.003   6.478 -0.1459  0.1115 -0.0552
  160SAPE   O1217883   1.372   5.874   6.690 -0.1492 -0.7042  0.4522
  160SAPE   O1117884   1.381   6.132   6.687  0.0911  0.4792  0.5566
  160SAPE    C117885   1.265   6.121   6.782 -0.0691  0.4417 -0.7337
  160SAPE    HA17886   1.205   6.214   6.768 -0.2244  0.5167  0.3555
  160SAPE    HB17887   1.199   6.035   6.758  1.4476 -0.6232 -1.2617
  160SAPE    C217888   1.317   6.128   6.931 -0.2134  0.4328  0.1902
  160SAPE    HS17889   1.392   6.047   6.940 -0.4655 -0.0111 -1.3429
  160SAPE   O2117890   1.202   6.111   7.019  0.1635  0.4548  0.7120
  160SAPE   C2117891   1.171   5.975   7.038  0.3536 -0.4474  0.6125
  160SAPE   O2217892   1.238   5.879   6.990 -0.1811 -1.1445  0.6853
  160SAPE   C2217893   1.050   5.975   7.126 -0.9274  0.1810  0.3788
  160SAPE   H2R17894   1.041   6.072   7.179  0.6806  1.2317 -1.1526
  160SAPE   H2S17895   0.965   5.943   7.061  0.7781 -2.3671 -0.7845
  160SAPE    C317896   1.388   6.260   6.976  0.1146  0.6367 -0.0150
  160SAPE    HX17897   1.304   6.332   6.968 -1.3244 -0.7342  1.8689
  160SAPE    HY17898   1.468   6.285   6.903 -0.0041  0.1241 -0.3224
  160SAPE   O3117899   1.445   6.241   7.111 -0.1275 -0.4113 -0.6580
  160SAPE   C3117900   1.556   6.169   7.126 -0.3853 -0.4056  0.0098
  160SAPE   O3217901   1.619   6.113   7.040 -0.8260 -0.0165 -0.5591
  160SAPE   C3217902   1.600   6.162   7.278  0.1515  0.4634  0.8116
  160SAPE   H2X17903   1.636   6.059   7.297 -1.9944 -0.8239 -1.3720
  160SAPE   H2Y17904   1.502   6.170   7.331 -1.2785 -1.0945 -1.4038
  160SAPE   C2317905   1.046   5.855   7.225 -0.7946 -0.4546 -0.1470
  160SAPE   H3R17906   1.140   5.836   7.280 -0.2067 -2.2499 -1.6831
  160SAPE   H3S17907   1.036   5.764   7.162  1.1468 -0.4291 -0.5478
  160SAPE   C2417908   0.931   5.874   7.325  0.1452  0.4221 -0.5811
  160SAPE   H4R17909   0.828   5.893   7.290  0.0200 -0.9938 -1.0266
  160SAPE   H4S17910   0.954   5.966   7.384 -0.9622 -1.3885  2.9248
  160SAPE   C2517911   0.925   5.740   7.397 -0.1961 -0.1469  0.1884
  160SAPE   H5R17912   0.927   5.651   7.332 -2.0460  0.8080 -1.2997
  160SAPE   C2617913   0.930   5.724   7.530 -0.1122 -0.7855  0.4212
  160SAPE   H6R17914   0.942   5.625   7.575  1.1016 -1.4073 -1.1975
  160SAPE   C2717915   0.934   5.840   7.626 -0.5859  0.1665  0.0421
  160SAPE   H7R17916   0.888   5.925   7.571 -1.2337  0.6768  1.3171
  160SAPE   H7S17917   1.039   5.867   7.649 -1.0742  1.5345  0.7979
  160SAPE   C2817918   0.847   5.810   7.742 -0.1321 -0.2006 -0.1444
  160SAPE   H8R17919   0.759   5.750   7.714 -0.8063  0.4668  0.5058
  160SAPE   C2917920   0.871   5.825   7.868  0.6687  0.4212 -0.4129
  160SAPE   H9R17921   0.794   5.795   7.941  1.2941 -1.8382 -0.5868
  160SAPE  C21017922   0.995   5.876   7.934 -0.4986  0.4363 -0.4715
  160SAPE  H10R17923   0.983   5.986   7.946 -0.0208  0.5806 -1.2749
  160SAPE  H10S17924   1.085   5.875   7.869 -0.9153  1.5456 -1.0940
  160SAPE  C21117925   1.025   5.798   8.058 -0.2213 -0.1239 -0.4206
  160SAPE  H11R17926   1.055   5.694   8.041 -3.2217 -1.5652  1.9601
  160SAPE  C21217927   1.026   5.846   8.187  0.1433  0.1895  0.5782
  160SAPE  H12R17928   1.016   5.777   8.272  0.2181  0.3406  0.7093
  160SAPE  C21317929   0.994   5.983   8.228  0.0509 -0.3776  0.2756
  160SAPE  H13R17930   1.045   6.065   8.174 -0.1386  0.9192  1.9546
  160SAPE  H13S17931   1.032   6.000   8.331 -0.1644  3.0867 -0.1078
  160SAPE  C21417932   0.850   6.030   8.208  0.6743  0.5639  0.3994
  160SAPE  H14R17933   0.823   6.056   8.104  2.6654  2.1978  0.2354
  160SAPE  C21517934   0.755   6.047   8.302  0.5985 -0.1751 -0.3366
  160SAPE  H15R17935   0.653   6.074   8.272  1.2119  0.0627 -2.3420
  160SAPE  C21617936   0.769   6.007   8.443 -0.5109  0.3808  0.0383
  160SAPE  H16R17937   0.870   5.976   8.478  0.0873 -0.9920 -2.6430
  160SAPE  H16S17938   0.707   5.916   8.460 -2.3084  1.5374 -0.0952
  160SAPE  C21717939   0.706   6.116   8.539 -0.4294  0.0336  0.6893
  160SAPE  H17R17940   0.704   6.076   8.643 -1.0175  1.6660  1.3396
  160SAPE  H17S17941   0.599   6.132   8.514  0.0533  1.9020 -0.3883
  160SAPE  C21817942   0.772   6.253   8.545 -0.1862  0.4991 -0.6589
  160SAPE  H18R17943   0.774   6.296   8.443 -0.3203 -1.3682 -1.4693
  160SAPE  H18S17944   0.876   6.243   8.582 -1.0167 -0.8735  1.4927
  160SAPE  C21917945   0.686   6.360   8.621  0.0107 -0.7495 -0.1616
  160SAPE  H19R17946   0.580   6.354   8.589 -0.6027 -2.7267  1.9557
  160SAPE  H19S17947   0.724   6.460   8.592 -0.8738 -0.5107 -0.5324
  160SAPE  C22017948   0.680   6.347   8.771  0.1285  0.2149  0.9658
  160SAPE  H20R17949   0.660   6.444   8.822  1.6711  1.0358  0.0885
  160SAPE  H20S17950   0.786   6.316   8.787  1.0876  0.9178 -3.0503
  160SAPE  H20T17951   0.609   6.266   8.801 -0.3947 -0.0124 -0.8051
  160SAPE   C3317952   1.694   6.281   7.302 -0.3782  0.7709  0.1158
  160SAPE   H3X17953   1.770   6.299   7.222 -0.0290  0.0960  0.2882
  160SAPE   H3Y17954   1.752   6.271   7.396  0.8042 -1.1603 -0.7483
  160SAPE   C3417955   1.615   6.414   7.317 -0.4324 -0.0545 -0.2333
  160SAPE   H4X17956   1.664   6.469   7.400 -2.5362  0.5500  0.6588
  160SAPE   H4Y17957   1.520   6.389   7.368  0.1812 -0.3767  0.7862
  160SAPE   C3517958   1.606   6.501   7.193  0.7273 -0.2080 -0.7610
  160SAPE   H5X17959   1.508   6.477   7.148  0.2692  0.9643 -0.3991
  160SAPE   H5Y17960   1.693   6.488   7.124 -0.4233  1.3622 -2.5896
  160SAPE   C3617961   1.590   6.647   7.227  0.3868  0.8127  0.1296
  160SAPE   H6X17962   1.639   6.716   7.155  0.8160  0.5654  0.1803
  160SAPE   H6Y17963   1.639   6.671   7.324  2.9300  0.6929 -1.0479
  160SAPE   C3717964   1.446   6.690   7.259  0.0240  0.3060  0.0581
  160SAPE   H7X17965   1.403   6.634   7.345  1.7162 -0.7592  0.2650
  160SAPE   H7Y17966   1.385   6.662   7.171  1.6884  0.6277 -1.2616
  160SAPE   C3817967   1.431   6.842   7.269  1.0274 -0.3719 -0.1514
  160SAPE   H8X17968   1.458   6.893   7.174 -1.8667  1.7651  0.0437
  160SAPE   H8Y17969   1.505   6.872   7.346 -1.0177 -0.6378  2.0182
  160SAPE   C3917970   1.287   6.891   7.300  0.2166  0.1137  0.3292
  160SAPE   H9X17971   1.256   6.851   7.399  1.6861  0.1186  0.8175
  160SAPE   H9Y17972   1.226   6.840   7.223  1.1907  0.1697 -0.5068
  160SAPE  C31017973   1.262   7.036   7.282  0.4071  0.0128  0.6044
  160SAPE  H10X17974   1.154   7.053   7.265  0.9381  3.6739  0.1425
  160SAPE  H10Y17975   1.312   7.072   7.189 -1.2835 -2.2810 -1.3193
  160SAPE  C31117976   1.314   7.127   7.391 -0.0775  0.3028 -0.1348
  160SAPE  H11X17977   1.277   7.101   7.493  1.1845  1.4823  0.6569
  160SAPE  H11Y17978   1.267   7.226   7.375  1.1084  0.8113 -0.5648
  160SAPE  C31217979   1.465   7.166   7.386  0.4195  0.6022 -0.8133
  160SAPE  H12X17980   1.509   7.178   7.284  0.8347  0.0598 -0.7006
  160SAPE  H12Y17981   1.529   7.086   7.428 -1.5225 -0.3130  0.5158
  160SAPE  C31317982   1.493   7.295   7.461  0.2654 -0.2885  0.0610
  160SAPE  H13X17983   1.444   7.375   7.402  0.7224 -0.8010 -1.0370
  160SAPE  H13Y17984   1.601   7.320   7.449 -0.2461  1.7430 -0.8394
  160SAPE  C31417985   1.446   7.309   7.603  0.1591  0.2038 -0.5604
  160SAPE  H14X17986   1.335   7.305   7.606  0.2244 -1.9860  1.4857
  160SAPE  H14Y17987   1.496   7.398   7.646  0.5718 -0.3878  0.2077
  160SAPE  C31517988   1.490   7.197   7.688  0.0614  0.4019 -0.2059
  160SAPE  H15X17989   1.598   7.182   7.667 -0.7606 -2.4883 -3.3789
  160SAPE  H15Y17990   1.448   7.097   7.664 -0.0517  0.3730  0.1093
  160SAPE  C31617991   1.472   7.226   7.840 -0.9160  0.2054 -0.1969
  160SAPE  H16X17992   1.540   7.307   7.874 -0.0499 -1.0429  1.1785
  160SAPE  H16Y17993   1.493   7.132   7.896  0.4265  0.0258 -0.9503
  160SAPE  C31717994   1.334   7.277   7.881 -0.0950 -0.2622 -0.2829
  160SAPE  H17X17995   1.243   7.231   7.839 -0.8377 -0.1992  1.2198
  160SAPE  H17Y17996   1.338   7.377   7.832  0.5064 -0.6042 -0.9548
  160SAPE  C31817997   1.310   7.293   8.028 -0.0344  0.1009  0.5970
  160SAPE  H18X17998   1.295   7.191   8.069 -0.8062 -1.0345 -2.2952
  160SAPE  H18Y17999   1.211   7.340   8.042 -0.3507  0.7415 -2.9348
  160SAPE  H18Z18000   1.395   7.331   8.089 -0.2497 -1.2829  1.8189
  161SAPE     N18001   4.181   3.697   6.345 -0.4733  0.0717 -0.0378
  161SAPE   HN118002   4.254   3.676   6.274  0.7146 -2.7704  1.8397
  161SAPE   HN218003   4.176   3.607   6.398  0.1966 -0.3267 -0.6255
  161SAPE   HN318004   4.086   3.698   6.303 -0.8271  1.2723  0.7358
  161SAPE   C1218005   4.204   3.821   6.418  0.5430 -0.1445  0.1604
  161SAPE  H12A18006   4.185   3.907   6.350 -2.1200  0.2519  1.2555
  161SAPE  H12B18007   4.312   3.825   6.445  0.6046 -3.3916  0.8541
  161SAPE   C1118008   4.098   3.827   6.528  0.2962  0.7645  0.0378
  161SAPE  H11A18009   4.117   3.912   6.598  0.6823  1.5434 -0.9746
  161SAPE  H11B18010   4.111   3.741   6.597 -0.6560 -0.4367 -1.2439
  161SAPE     P18011   3.880   3.929   6.434 -0.1340  0.1243  0.0680
  161SAPE   O1318012   3.956   4.006   6.336  0.1196 -0.9229  0.4154
  161SAPE   O1418013   3.744   3.888   6.400 -0.0788 -0.0988  0.4906
  161SAPE   O1218014   3.973   3.809   6.472 -0.5679  0.0542  0.4910
  161SAPE   O1118015   3.887   4.016   6.566  0.2694  0.4011 -0.1893
  161SAPE    C118016   3.841   3.952   6.689  0.3433 -0.3127  0.1762
  161SAPE    HA18017   3.757   3.882   6.667 -0.4457  0.2585  1.2883
  161SAPE    HB18018   3.924   3.904   6.745  0.8615 -0.6419 -0.8476
  161SAPE    C218019   3.770   4.060   6.762  0.3232 -0.1914 -0.6093
  161SAPE    HS18020   3.703   4.122   6.698  0.3971 -0.9851 -1.4706
  161SAPE   O2118021   3.866   4.139   6.831 -0.1616  0.4430 -0.4149
  161SAPE   C2118022   3.824   4.254   6.885 -0.2347  0.0709 -0.3768
  161SAPE   O2218023   3.711   4.299   6.884 -0.2618 -0.4166  0.1997
  161SAPE   C2218024   3.942   4.316   6.955  0.9428  0.0833 -0.4311
  161SAPE   H2R18025   4.009   4.233   6.986  0.5699 -0.1747 -0.3110
  161SAPE   H2S18026   3.984   4.379   6.873  0.9237  1.1085  0.3321
  161SAPE    C318027   3.660   3.997   6.871  0.4602  0.6238  0.9138
  161SAPE    HX18028   3.588   3.954   6.798  1.5409  0.8646 -0.3362
  161SAPE    HY18029   3.604   4.079   6.920  0.4026  1.1549 -0.0148
  161SAPE   O3118030   3.721   3.891   6.946  0.0418  0.2079 -0.3522
  161SAPE   C3118031   3.763   3.932   7.063 -0.3930  0.0850 -0.3688
  161SAPE   O3218032   3.760   4.050   7.102 -0.7654  0.4037  0.0112
  161SAPE   C3218033   3.801   3.810   7.148 -0.4673 -0.1390 -0.1504
  161SAPE   H2X18034   3.909   3.787   7.139 -0.6727 -0.4203 -2.6023
  161SAPE   H2Y18035   3.751   3.716   7.114  1.2177 -0.4255 -2.0864
  161SAPE   C2318036   3.915   4.403   7.081 -0.2522  0.1678  0.0408
  161SAPE   H3R18037   3.829   4.469   7.059 -0.6914 -0.4763 -0.1968
  161SAPE   H3S18038   4.003   4.470   7.093  0.7984 -1.1451 -0.0240
  161SAPE   C2418039   3.889   4.328   7.210  0.6284 -0.1186  0.4834
  161SAPE   H4R18040   3.796   4.270   7.190 -0.5621  1.7225  0.4356
  161SAPE   H4S18041   3.864   4.411   7.280 -1.0832 -1.2212  1.2410
  161SAPE   C2518042   4.002   4.243   7.258  0.4116 -0.1040 -0.7794
  161SAPE   H5R18043   4.055   4.181   7.183  1.1273 -2.4248  1.4800
  161SAPE   C2618044   4.042   4.225   7.387 -0.2886  0.6243 -0.6633
  161SAPE   H6R18045   4.122   4.156   7.417 -0.7980 -0.0745 -0.8660
  161SAPE   C2718046   3.981   4.294   7.509 -0.5291  0.4734 -0.3028
  161SAPE   H7R18047   3.951   4.396   7.475 -0.6437  0.3179 -0.6753
  161SAPE   H7S18048   4.063   4.303   7.583  0.6689  0.0715 -1.5403
  161SAPE   C2818049   3.868   4.212   7.566  0.2231 -0.0892  0.4219
  161SAPE   H8R18050   3.791   4.179   7.495  0.1238  2.5449 -0.8162
  161SAPE   C2918051   3.845   4.195   7.696  0.1710 -0.1568  0.3350
  161SAPE   H9R18052   3.759   4.134   7.729  1.6465 -0.4870  4.1440
  161SAPE  C21018053   3.925   4.248   7.812  0.8370 -0.2094  0.0169
  161SAPE  H10R18054   4.034   4.248   7.790  1.2982 -3.1431  1.7924
  161SAPE  H10S18055   3.923   4.176   7.897  3.3196  0.8223  1.0640
  161SAPE  C21118056   3.886   4.389   7.860  0.0908  0.2936 -0.3099
  161SAPE  H11R18057   3.893   4.466   7.782 -1.9713  0.9188  0.0478
  161SAPE  C21218058   3.828   4.430   7.972  0.3961  0.4088 -0.0106
  161SAPE  H12R18059   3.825   4.539   7.982  0.3028  0.3392  0.7794
  161SAPE  C21318060   3.787   4.344   8.093 -0.6538 -0.2802  0.6696
  161SAPE  H13R18061   3.821   4.400   8.182  0.5518 -0.0697  0.0960
  161SAPE  H13S18062   3.834   4.243   8.099 -1.0037 -0.5651 -0.9226
  161SAPE  C21418063   3.632   4.327   8.097 -0.2597  0.2523  0.3359
  161SAPE  H14R18064   3.601   4.263   8.013  2.2050 -1.6231  0.7349
  161SAPE  C21518065   3.544   4.365   8.189 -0.1442  0.1011 -0.7231
  161SAPE  H15R18066   3.438   4.341   8.169 -0.3313  1.6882 -1.7475
  161SAPE  C21618067   3.584   4.434   8.316 -0.2825  0.2507 -0.1223
  161SAPE  H16R18068   3.598   4.536   8.275 -1.4937  0.9298  1.0712
  161SAPE  H16S18069   3.684   4.406   8.353 -0.2462 -1.7025 -1.5396
  161SAPE  C21718070   3.469   4.440   8.424  0.0836  0.3453  0.0199
  161SAPE  H17R18071   3.371   4.455   8.374  0.4573  1.3314 -0.4380
  161SAPE  H17S18072   3.490   4.527   8.490  2.1910 -0.6907  0.7790
  161SAPE  C21818073   3.451   4.324   8.529 -0.2317 -0.0136  0.0607
  161SAPE  H18R18074   3.551   4.322   8.577  0.1003  0.1495 -0.6112
  161SAPE  H18S18075   3.429   4.235   8.466 -0.7730  1.3193 -1.7296
  161SAPE  C21918076   3.342   4.349   8.641  0.3319 -0.2812 -0.4759
  161SAPE  H19R18077   3.345   4.456   8.671 -2.1563  0.1005 -1.4132
  161SAPE  H19S18078   3.372   4.285   8.727  2.4701 -0.2245 -1.1041
  161SAPE  C22018079   3.196   4.298   8.620 -0.4325  0.0670  0.0371
  161SAPE  H20R18080   3.188   4.196   8.664 -0.1099  0.2984  0.6347
  161SAPE  H20S18081   3.176   4.292   8.510 -0.7082  0.6584  0.0508
  161SAPE  H20T18082   3.115   4.354   8.672 -2.6122 -3.1205  0.3605
  161SAPE   C3318083   3.759   3.830   7.295  0.2567  0.4095 -0.8525
  161SAPE   H3X18084   3.651   3.851   7.310 -0.1856 -1.4780 -1.1437
  161SAPE   H3Y18085   3.819   3.912   7.341  1.7659 -1.5470  0.8786
  161SAPE   C3418086   3.791   3.706   7.385 -0.3667 -0.3875  0.2656
  161SAPE   H4X18087   3.901   3.687   7.378  0.3442  3.5229 -2.2728
  161SAPE   H4Y18088   3.749   3.616   7.334 -0.9745 -0.6220  1.1580
  161SAPE   C3518089   3.777   3.742   7.536  0.1440 -0.2892 -0.1869
  161SAPE   H5X18090   3.832   3.835   7.558 -1.1015  0.0251  1.8715
  161SAPE   H5Y18091   3.830   3.656   7.581  1.0617  0.5120  0.2904
  161SAPE   C3618092   3.632   3.761   7.587  0.4611  0.7979  0.3825
  161SAPE   H6X18093   3.564   3.682   7.548  0.9579  0.0144  1.0803
  161SAPE   H6Y18094   3.596   3.851   7.533 -0.0920 -0.6771 -1.8230
  161SAPE   C3718095   3.617   3.753   7.735  0.0981  0.4044 -0.1018
  161SAPE   H7X18096   3.663   3.657   7.768  0.5746  0.7761  0.3196
  161SAPE   H7Y18097   3.509   3.755   7.760 -0.4751 -1.8146 -2.0047
  161SAPE   C3818098   3.688   3.867   7.808  0.2807 -0.7531 -0.2240
  161SAPE   H8X18099   3.642   3.959   7.767 -0.0253 -1.0939 -0.6509
  161SAPE   H8Y18100   3.795   3.890   7.787  0.4833  0.8058  2.0719
  161SAPE   C3918101   3.660   3.859   7.965  0.3805  0.6373  0.4808
  161SAPE   H9X18102   3.662   3.754   8.002 -0.9428  0.1636 -0.6809
  161SAPE   H9Y18103   3.558   3.897   7.989 -0.9065 -1.8480 -0.6672
  161SAPE  C31018104   3.761   3.945   8.045  0.2706 -0.2334 -0.1211
  161SAPE  H10X18105   3.753   4.056   8.033  0.3716 -0.0475  1.3177
  161SAPE  H10Y18106   3.865   3.925   8.011 -0.0432 -1.0495 -0.6260
  161SAPE  C31118107   3.748   3.909   8.195  0.5627 -0.7686  0.0884
  161SAPE  H11X18108   3.768   3.804   8.228  0.8575  0.0260  2.7442
  161SAPE  H11Y18109   3.647   3.919   8.239  1.3173  0.3924  1.6867
  161SAPE  C31218110   3.839   3.993   8.282  0.1837 -0.3842  0.0163
  161SAPE  H12X18111   3.823   4.102   8.264  1.2398 -0.4215 -1.3073
  161SAPE  H12Y18112   3.942   3.969   8.247  0.4112 -1.0918  1.1623
  161SAPE  C31318113   3.830   3.961   8.431 -0.1491 -0.6243 -1.0170
  161SAPE  H13X18114   3.816   3.852   8.451 -2.5452 -0.0712  0.7903
  161SAPE  H13Y18115   3.743   4.015   8.473 -0.9573 -0.5637 -2.6794
  161SAPE  C31418116   3.953   4.029   8.507  0.2276 -0.5991  0.4755
  161SAPE  H14X18117   3.970   4.133   8.470 -2.7454 -0.0235  0.5350
  161SAPE  H14Y18118   4.042   3.971   8.476  0.8494 -0.7618  2.4090
  161SAPE  C31518119   3.943   4.021   8.662  0.6368  0.2764 -0.4817
  161SAPE  H15X18120   3.986   3.923   8.694 -0.6646 -0.5409 -1.1499
  161SAPE  H15Y18121   3.834   4.020   8.684  0.6969 -2.0861 -0.0297
  161SAPE  C31618122   3.997   4.130   8.752  0.5298 -0.0979  0.1160
  161SAPE  H16X18123   3.932   4.220   8.742  0.1049 -0.4033  0.0858
  161SAPE  H16Y18124   4.097   4.151   8.710  1.3243 -1.3890  1.3001
  161SAPE  C31718125   4.000   4.097   8.905 -0.0415  0.1470 -0.0060
  161SAPE  H17X18126   4.053   4.001   8.916 -2.5519 -1.8151 -3.1923
  161SAPE  H17Y18127   3.902   4.078   8.953  0.9792  0.4161  2.3001
  161SAPE  C31818128   4.066   4.201   8.991  0.0023 -0.2708  0.0988
  161SAPE  H18X18129   4.027   4.304   8.981 -0.8248 -0.7784 -2.5987
  161SAPE  H18Y18130   4.176   4.192   8.976  0.0363 -1.9266  1.0249
  161SAPE  H18Z18131   4.044   4.176   9.097  0.5736  0.7824  0.4765
  162SAPE     N18132   2.474   5.973   5.930  0.2711  0.4599  0.6544
  162SAPE   HN118133   2.447   5.873   5.937  0.6419  0.3561  0.6172
  162SAPE   HN218134   2.505   5.995   5.834 -0.1617  0.7092  0.5677
  162SAPE   HN318135   2.550   5.993   5.998  0.9414  0.9966 -0.2371
  162SAPE   C1218136   2.359   6.064   5.962 -0.0216 -0.0455  0.2258
  162SAPE  H12A18137   2.267   6.032   5.909 -0.6884  0.3104  1.1402
  162SAPE  H12B18138   2.391   6.168   5.937  0.6317 -0.4146 -0.5497
  162SAPE   C1118139   2.346   6.059   6.117  0.0972 -0.2084  0.3457
  162SAPE  H11A18140   2.267   6.131   6.147 -0.2518 -1.0187  1.4054
  162SAPE  H11B18141   2.441   6.099   6.160  2.0697 -1.7734 -2.2331
  162SAPE     P18142   2.168   5.881   6.186 -0.2627 -0.2596  0.3227
  162SAPE   O1318143   2.085   5.958   6.088 -0.2045  0.5083 -0.3898
  162SAPE   O1418144   2.177   5.734   6.176  0.3667  0.1851  0.0140
  162SAPE   O1218145   2.317   5.931   6.167 -0.2729  0.1094 -0.3575
  162SAPE   O1118146   2.151   5.942   6.326  0.4230 -0.1927 -0.3304
  162SAPE    C118147   2.245   5.944   6.431  0.0950 -0.0244 -0.3564
  162SAPE    HA18148   2.271   5.845   6.474 -0.5145 -0.8685 -1.8632
  162SAPE    HB18149   2.341   5.986   6.394  1.2765 -0.4638  1.9649
  162SAPE    C218150   2.195   6.031   6.545  0.2259 -0.3898  0.5017
  162SAPE    HS18151   2.094   5.995   6.572  0.1064 -0.1296  0.4059
  162SAPE   O2118152   2.211   6.168   6.511 -0.3114  0.4848 -0.1168
  162SAPE   C2118153   2.105   6.227   6.466  0.3298 -1.4488  0.4037
  162SAPE   O2218154   1.987   6.182   6.471 -0.1481  0.4105 -0.3205
  162SAPE   C2218155   2.134   6.366   6.413 -0.4670 -0.5543  0.3176
  162SAPE   H2R18156   2.107   6.436   6.495  0.3108 -1.9093  1.7768
  162SAPE   H2S18157   2.244   6.377   6.413 -0.5500  0.4240  0.7026
  162SAPE    C318158   2.289   6.016   6.672 -0.3988 -0.5190 -0.4392
  162SAPE    HX18159   2.270   6.089   6.754  1.1363  0.6093 -1.0375
  162SAPE    HY18160   2.396   6.023   6.645  0.2214  0.0897  1.9738
  162SAPE   O3118161   2.268   5.888   6.732  0.3178 -0.7201 -0.5895
  162SAPE   C3118162   2.367   5.795   6.718  1.0924 -0.0275  0.2177
  162SAPE   O3218163   2.467   5.808   6.653 -0.2887 -0.1799  0.3994
  162SAPE   C3218164   2.343   5.685   6.821  0.2304 -0.0953  0.2585
  162SAPE   H2X18165   2.444   5.638   6.818  1.4382  2.3564 -0.3546
  162SAPE   H2Y18166   2.267   5.614   6.782  1.0143 -0.8904  0.1491
  162SAPE   C2318167   2.081   6.397   6.273 -0.5957  0.1202  0.6073
  162SAPE   H3R18168   1.971   6.402   6.289 -0.5394 -0.0467  1.0647
  162SAPE   H3S18169   2.105   6.313   6.204 -0.5671  0.8346 -0.2601
  162SAPE   C2418170   2.114   6.534   6.229 -0.7340 -0.5072  0.0533
  162SAPE   H4R18171   2.101   6.595   6.320 -1.3895  1.1192 -1.0828
  162SAPE   H4S18172   2.038   6.568   6.155  1.1356 -2.2092 -2.8902
  162SAPE   C2518173   2.259   6.545   6.171 -0.4085 -0.9782 -0.4441
  162SAPE   H5R18174   2.279   6.501   6.072  2.1135  0.8447 -0.8178
  162SAPE   C2618175   2.352   6.620   6.228  0.7797 -0.1629  1.0922
  162SAPE   H6R18176   2.454   6.611   6.188  0.8868  0.6892  1.1517
  162SAPE   C2718177   2.343   6.704   6.350  0.4604  0.8567 -0.3381
  162SAPE   H7R18178   2.338   6.631   6.434 -0.2647  0.2067 -0.9392
  162SAPE   H7S18179   2.247   6.757   6.365  0.3863  0.5533  0.2879
  162SAPE   C2818180   2.450   6.807   6.361  0.3071  0.4228 -0.7568
  162SAPE   H8R18181   2.477   6.856   6.266  2.0902 -1.8476 -1.5229
  162SAPE   C2918182   2.499   6.861   6.474 -0.2439  0.4822  0.3797
  162SAPE   H9R18183   2.552   6.954   6.450 -0.6518  0.4101 -0.8811
  162SAPE  C21018184   2.460   6.824   6.607  0.7009  0.7858 -0.4127
  162SAPE  H10R18185   2.452   6.715   6.629  2.9247  0.6815  0.0760
  162SAPE  H10S18186   2.363   6.873   6.632  0.9377  1.7068 -1.2606
  162SAPE  C21118187   2.562   6.892   6.690  0.1060 -0.2301 -0.3108
  162SAPE  H11R18188   2.629   6.965   6.642 -0.3548  0.5932  0.2706
  162SAPE  C21218189   2.569   6.872   6.827  0.0387 -0.4276  0.0711
  162SAPE  H12R18190   2.644   6.916   6.894 -1.2551  0.5204  0.9680
  162SAPE  C21318191   2.484   6.776   6.904  0.7997 -0.8183  0.1662
  162SAPE  H13R18192   2.543   6.684   6.924  0.3754 -1.4939 -1.4663
  162SAPE  H13S18193   2.398   6.742   6.843 -0.4385  1.1512  0.7133
  162SAPE  C21418194   2.432   6.841   7.030 -0.1779 -0.6414  0.2874
  162SAPE  H14R18195   2.406   6.948   7.022 -0.9191 -0.9224 -1.2416
  162SAPE  C21518196   2.436   6.785   7.152  1.0115  0.0179 -0.6336
  162SAPE  H15R18197   2.412   6.850   7.238  2.4358 -0.0306 -0.1820
  162SAPE  C21618198   2.476   6.643   7.181  0.2575  0.2683  0.2813
  162SAPE  H16R18199   2.464   6.564   7.103  3.9389  0.2169 -0.4059
  162SAPE  H16S18200   2.420   6.607   7.270 -1.9497 -0.9069 -1.4777
  162SAPE  C21718201   2.625   6.615   7.203  0.6571 -0.3210 -0.1506
  162SAPE  H17R18202   2.666   6.646   7.105 -3.1484  1.5628 -1.3232
  162SAPE  H17S18203   2.636   6.506   7.226  1.1393 -0.4282 -0.8656
  162SAPE  C21818204   2.696   6.696   7.311  0.6753 -0.1472 -0.1067
  162SAPE  H18R18205   2.700   6.804   7.284 -0.1260 -0.0770  0.0126
  162SAPE  H18S18206   2.802   6.666   7.321  1.4533  1.6811 -2.0062
  162SAPE  C21918207   2.625   6.703   7.452  0.2558 -0.2598 -0.0833
  162SAPE  H19R18208   2.523   6.744   7.436  1.2671  2.3580 -0.4331
  162SAPE  H19S18209   2.687   6.776   7.509  0.7543 -0.3345 -0.5215
  162SAPE  C22018210   2.629   6.572   7.529 -0.2514 -0.4171 -0.2711
  162SAPE  H20R18211   2.573   6.580   7.624 -1.4844 -3.2845 -0.6581
  162SAPE  H20S18212   2.732   6.544   7.558 -0.6582 -1.2983  0.3521
  162SAPE  H20T18213   2.582   6.493   7.467  1.7327 -0.0895 -2.3099
  162SAPE   C3318214   2.317   5.728   6.958  0.9225  0.0244  0.3651
  162SAPE   H3X18215   2.206   5.728   6.961  0.9216 -0.2161  0.3700
  162SAPE   H3Y18216   2.341   5.835   6.973  0.5311  0.2563 -0.5833
  162SAPE   C3418217   2.385   5.639   7.058 -0.3937  0.3712 -0.4422
  162SAPE   H4X18218   2.491   5.643   7.025 -0.6476 -0.1966 -1.3538
  162SAPE   H4Y18219   2.347   5.535   7.046 -0.1168  0.0406  1.1924
  162SAPE   C3518220   2.376   5.698   7.204 -0.1210 -0.5142 -0.0794
  162SAPE   H5X18221   2.278   5.750   7.209  0.5893  0.9861 -1.1143
  162SAPE   H5Y18222   2.444   5.783   7.221 -0.8191 -0.3486  2.1687
  162SAPE   C3618223   2.395   5.600   7.319  0.1308 -0.2679 -0.6211
  162SAPE   H6X18224   2.489   5.540   7.315  0.2186 -0.2999  1.0126
  162SAPE   H6Y18225   2.310   5.530   7.307  1.1562 -1.2912 -2.4168
  162SAPE   C3718226   2.381   5.676   7.445 -0.0672 -0.1972 -0.1201
  162SAPE   H7X18227   2.313   5.763   7.438  0.5514  0.4498  1.4085
  162SAPE   H7Y18228   2.482   5.721   7.453  0.4614 -0.9828 -1.9672
  162SAPE   C3818229   2.336   5.579   7.552  0.3104  0.6053 -0.8360
  162SAPE   H8X18230   2.403   5.491   7.548  1.1694  0.8680  3.2848
  162SAPE   H8Y18231   2.231   5.550   7.528  0.6001 -1.4455  0.2162
  162SAPE   C3918232   2.329   5.634   7.689  0.3446  0.6126 -0.0294
  162SAPE   H9X18233   2.269   5.727   7.689  0.8547  1.0391 -3.0971
  162SAPE   H9Y18234   2.436   5.648   7.716 -0.3820  0.1308  3.6174
  162SAPE  C31018235   2.269   5.546   7.794  0.0493 -0.0942 -0.3297
  162SAPE  H10X18236   2.319   5.446   7.791  0.7425  0.2611 -1.4401
  162SAPE  H10Y18237   2.165   5.518   7.765  0.0086 -0.0817 -0.1957
  162SAPE  C31118238   2.264   5.605   7.927  0.7215 -0.1951 -0.3092
  162SAPE  H11X18239   2.198   5.694   7.916  0.5266 -0.2375  0.4336
  162SAPE  H11Y18240   2.358   5.655   7.956  0.5185 -0.0447  0.1039
  162SAPE  C31218241   2.203   5.516   8.029  0.2064  0.2895 -0.6932
  162SAPE  H12X18242   2.255   5.425   8.064  0.8690  0.8903 -0.0675
  162SAPE  H12Y18243   2.099   5.485   8.008 -0.9310  3.6019 -0.5363
  162SAPE  C31318244   2.198   5.600   8.161  0.0872  0.7078 -0.3761
  162SAPE  H13X18245   2.159   5.703   8.145 -1.3141  0.2631  0.0780
  162SAPE  H13Y18246   2.301   5.612   8.200  0.9998 -1.3892 -1.9494
  162SAPE  C31418247   2.101   5.540   8.261  0.2583 -0.4029 -0.1646
  162SAPE  H14X18248   2.144   5.438   8.267  2.1746  0.2351 -1.7875
  162SAPE  H14Y18249   2.000   5.542   8.215  0.3848  0.9035 -0.4105
  162SAPE  C31518250   2.107   5.596   8.408 -0.1514  0.4374 -0.2859
  162SAPE  H15X18251   2.135   5.704   8.411 -2.3574  1.1252 -1.7289
  162SAPE  H15Y18252   2.181   5.539   8.468  0.4747  0.4780 -1.0004
  162SAPE  C31618253   1.965   5.593   8.472  0.2918  0.1420 -0.1188
  162SAPE  H16X18254   1.916   5.497   8.445  1.7234 -1.1345  1.6207
  162SAPE  H16Y18255   1.904   5.681   8.441  0.7981  0.5226 -0.0375
  162SAPE  C31718256   1.960   5.590   8.628 -0.1829 -0.5706  0.6194
  162SAPE  H17X18257   2.013   5.499   8.665  2.4874  0.7794  0.3538
  162SAPE  H17Y18258   1.853   5.585   8.658 -1.1218  1.0947 -2.1193
  162SAPE  C31818259   2.028   5.709   8.689 -0.7009  0.3548  0.8154
  162SAPE  H18X18260   2.139   5.705   8.690 -0.5807  2.3262  2.7352
  162SAPE  H18Y18261   1.999   5.727   8.795  1.8915  2.5463  1.2641
  162SAPE  H18Z18262   2.005   5.804   8.636 -0.1804  0.5796  0.9804
  163SAPE     N18263   0.563   5.787   6.476 -0.3427 -0.6205  0.1340
  163SAPE   HN118264   0.612   5.857   6.417 -0.3600 -1.5838 -1.0461
  163SAPE   HN218265   0.573   5.816   6.576 -0.1878  2.6872 -0.7260
  163SAPE   HN318266   0.610   5.696   6.460  0.6257  0.1794 -1.9025
  163SAPE   C1218267   0.420   5.777   6.430 -0.4270 -0.0840  0.2026
  163SAPE  H12A18268   0.430   5.754   6.322  0.6223 -0.9071  0.4595
  163SAPE  H12B18269   0.373   5.877   6.447  0.8099  1.1135 -2.7243
  163SAPE   C1118270   0.348   5.667   6.507  1.0637  0.0431  0.0555
  163SAPE  H11A18271   0.247   5.669   6.461  0.8881 -1.2714  0.3374
  163SAPE  H11B18272   0.332   5.703   6.612  1.4902 -0.3377  0.2518
  163SAPE     P18273   0.343   5.409   6.525 -0.0047 -0.3127  0.0358
  163SAPE   O1318274   0.200   5.422   6.528  0.9926 -0.2526 -0.5836
  163SAPE   O1418275   0.392   5.311   6.418  0.3074  0.1584 -0.3679
  163SAPE   O1218276   0.416   5.547   6.499 -0.2463 -0.0556 -0.1605
  163SAPE   O1118277   0.401   5.365   6.663  0.6851  0.1843  0.2478
  163SAPE    C118278   0.526   5.395   6.722 -0.1999 -0.0124  0.1998
  163SAPE    HA18279   0.590   5.455   6.654  0.3981  0.3361  1.0519
  163SAPE    HB18280   0.514   5.448   6.819 -0.9069 -0.0242  0.1226
  163SAPE    C218281   0.603   5.270   6.755 -0.0080 -0.4159  0.4939
  163SAPE    HS18282   0.619   5.226   6.655 -0.1659  0.9334 -0.1552
  163SAPE   O2118283   0.523   5.192   6.845 -0.1793  0.2604  0.4233
  163SAPE   C2118284   0.542   5.064   6.829 -0.0267 -0.3984  0.5921
  163SAPE   O2218285   0.602   5.009   6.742 -0.3375 -0.1590  0.2260
  163SAPE   C2218286   0.470   4.992   6.943  0.1388 -0.3786 -0.2658
  163SAPE   H2R18287   0.364   5.016   6.921  0.3014 -0.6328 -1.4248
  163SAPE   H2S18288   0.485   4.883   6.927 -1.2955 -1.1232  2.7129
  163SAPE    C318289   0.741   5.293   6.799 -0.3916 -0.0606 -0.3695
  163SAPE    HX18290   0.786   5.363   6.724 -1.8584  0.0085 -1.2209
  163SAPE    HY18291   0.805   5.203   6.786  0.4595  0.0662  2.3846
  163SAPE   O3118292   0.747   5.361   6.922  0.2677 -0.5867 -0.1004
  163SAPE   C3118293   0.805   5.305   7.026  0.8294  0.0759 -0.4496
  163SAPE   O3218294   0.876   5.209   7.016 -0.2446  0.2673 -0.3567
  163SAPE   C3218295   0.749   5.369   7.155 -1.2099 -0.3394  0.5715
  163SAPE   H2X18296   0.642   5.350   7.137 -0.6750 -1.3712 -1.8067
  163SAPE   H2Y18297   0.772   5.478   7.144  0.3638 -0.4908  1.9168
  163SAPE   C2318298   0.513   5.027   7.084  0.0991 -0.8101 -0.2569
  163SAPE   H3R18299   0.426   4.989   7.142  1.1157 -0.8997  1.2775
  163SAPE   H3S18300   0.503   5.137   7.098  0.0847 -0.5671 -1.9390
  163SAPE   C2418301   0.647   4.968   7.141  0.4403 -0.0751  0.0894
  163SAPE   H4R18302   0.671   5.007   7.242  0.3070  0.0579  0.0684
  163SAPE   H4S18303   0.735   4.998   7.080 -0.6177  1.7463 -0.6093
  163SAPE   C2518304   0.621   4.814   7.148  0.0537 -0.1894 -0.4069
  163SAPE   H5R18305   0.598   4.761   7.054  3.4800 -2.0381 -0.3876
  163SAPE   C2618306   0.635   4.745   7.267 -0.6061 -0.1884  0.1001
  163SAPE   H6R18307   0.613   4.637   7.273 -0.1629 -0.2374  1.0792
  163SAPE   C2718308   0.673   4.803   7.406 -0.2794  0.2628 -0.8891
  163SAPE   H7R18309   0.774   4.849   7.411 -0.3265  0.2982 -0.1786
  163SAPE   H7S18310   0.677   4.718   7.478 -2.9296 -0.5950 -1.6277
  163SAPE   C2818311   0.591   4.906   7.476 -0.0934 -0.7535 -0.3552
  163SAPE   H8R18312   0.494   4.933   7.431  0.5389  0.6871 -0.8777
  163SAPE   C2918313   0.599   4.955   7.596  0.2392 -0.8674  0.0534
  163SAPE   H9R18314   0.518   5.026   7.620  0.8580 -0.0796 -0.1268
  163SAPE  C21018315   0.699   4.934   7.703  0.6198 -0.1458  0.4915
  163SAPE  H10R18316   0.721   5.030   7.753 -1.5127 -0.2986  1.8392
  163SAPE  H10S18317   0.797   4.908   7.655  1.2238  3.0796 -0.2099
  163SAPE  C21118318   0.672   4.831   7.810 -0.3164 -0.4127 -0.0693
  163SAPE  H11R18319   0.608   4.754   7.766  1.1003 -0.7652 -1.6031
  163SAPE  C21218320   0.745   4.808   7.923  0.0973 -0.0115 -0.6697
  163SAPE  H12R18321   0.714   4.728   7.991  0.4154  0.0829 -0.4157
  163SAPE  C21318322   0.866   4.884   7.966  0.1070 -0.3596 -0.6236
  163SAPE  H13R18323   0.918   4.919   7.874  0.4808  0.4289 -0.1178
  163SAPE  H13S18324   0.932   4.818   8.027  0.5572  1.6442  1.1667
  163SAPE  C21418325   0.823   5.011   8.038 -0.9812 -0.1928 -0.1785
  163SAPE  H14R18326   0.735   5.060   7.996 -0.2923  0.1501 -1.2807
  163SAPE  C21518327   0.875   5.060   8.150  0.7465 -0.1385  1.1943
  163SAPE  H15R18328   0.834   5.157   8.181 -1.1695 -0.9391  1.2893
  163SAPE  C21618329   0.995   5.001   8.222  0.3809  0.2082  0.0251
  163SAPE  H16R18330   1.071   4.981   8.143  0.5156  3.4036 -0.7731
  163SAPE  H16S18331   0.963   4.907   8.273 -0.4673  1.3590  1.7125
  163SAPE  C21718332   1.055   5.086   8.334  0.0998 -0.7813 -0.6190
  163SAPE  H17R18333   0.973   5.088   8.409  1.7391  1.3794  1.2453
  163SAPE  H17S18334   1.064   5.189   8.294 -1.6418 -1.1017 -1.9748
  163SAPE  C21818335   1.187   5.028   8.386  0.4962 -0.2379 -0.1357
  163SAPE  H18R18336   1.257   5.052   8.304 -0.5788 -1.4514 -1.4553
  163SAPE  H18S18337   1.189   4.917   8.392  1.1230 -0.1679  2.3091
  163SAPE  C21918338   1.225   5.105   8.515 -0.0993 -0.1554  0.0464
  163SAPE  H19R18339   1.316   5.057   8.555 -0.5601 -0.2953  0.9659
  163SAPE  H19S18340   1.149   5.094   8.595 -1.2825  1.3544 -0.8115
  163SAPE  C22018341   1.246   5.257   8.487  0.5013 -0.1920  0.2559
  163SAPE  H20R18342   1.283   5.298   8.584  0.3634 -2.1145  1.1650
  163SAPE  H20S18343   1.146   5.299   8.466 -0.5249 -2.3743  0.5057
  163SAPE  H20T18344   1.320   5.296   8.414  0.6585 -2.5824 -0.9436
  163SAPE   C3318345   0.809   5.303   7.282  0.0251  0.3614  0.1294
  163SAPE   H3X18346   0.918   5.318   7.291  0.0311 -0.6687  2.4229
  163SAPE   H3Y18347   0.810   5.192   7.281  0.9591  0.3502  0.8954
  163SAPE   C3418348   0.751   5.368   7.407  0.1393 -0.5179  0.3939
  163SAPE   H4X18349   0.642   5.356   7.389  0.9046 -2.1621 -4.2250
  163SAPE   H4Y18350   0.772   5.477   7.403 -2.7231  0.1348  0.4623
  163SAPE   C3518351   0.801   5.317   7.541  0.1409  0.0384  0.4631
  163SAPE   H5X18352   0.907   5.339   7.566  0.5478 -0.5978 -0.6412
  163SAPE   H5Y18353   0.779   5.208   7.540  2.1177 -0.3886 -0.7132
  163SAPE   C3618354   0.710   5.370   7.662 -0.3900  0.9925 -0.0674
  163SAPE   H6X18355   0.614   5.316   7.676  0.6252 -0.8503  0.0686
  163SAPE   H6Y18356   0.686   5.475   7.633 -0.4701  1.8061  2.6450
  163SAPE   C3718357   0.783   5.373   7.789 -0.7964 -0.2686 -0.2680
  163SAPE   H7X18358   0.878   5.429   7.774 -1.1066  0.6011  0.8251
  163SAPE   H7Y18359   0.812   5.271   7.820 -0.4404 -0.4547 -1.2011
  163SAPE   C3818360   0.716   5.458   7.901  0.1221 -0.0883 -0.1438
  163SAPE   H8X18361   0.616   5.417   7.929  0.7379 -0.6335  1.3450
  163SAPE   H8Y18362   0.701   5.561   7.862 -0.1216  0.3156  0.9870
  163SAPE   C3918363   0.805   5.460   8.024  0.6699 -0.6522  0.0934
  163SAPE   H9X18364   0.903   5.496   7.985  0.3136 -0.4324 -0.6237
  163SAPE   H9Y18365   0.832   5.359   8.061  1.5058 -0.5378 -0.1807
  163SAPE  C31018366   0.759   5.548   8.139  0.3571 -0.1871  0.9543
  163SAPE  H10X18367   0.656   5.520   8.170  0.4649 -1.8342 -0.0441
  163SAPE  H10Y18368   0.779   5.652   8.106  1.2924 -1.1094 -1.6544
  163SAPE  C31118369   0.843   5.526   8.269  0.2841 -0.5580 -0.0513
  163SAPE  H11X18370   0.946   5.566   8.256  0.6098 -0.3332  2.5760
  163SAPE  H11Y18371   0.853   5.420   8.300  0.3066 -1.1834 -2.0922
  163SAPE  C31218372   0.785   5.607   8.383 -0.5673  0.4076  0.4855
  163SAPE  H12X18373   0.687   5.563   8.415 -0.3560 -0.2262  0.2867
  163SAPE  H12Y18374   0.768   5.710   8.347  1.8533  0.3589 -0.9590
  163SAPE  C31318375   0.874   5.608   8.511  0.6444 -0.1374  0.3587
  163SAPE  H13X18376   0.823   5.668   8.589 -0.0905 -0.7421  0.3480
  163SAPE  H13Y18377   0.975   5.653   8.497  1.5558 -1.9567  0.8302
  163SAPE  C31418378   0.887   5.473   8.569 -0.4156  0.1741 -0.4403
  163SAPE  H14X18379   0.945   5.410   8.498 -1.7262 -2.1292  0.4257
  163SAPE  H14Y18380   0.792   5.420   8.590 -0.1030  0.3156  1.5926
  163SAPE  C31518381   0.981   5.479   8.691 -0.1703  0.0422  0.2150
  163SAPE  H15X18382   0.947   5.570   8.745  2.0574  0.7498  0.5357
  163SAPE  H15Y18383   1.081   5.509   8.653 -0.7272  3.0469  0.9343
  163SAPE  C31618384   0.988   5.362   8.784  0.0428  0.1013 -0.7198
  163SAPE  H16X18385   1.037   5.270   8.746  1.0359  0.9629 -1.5843
  163SAPE  H16Y18386   0.885   5.333   8.814  0.7140  0.7406  2.5287
  163SAPE  C31718387   1.069   5.409   8.907  0.0115  0.5249 -0.0718
  163SAPE  H17X18388   1.026   5.503   8.947 -2.0934  0.8269 -2.7825
  163SAPE  H17Y18389   1.174   5.430   8.876 -0.0742 -0.9282 -1.4726
  163SAPE  C31818390   1.067   5.300   9.016  0.5314  0.2949  0.4805
  163SAPE  H18X18391   0.965   5.271   9.050  0.7472 -2.6328 -1.0633
  163SAPE  H18Y18392   1.131   5.318   9.105  2.0130 -1.2157 -0.2384
  163SAPE  H18Z18393   1.089   5.202   8.969 -0.6065  0.1159  0.2735
  164SAPE     N18394   6.252   1.216   5.976  0.0716  0.1920  0.0902
  164SAPE   HN118395   6.315   1.138   5.947  1.7707  0.7965  1.8580
  164SAPE   HN218396   6.306   1.296   6.016  0.3345 -0.4152  0.9814
  164SAPE   HN318397   6.197   1.181   6.057 -0.1028  1.9225  0.7820
  164SAPE   C1218398   6.171   1.263   5.862  0.0182 -0.9828 -0.4887
  164SAPE  H12A18399   6.228   1.255   5.767  0.2832  0.1903 -0.4373
  164SAPE  H12B18400   6.170   1.373   5.876 -0.1805 -0.9337 -0.8689
  164SAPE   C1118401   6.024   1.213   5.868  0.5403 -0.3446 -0.4882
  164SAPE  H11A18402   6.012   1.104   5.850 -0.3754 -0.3711  0.1995
  164SAPE  H11B18403   5.985   1.256   5.774  0.2559 -0.9975 -0.6722
  164SAPE     P18404   5.857   1.368   5.996  0.1107 -0.3477 -0.2254
  164SAPE   O1318405   5.937   1.494   6.015  0.2484 -0.1089 -0.4880
  164SAPE   O1418406   5.757   1.356   5.891  0.3965  0.5285 -0.1909
  164SAPE   O1218407   5.957   1.256   5.986 -0.6116 -0.0101 -0.5787
  164SAPE   O1118408   5.794   1.332   6.137 -0.4543 -0.0684 -0.3409
  164SAPE    C118409   5.863   1.295   6.256 -0.2060 -0.3515 -0.0251
  164SAPE    HA18410   5.955   1.240   6.227 -0.3082 -0.1352 -0.7698
  164SAPE    HB18411   5.896   1.384   6.315 -1.3729  0.5421 -0.6824
  164SAPE    C218412   5.776   1.215   6.357  0.4314  0.1133  0.0105
  164SAPE    HS18413   5.718   1.155   6.284 -0.8510  1.1899  0.1055
  164SAPE   O2118414   5.690   1.296   6.438  0.1678  0.0398 -0.8452
  164SAPE   C2118415   5.584   1.225   6.483  0.2027 -0.2995 -0.2343
  164SAPE   O2218416   5.557   1.111   6.451 -0.0999 -0.0867  0.3865
  164SAPE   C2218417   5.503   1.293   6.589 -0.0784 -0.2270 -0.0779
  164SAPE   H2R18418   5.548   1.394   6.597  0.4882 -0.4621 -0.2556
  164SAPE   H2S18419   5.396   1.289   6.558 -0.7225 -1.2060  2.1164
  164SAPE    C318420   5.848   1.112   6.449  0.2440 -0.2370 -0.1010
  164SAPE    HX18421   5.941   1.087   6.394 -0.2076 -0.5735 -0.7157
  164SAPE    HY18422   5.788   1.019   6.456  2.2208 -1.4944  1.4221
  164SAPE   O3118423   5.881   1.159   6.585  0.0178  0.2704  0.6620
  164SAPE   C3118424   6.004   1.220   6.592 -0.2001  0.1080 -0.6517
  164SAPE   O3218425   6.077   1.249   6.507  0.9762 -0.3429  0.1695
  164SAPE   C3218426   6.036   1.262   6.734 -0.9669 -0.0342 -0.3263
  164SAPE   H2X18427   5.998   1.183   6.803  1.3753 -2.6179 -1.7697
  164SAPE   H2Y18428   5.979   1.355   6.755 -0.6448  0.1522 -0.2654
  164SAPE   C2318429   5.522   1.241   6.731 -0.7247  0.8128 -0.4729
  164SAPE   H3R18430   5.624   1.231   6.773 -0.5620 -0.7596 -1.2103
  164SAPE   H3S18431   5.472   1.142   6.727 -0.2008  0.5275 -0.1061
  164SAPE   C2418432   5.439   1.329   6.834  0.0298 -0.3087  0.2702
  164SAPE   H4R18433   5.333   1.301   6.822 -0.6363  1.1764  2.2292
  164SAPE   H4S18434   5.448   1.438   6.810 -1.0649 -0.1615  0.4812
  164SAPE   C2518435   5.475   1.294   6.974  0.7149 -0.0938 -0.0922
  164SAPE   H5R18436   5.449   1.191   7.002 -2.7164  0.5682 -0.3950
  164SAPE   C2618437   5.531   1.375   7.061 -0.3430  0.9375 -0.4614
  164SAPE   H6R18438   5.553   1.317   7.152 -0.7921 -1.0626 -1.5618
  164SAPE   C2718439   5.582   1.512   7.066 -0.2316  0.0977 -0.6695
  164SAPE   H7R18440   5.627   1.545   7.162  1.9884  2.8233 -2.4955
  164SAPE   H7S18441   5.489   1.571   7.053 -2.2108 -2.5295  0.5476
  164SAPE   C2818442   5.687   1.543   6.961 -0.6217  0.1966 -0.0022
  164SAPE   H8R18443   5.656   1.537   6.856 -2.0411  0.5434  0.3798
  164SAPE   C2918444   5.818   1.568   6.978 -0.2838  0.0692 -0.5638
  164SAPE   H9R18445   5.879   1.587   6.889  3.2440 -0.9813  1.4043
  164SAPE  C21018446   5.888   1.588   7.108  0.3307  0.2462  0.0144
  164SAPE  H10R18447   5.816   1.630   7.182  0.1388 -0.2507  0.1152
  164SAPE  H10S18448   5.977   1.654   7.092  0.2951  0.1968 -0.3861
  164SAPE  C21118449   5.941   1.460   7.172  0.6353 -0.4674  0.2650
  164SAPE  H11R18450   5.954   1.372   7.107 -0.4759 -1.2864  1.1067
  164SAPE  C21218451   5.950   1.447   7.308  0.4473 -0.1184 -1.1925
  164SAPE  H12R18452   5.992   1.355   7.352 -2.1322 -0.9928 -0.3880
  164SAPE  C21318453   5.912   1.556   7.415 -0.3833  0.0140 -0.2048
  164SAPE  H13R18454   5.836   1.624   7.372 -2.2059 -1.8457 -0.0980
  164SAPE  H13S18455   5.994   1.622   7.450  0.0025 -0.6258  0.1314
  164SAPE  C21418456   5.849   1.481   7.539 -0.7589  0.1799  0.8493
  164SAPE  H14R18457   5.749   1.436   7.527 -0.2629 -0.3045 -2.3673
  164SAPE  C21518458   5.899   1.478   7.662  0.1399 -0.2286  0.1195
  164SAPE  H15R18459   5.845   1.431   7.745  1.1909  1.0257  1.5732
  164SAPE  C21618460   6.032   1.533   7.711  0.1638  0.3477  0.5812
  164SAPE  H16R18461   6.073   1.612   7.645  3.3993 -1.6289 -0.0032
  164SAPE  H16S18462   6.107   1.451   7.708 -0.0745  0.1099  0.9758
  164SAPE  C21718463   6.035   1.573   7.862 -0.2442 -0.3241  0.2643
  164SAPE  H17R18464   5.974   1.505   7.925 -1.0083 -0.8167 -0.9833
  164SAPE  H17S18465   6.006   1.679   7.872  1.7617  0.5270 -1.9330
  164SAPE  C21818466   6.172   1.558   7.926 -0.1311  0.4431  0.6208
  164SAPE  H18R18467   6.230   1.627   7.860  1.0400  1.7447  2.9057
  164SAPE  H18S18468   6.197   1.453   7.899  0.5607  1.2456 -2.2659
  164SAPE  C21918469   6.171   1.599   8.071  0.4383  0.2043  0.3707
  164SAPE  H19R18470   6.096   1.538   8.124  0.7470 -1.0541 -0.5960
  164SAPE  H19S18471   6.137   1.705   8.072 -1.9776 -0.4644 -1.6853
  164SAPE  C22018472   6.304   1.597   8.139  0.0778  0.0822 -0.1324
  164SAPE  H20R18473   6.293   1.641   8.240  1.8806 -0.5125  0.3440
  164SAPE  H20S18474   6.373   1.647   8.068  0.5376  1.3555  1.1668
  164SAPE  H20T18475   6.343   1.494   8.150  0.2295  0.1385 -0.1512
  164SAPE   C3318476   6.189   1.280   6.763  0.1365  0.4888  0.4447
  164SAPE   H3X18477   6.246   1.345   6.694 -0.7502  1.5525  0.6643
  164SAPE   H3Y18478   6.245   1.188   6.740  1.1227  0.9981  0.7703
  164SAPE   C3418479   6.198   1.325   6.909  0.3626 -0.6272  0.7879
  164SAPE   H4X18480   6.128   1.409   6.925  0.3324 -0.4455 -0.2222
  164SAPE   H4Y18481   6.299   1.371   6.918  1.0406 -1.9331  0.2117
  164SAPE   C3518482   6.183   1.212   7.005  0.5383  0.3904  0.1391
  164SAPE   H5X18483   6.241   1.124   6.969 -2.7740 -0.6931 -3.1930
  164SAPE   H5Y18484   6.075   1.186   7.003  0.4278  0.8735 -0.7998
  164SAPE   C3618485   6.227   1.253   7.148  0.0283  0.1228  0.4829
  164SAPE   H6X18486   6.150   1.325   7.184 -2.4309 -2.4128  0.6043
  164SAPE   H6Y18487   6.318   1.316   7.148  0.8859 -1.0916  0.8427
  164SAPE   C3718488   6.233   1.142   7.248  0.4502 -0.1367 -0.0606
  164SAPE   H7X18489   6.327   1.087   7.228 -0.7873 -1.8513 -1.5417
  164SAPE   H7Y18490   6.151   1.068   7.234  1.2023 -0.4978 -3.2582
  164SAPE   C3818491   6.239   1.191   7.393  0.7527  0.3960  0.1552
  164SAPE   H8X18492   6.148   1.249   7.419 -0.6071 -1.3309 -0.5666
  164SAPE   H8Y18493   6.332   1.252   7.395  2.5699 -2.1951 -0.2623
  164SAPE   C3918494   6.242   1.074   7.496  0.1670 -0.2521 -0.5556
  164SAPE   H9X18495   6.346   1.035   7.502  0.9828  1.9934  1.3499
  164SAPE   H9Y18496   6.165   1.000   7.468 -0.5181 -0.4253  1.5919
  164SAPE  C31018497   6.205   1.125   7.638 -0.3871  0.0558  0.8817
  164SAPE  H10X18498   6.102   1.095   7.665 -0.6099  1.0594  1.1748
  164SAPE  H10Y18499   6.195   1.235   7.643 -2.6150 -0.1305  1.5612
  164SAPE  C31118500   6.314   1.088   7.745  0.2413 -1.2964 -0.2752
  164SAPE  H11X18501   6.404   1.142   7.708 -0.9522  1.4377  0.5443
  164SAPE  H11Y18502   6.330   0.978   7.742 -1.2099 -1.6434  2.1631
  164SAPE  C31218503   6.271   1.133   7.884 -0.3027 -0.2267  1.1056
  164SAPE  H12X18504   6.165   1.102   7.879 -0.4925  0.6282 -1.7677
  164SAPE  H12Y18505   6.289   1.242   7.886  0.0455 -0.2683  0.4713
  164SAPE  C31318506   6.346   1.053   7.993  0.3968 -0.2070 -0.6679
  164SAPE  H13X18507   6.456   1.064   7.990  0.4385 -0.5796 -0.5750
  164SAPE  H13Y18508   6.325   0.945   7.976  2.8694 -0.6220 -1.4818
  164SAPE  C31418509   6.311   1.079   8.143 -0.0940  0.5733  0.2919
  164SAPE  H14X18510   6.352   0.996   8.204  0.0413  0.5577  0.1791
  164SAPE  H14Y18511   6.202   1.081   8.165 -0.2374 -0.5576 -0.2409
  164SAPE  C31518512   6.375   1.219   8.177 -0.0059  0.1307 -0.0589
  164SAPE  H15X18513   6.325   1.300   8.119 -1.7863 -0.5982  0.3954
  164SAPE  H15Y18514   6.484   1.221   8.154  0.4926  1.3190  2.1372
  164SAPE  C31618515   6.373   1.249   8.330  0.0055  0.1613 -0.4292
  164SAPE  H16X18516   6.458   1.317   8.353 -0.1451  0.1345  0.2022
  164SAPE  H16Y18517   6.390   1.157   8.390  1.3775  0.3840 -0.4394
  164SAPE  C31718518   6.236   1.302   8.387 -0.5152 -0.0995 -0.1715
  164SAPE  H17X18519   6.184   1.215   8.434  0.0682  0.2335  1.1486
  164SAPE  H17Y18520   6.180   1.363   8.313 -1.3989 -0.1408  0.4355
  164SAPE  C31818521   6.258   1.394   8.510  0.0482  0.2123 -0.0768
  164SAPE  H18X18522   6.329   1.473   8.480  1.3162 -0.2565  1.5355
  164SAPE  H18Y18523   6.314   1.333   8.584  0.6403  1.9213  0.9366
  164SAPE  H18Z18524   6.163   1.434   8.552 -0.7885 -2.4319  0.8070
  165SAPE     N18525   4.492   5.005   6.155  0.6362  0.0815 -1.0298
  165SAPE   HN118526   4.410   4.972   6.210 -0.0635  1.4430 -1.2135
  165SAPE   HN218527   4.491   4.952   6.066  1.0205  0.2307 -1.1273
  165SAPE   HN318528   4.575   4.975   6.211  0.6448  1.7319 -0.0998
  165SAPE   C1218529   4.489   5.156   6.148  0.6230 -0.0199  0.6844
  165SAPE  H12A18530   4.561   5.189   6.070 -1.3853  2.1295 -0.3915
  165SAPE  H12B18531   4.519   5.189   6.250  3.3094  0.1875 -0.0892
  165SAPE   C1118532   4.343   5.199   6.125 -0.3103  0.6393  1.3843
  165SAPE  H11A18533   4.295   5.141   6.043  1.4531  0.5331  0.3931
  165SAPE  H11B18534   4.347   5.305   6.092  2.3497 -0.6591 -3.3698
  165SAPE     P18535   4.222   5.294   6.327 -0.2493  0.1848  0.5497
  165SAPE   O1318536   4.338   5.384   6.329 -0.0993  0.7947 -0.0882
  165SAPE   O1418537   4.102   5.357   6.276 -0.3494  0.0547  0.8845
  165SAPE   O1218538   4.265   5.167   6.242 -0.4622 -0.6651  0.7704
  165SAPE   O1118539   4.185   5.257   6.472 -0.0151  0.0808  0.3367
  165SAPE    C118540   4.195   5.127   6.530 -0.3568 -0.4176 -0.3440
  165SAPE    HA18541   4.091   5.097   6.553 -0.3188  1.0217  2.0112
  165SAPE    HB18542   4.233   5.050   6.460 -1.2478 -0.0282 -1.2941
  165SAPE    C218543   4.296   5.135   6.648 -0.6764 -0.4794 -0.1663
  165SAPE    HS18544   4.341   5.034   6.659  4.3813  1.7249  3.4505
  165SAPE   O2118545   4.220   5.164   6.768  0.5660 -0.0523  0.6338
  165SAPE   C2118546   4.143   5.066   6.810  0.0955 -0.4468  0.1022
  165SAPE   O2218547   4.157   4.947   6.775 -0.5524 -0.5845  0.5593
  165SAPE   C2218548   4.064   5.123   6.920  0.0573  0.2795 -0.0759
  165SAPE   H2R18549   4.117   5.209   6.965  1.0021 -0.8579  1.0703
  165SAPE   H2S18550   3.977   5.168   6.868  1.2809  1.9085 -0.7989
  165SAPE    C318551   4.410   5.231   6.626 -0.6292 -0.2595  0.9221
  165SAPE    HX18552   4.369   5.331   6.600  2.8433  0.1036 -4.7722
  165SAPE    HY18553   4.465   5.204   6.534  1.2909  2.0825  1.2908
  165SAPE   O3118554   4.500   5.234   6.744 -0.3360 -0.1771  0.0399
  165SAPE   C3118555   4.570   5.122   6.763  0.4146  0.3038 -0.4266
  165SAPE   O3218556   4.592   5.041   6.680 -0.6848  0.2302 -0.6458
  165SAPE   C3218557   4.642   5.130   6.898  0.4365 -0.1642 -0.0058
  165SAPE   H2X18558   4.594   5.217   6.947 -0.9874 -0.9556  0.0326
  165SAPE   H2Y18559   4.752   5.143   6.887  0.5258  0.5537  1.4763
  165SAPE   C2318560   4.033   5.014   7.029 -0.1832  0.0898  0.2850
  165SAPE   H3R18561   4.043   4.910   6.991  2.1324 -1.2918  4.1083
  165SAPE   H3S18562   3.928   5.031   7.061 -0.8481 -0.8758 -1.2580
  165SAPE   C2418563   4.127   5.023   7.156 -0.2212  0.8896 -0.0930
  165SAPE   H4R18564   4.230   5.032   7.117 -0.0887  0.4481  0.1524
  165SAPE   H4S18565   4.116   4.928   7.214  2.9462  1.6452  1.9820
  165SAPE   C2518566   4.098   5.135   7.254  0.6273  0.8653  0.1387
  165SAPE   H5R18567   4.099   5.231   7.202  2.4207  1.4854  1.2398
  165SAPE   C2618568   4.089   5.141   7.388  0.3671 -0.6802  0.4132
  165SAPE   H6R18569   4.059   5.238   7.429  1.5409 -0.2064  0.1636
  165SAPE   C2718570   4.100   5.025   7.485  0.8564  0.1151  0.3228
  165SAPE   H7R18571   4.189   5.061   7.541 -0.0498  0.3213  1.6781
  165SAPE   H7S18572   4.118   4.929   7.433 -0.6992 -0.6291  1.1157
  165SAPE   C2818573   3.984   5.020   7.576 -0.2192  0.4222 -0.6653
  165SAPE   H8R18574   3.884   5.038   7.535 -0.3025 -0.4417 -0.8560
  165SAPE   C2918575   3.977   4.984   7.710 -0.4504 -0.4051  0.3478
  165SAPE   H9R18576   3.877   4.978   7.754  0.0965 -0.2432  1.6677
  165SAPE  C21018577   4.088   4.941   7.800 -0.3061 -0.7981  0.2434
  165SAPE  H10R18578   4.193   4.950   7.765 -0.1131 -0.9664  0.7621
  165SAPE  H10S18579   4.086   4.833   7.826  0.7898 -0.1952  3.3126
  165SAPE  C21118580   4.100   5.027   7.929 -0.1520  0.3491 -0.1326
  165SAPE  H11R18581   4.132   5.130   7.909  0.5746  0.2173  0.3573
  165SAPE  C21218582   4.057   5.001   8.053 -0.8225  0.4329 -0.0994
  165SAPE  H12R18583   4.071   5.082   8.126  1.7920  0.2545 -0.2976
  165SAPE  C21318584   3.985   4.872   8.098 -0.9170 -0.1692 -0.2710
  165SAPE  H13R18585   3.949   4.812   8.011 -1.2534 -2.1261  1.1396
  165SAPE  H13S18586   3.900   4.905   8.162  0.1193  1.4272  0.3357
  165SAPE  C21418587   4.084   4.779   8.172  0.4982 -0.6417 -0.1240
  165SAPE  H14R18588   4.187   4.791   8.133 -0.2282 -0.9696 -2.2912
  165SAPE  C21518589   4.064   4.695   8.276  0.4038 -0.1563 -0.1452
  165SAPE  H15R18590   4.142   4.621   8.301 -0.0705 -1.0270 -1.1873
  165SAPE  C21618591   3.932   4.666   8.341  0.0897 -0.1202  0.3642
  165SAPE  H16R18592   3.937   4.566   8.389  0.6031 -0.6962 -0.8427
  165SAPE  H16S18593   3.851   4.645   8.267  2.4847  0.7363 -2.6890
  165SAPE  C21718594   3.893   4.767   8.451  0.6418  0.3002  0.0147
  165SAPE  H17R18595   3.815   4.725   8.519  0.9147  1.1328  0.8661
  165SAPE  H17S18596   3.867   4.862   8.399 -1.1977  0.5699  1.2979
  165SAPE  C21818597   4.003   4.807   8.546  0.3736  0.5182 -0.1992
  165SAPE  H18R18598   4.071   4.719   8.545  0.2155  0.2771  2.5380
  165SAPE  H18S18599   3.964   4.821   8.649 -0.7122 -0.8229 -0.4110
  165SAPE  C21918600   4.075   4.938   8.511 -0.7306  0.2203  0.3297
  165SAPE  H19R18601   4.127   4.924   8.414 -0.1365 -1.9356  0.9208
  165SAPE  H19S18602   4.159   4.956   8.581 -0.4776  0.7677 -0.1108
  165SAPE  C22018603   3.989   5.065   8.524 -0.6128  0.0789 -0.5349
  165SAPE  H20R18604   3.940   5.079   8.623 -0.0529 -0.7796 -0.1331
  165SAPE  H20S18605   3.911   5.060   8.445 -1.4319  1.2165  0.1542
  165SAPE  H20T18606   4.052   5.154   8.505  1.3808 -1.2716 -0.4718
  165SAPE   C3318607   4.617   4.998   6.975  0.1115  0.0611 -0.3683
  165SAPE   H3X18608   4.710   4.964   7.025  0.1051 -0.2769 -0.5868
  165SAPE   H3Y18609   4.582   4.915   6.911 -0.0486 -1.6741  1.8480
  165SAPE   C3418610   4.505   5.010   7.088  0.0753  0.1748 -0.0978
  165SAPE   H4X18611   4.463   4.913   7.120 -0.0191  0.0748 -0.5178
  165SAPE   H4Y18612   4.422   5.060   7.034 -1.3649 -1.3847  0.6040
  165SAPE   C3518613   4.537   5.086   7.215 -0.4534 -0.2819  0.2606
  165SAPE   H5X18614   4.459   5.166   7.217 -0.2007 -0.0249 -0.1947
  165SAPE   H5Y18615   4.640   5.126   7.219 -0.5094 -0.2143  3.3700
  165SAPE   C3618616   4.505   5.001   7.340  0.4517 -0.6043 -0.5006
  165SAPE   H6X18617   4.555   4.902   7.327  2.8391  0.4877 -0.1998
  165SAPE   H6Y18618   4.394   4.994   7.340  0.2997  1.2902 -0.9307
  165SAPE   C3718619   4.548   5.067   7.476 -0.1247 -0.6277  0.1459
  165SAPE   H7X18620   4.485   5.158   7.485 -0.0963 -0.4931 -0.8835
  165SAPE   H7Y18621   4.655   5.090   7.460 -0.3200  0.3633  0.1873
  165SAPE   C3818622   4.496   4.982   7.595  0.2631 -0.0803 -0.3748
  165SAPE   H8X18623   4.562   4.894   7.610 -0.7624 -0.3226  3.9377
  165SAPE   H8Y18624   4.396   4.940   7.570  0.2400 -0.3519  0.1625
  165SAPE   C3918625   4.511   5.055   7.730  0.1917 -0.4221 -0.2018
  165SAPE   H9X18626   4.432   5.134   7.722  2.0643  1.5843  0.1894
  165SAPE   H9Y18627   4.614   5.096   7.735  0.5258 -0.6190 -3.2704
  165SAPE  C31018628   4.484   4.961   7.853 -0.1214 -0.4169 -0.7690
  165SAPE  H10X18629   4.561   4.883   7.870  0.1611  0.0618  0.2321
  165SAPE  H10Y18630   4.387   4.907   7.843  0.7010 -1.8544 -1.2706
  165SAPE  C31118631   4.473   5.038   7.991 -0.2064  0.1774 -0.1457
  165SAPE  H11X18632   4.394   5.113   7.974 -0.3535 -0.0477 -0.4615
  165SAPE  H11Y18633   4.574   5.082   8.010  0.2552 -1.1507  0.6674
  165SAPE  C31218634   4.447   4.949   8.114  0.8173  0.8018 -0.2270
  165SAPE  H12X18635   4.340   4.921   8.128  1.4873 -0.6620  2.8785
  165SAPE  H12Y18636   4.464   5.020   8.198  1.4061 -0.0877  0.4284
  165SAPE  C31318637   4.537   4.830   8.132 -0.5457  0.3525  0.8547
  165SAPE  H13X18638   4.645   4.853   8.118 -0.5384 -0.3143 -0.2143
  165SAPE  H13Y18639   4.518   4.758   8.050  1.8268  0.1450  0.4245
  165SAPE  C31418640   4.536   4.758   8.264 -0.6846 -0.0379  0.1261
  165SAPE  H14X18641   4.584   4.661   8.239  3.4662  2.1108 -1.2609
  165SAPE  H14Y18642   4.432   4.753   8.302 -0.0079 -0.6079  1.9871
  165SAPE  C31518643   4.618   4.828   8.378  0.4919 -0.0215  0.1663
  165SAPE  H15X18644   4.576   4.931   8.376  1.9401  0.6097  0.5590
  165SAPE  H15Y18645   4.725   4.835   8.350  1.2129 -1.2035  2.3379
  165SAPE  C31618646   4.597   4.752   8.508 -1.1545  0.2056 -1.0587
  165SAPE  H16X18647   4.629   4.645   8.509  0.6998  0.6736  1.4198
  165SAPE  H16Y18648   4.488   4.757   8.528 -1.3169  2.3678 -2.2350
  165SAPE  C31718649   4.663   4.816   8.635 -0.9372  0.3594  0.0510
  165SAPE  H17X18650   4.621   4.919   8.643 -2.5881 -0.2999  0.1325
  165SAPE  H17Y18651   4.772   4.836   8.624 -0.3746 -2.5938 -0.6676
  165SAPE  C31818652   4.639   4.737   8.760 -0.3216  0.5686 -0.5137
  165SAPE  H18X18653   4.531   4.725   8.785 -0.0598  1.0144  0.9190
  165SAPE  H18Y18654   4.672   4.781   8.856 -0.0289  0.2103 -0.4478
  165SAPE  H18Z18655   4.680   4.634   8.752  1.5549  1.1194  1.1122
  166SAPE     N18656   4.363   2.127   5.714 -0.3982 -0.6958  0.2941
  166SAPE   HN118657   4.262   2.102   5.706 -0.6709  0.2132  0.7238
  166SAPE   HN218658   4.373   2.228   5.738 -0.7157 -0.2199 -1.4363
  166SAPE   HN318659   4.408   2.112   5.622  1.4444 -0.5683  1.1233
  166SAPE   C1218660   4.437   2.035   5.806  0.0162 -0.1877  0.6714
  166SAPE  H12A18661   4.545   2.028   5.781 -0.1710  0.0498 -0.2197
  166SAPE  H12B18662   4.391   1.936   5.787  1.9152 -1.3500  1.8650
  166SAPE   C1118663   4.411   2.071   5.955  0.0631 -0.0247  0.5898
  166SAPE  H11A18664   4.442   1.979   6.008  2.2728  1.4316  1.9840
  166SAPE  H11B18665   4.301   2.077   5.971  0.0772  0.8257  0.4489
  166SAPE     P18666   4.580   2.189   6.122 -0.0753  0.3391  0.3105
  166SAPE   O1318667   4.713   2.164   6.063  0.0106 -0.1548  0.1863
  166SAPE   O1418668   4.565   2.319   6.193 -0.1385 -0.3124 -0.5981
  166SAPE   O1218669   4.469   2.185   6.009  0.5265 -0.1573  0.1917
  166SAPE   O1118670   4.543   2.076   6.217  0.5441  0.3534 -0.1537
  166SAPE    C118671   4.424   2.076   6.297 -0.6582 -0.1046  0.1009
  166SAPE    HA18672   4.348   2.151   6.266  0.0746  0.2714 -0.8063
  166SAPE    HB18673   4.365   1.983   6.288 -1.8853  0.4090  2.0792
  166SAPE    C218674   4.464   2.068   6.443 -0.5962  0.3943  0.3932
  166SAPE    HS18675   4.525   2.155   6.474  0.8725  0.2352 -1.7915
  166SAPE   O2118676   4.530   1.939   6.467 -0.4818  0.3433  0.5959
  166SAPE   C2118677   4.651   1.948   6.519 -0.8561 -0.4586 -0.6994
  166SAPE   O2218678   4.702   2.052   6.565 -0.3063  0.4123  0.1218
  166SAPE   C2218679   4.713   1.813   6.513 -0.2715 -0.3076  0.5761
  166SAPE   H2R18680   4.647   1.738   6.563 -0.6907 -0.5328 -0.2880
  166SAPE   H2S18681   4.717   1.787   6.405 -2.5056 -0.0275  0.3852
  166SAPE    C318682   4.343   2.074   6.534  0.3555 -0.9296  0.4226
  166SAPE    HX18683   4.288   1.980   6.512 -0.9302 -0.5262  1.7648
  166SAPE    HY18684   4.281   2.162   6.509  2.6030  0.6170  0.0257
  166SAPE   O3118685   4.374   2.086   6.669 -0.3218 -0.6976 -0.1118
  166SAPE   C3118686   4.364   1.971   6.742  0.1096 -0.2375  0.1186
  166SAPE   O3218687   4.346   1.860   6.697  0.4864 -0.0096 -0.0924
  166SAPE   C3218688   4.358   2.000   6.892 -0.5390 -0.7536  0.1097
  166SAPE   H2X18689   4.287   1.922   6.926 -0.8516 -0.5056  0.0189
  166SAPE   H2Y18690   4.314   2.102   6.892  1.7750  0.3156 -0.8138
  166SAPE   C2318691   4.848   1.774   6.571  0.3888  0.2281  0.2425
  166SAPE   H3R18692   4.829   1.784   6.680 -0.9125 -0.8527  0.1394
  166SAPE   H3S18693   4.927   1.845   6.539  2.7092 -2.0869  0.4738
  166SAPE   C2418694   4.892   1.636   6.522  0.6507  0.2448  0.7640
  166SAPE   H4R18695   5.001   1.621   6.541  0.8839 -3.7638 -2.3301
  166SAPE   H4S18696   4.888   1.629   6.411  1.9599 -2.0505  0.7966
  166SAPE   C2518697   4.801   1.529   6.577 -0.1601  1.0038  0.5391
  166SAPE   H5R18698   4.716   1.502   6.513 -0.0421  0.2188  0.7038
  166SAPE   C2618699   4.816   1.466   6.699  0.8909  0.8611  0.0180
  166SAPE   H6R18700   4.747   1.382   6.714  1.1212  0.6892  0.1101
  166SAPE   C2718701   4.924   1.474   6.806 -0.2747  0.0548 -0.2664
  166SAPE   H7R18702   4.869   1.492   6.901  1.8974 -2.7400  1.6854
  166SAPE   H7S18703   5.001   1.546   6.773 -1.4295  0.6734 -1.6986
  166SAPE   C2818704   5.001   1.339   6.812 -0.4570 -0.5470  0.4388
  166SAPE   H8R18705   5.042   1.315   6.713  0.8535  1.1874  0.5096
  166SAPE   C2918706   5.038   1.272   6.919 -0.6418 -0.7984  1.1892
  166SAPE   H9R18707   5.091   1.178   6.899  0.0951 -0.4293  1.3507
  166SAPE  C21018708   5.014   1.315   7.062 -0.2231 -0.1033  0.3622
  166SAPE  H10R18709   4.996   1.227   7.128  1.4621 -1.2542 -0.6450
  166SAPE  H10S18710   4.915   1.365   7.067 -1.7150 -2.9672  2.1456
  166SAPE  C21118711   5.114   1.423   7.107 -0.1993 -0.4859 -0.5125
  166SAPE  H11R18712   5.109   1.516   7.048 -0.7294  0.2933  0.7310
  166SAPE  C21218713   5.202   1.416   7.213  0.1461 -0.1828 -0.1681
  166SAPE  H12R18714   5.252   1.506   7.252 -0.0573 -1.0950  2.3711
  166SAPE  C21318715   5.210   1.297   7.303 -0.6093 -0.6975  0.4232
  166SAPE  H13R18716   5.158   1.209   7.258 -1.8606  0.0260  0.3998
  166SAPE  H13S18717   5.151   1.329   7.392 -2.0374  0.7519 -0.9941
  166SAPE  C21418718   5.346   1.247   7.350 -0.7504  0.1996 -0.5918
  166SAPE  H14R18719   5.402   1.184   7.280  1.9427  1.9051 -0.0791
  166SAPE  C21518720   5.405   1.273   7.469  0.9446  0.7144  0.3717
  166SAPE  H15R18721   5.500   1.222   7.494  0.6180  0.8366  1.9960
  166SAPE  C21618722   5.350   1.356   7.588  0.3693  1.4087  0.6399
  166SAPE  H16R18723   5.249   1.398   7.572 -0.6073 -0.9245  0.3688
  166SAPE  H16S18724   5.423   1.439   7.601  2.1786  0.2430 -1.3537
  166SAPE  C21718725   5.355   1.265   7.707  0.3780  1.0772  0.0882
  166SAPE  H17R18726   5.457   1.223   7.727  0.1250 -0.6388 -1.9176
  166SAPE  H17S18727   5.302   1.175   7.670  1.8615  1.1602 -2.4600
  166SAPE  C21818728   5.279   1.310   7.833 -0.4768 -0.5293 -0.1093
  166SAPE  H18R18729   5.182   1.256   7.843 -0.0135 -1.2147  0.7792
  166SAPE  H18S18730   5.249   1.417   7.829  0.6001 -0.2570 -1.6207
  166SAPE  C21918731   5.360   1.293   7.953  0.4122 -0.1624  0.6427
  166SAPE  H19R18732   5.451   1.355   7.939 -0.0414  0.3376 -0.1375
  166SAPE  H19S18733   5.381   1.184   7.955 -0.3534 -0.3507 -0.5185
  166SAPE  C22018734   5.297   1.333   8.086  0.3180  0.4910 -0.2735
  166SAPE  H20R18735   5.269   1.440   8.081 -1.8569 -0.0028  0.3704
  166SAPE  H20S18736   5.371   1.328   8.168 -0.5814  2.0436  0.6934
  166SAPE  H20T18737   5.206   1.272   8.103 -0.5113  1.4523 -1.1489
  166SAPE   C3318738   4.491   1.977   6.972  0.1127 -0.3806  0.2595
  166SAPE   H3X18739   4.472   1.992   7.080  2.9056 -0.5679  0.8720
  166SAPE   H3Y18740   4.568   2.054   6.946 -0.2250 -0.3412 -0.6689
  166SAPE   C3418741   4.543   1.841   6.955 -0.0607  0.3667  0.0122
  166SAPE   H4X18742   4.594   1.828   6.858  2.4494 -1.4937  1.4568
  166SAPE   H4Y18743   4.459   1.769   6.964 -1.8596  2.5304  1.7249
  166SAPE   C3518744   4.647   1.816   7.066 -0.3518  0.4680 -0.3097
  166SAPE   H5X18745   4.705   1.906   7.098 -1.0519  0.0566  2.3121
  166SAPE   H5Y18746   4.712   1.742   7.015 -2.4848 -0.2345 -2.1350
  166SAPE   C3618747   4.585   1.758   7.191 -0.5961  0.0339 -0.0461
  166SAPE   H6X18748   4.533   1.665   7.160  0.8710 -0.5638 -0.8049
  166SAPE   H6Y18749   4.510   1.817   7.248  1.1460  1.6465  0.6601
  166SAPE   C3718750   4.698   1.718   7.284 -0.2206 -0.0320 -0.0721
  166SAPE   H7X18751   4.755   1.808   7.318  0.8789 -0.6371 -0.2816
  166SAPE   H7Y18752   4.774   1.656   7.232  2.1463  2.8963 -0.4322
  166SAPE   C3818753   4.650   1.650   7.415 -0.4787  0.5457  0.5204
  166SAPE   H8X18754   4.718   1.565   7.439  1.2776  1.1603 -1.9810
  166SAPE   H8Y18755   4.555   1.597   7.393 -1.0772  1.2525  1.3148
  166SAPE   C3918756   4.631   1.753   7.523  0.4104  0.4604  0.4100
  166SAPE   H9X18757   4.569   1.832   7.474 -0.4221 -0.8791 -0.7748
  166SAPE   H9Y18758   4.734   1.792   7.534  0.8625 -0.7393  0.4815
  166SAPE  C31018759   4.578   1.700   7.657 -0.2160 -0.2581  0.1592
  166SAPE  H10X18760   4.624   1.607   7.697 -1.6169  0.0276  2.6864
  166SAPE  H10Y18761   4.469   1.676   7.652  0.1832 -2.1753 -0.2016
  166SAPE  C31118762   4.585   1.813   7.761 -0.2006 -1.1327 -0.4254
  166SAPE  H11X18763   4.497   1.818   7.829 -0.0137 -1.3176 -0.1655
  166SAPE  H11Y18764   4.577   1.909   7.707  0.6114 -1.2853 -0.8344
  166SAPE  C31218765   4.712   1.813   7.849 -0.6713  0.1983 -0.0726
  166SAPE  H12X18766   4.694   1.735   7.925 -2.3233 -0.8025 -1.4215
  166SAPE  H12Y18767   4.711   1.907   7.908 -0.9592 -1.7685  3.3158
  166SAPE  C31318768   4.843   1.801   7.778 -0.0477 -0.2500 -0.3403
  166SAPE  H13X18769   4.913   1.856   7.845  0.1113 -0.6739 -0.1540
  166SAPE  H13Y18770   4.852   1.853   7.680  0.7085  1.3687  0.5337
  166SAPE  C31418771   4.902   1.660   7.765  0.4055 -0.0670 -0.3993
  166SAPE  H14X18772   4.850   1.593   7.694 -0.7913 -0.6663  0.9988
  166SAPE  H14Y18773   4.892   1.611   7.864 -0.6377 -0.2723 -0.5924
  166SAPE  C31518774   5.051   1.651   7.730  0.1467  0.6018 -0.0428
  166SAPE  H15X18775   5.080   1.547   7.702 -2.2356  0.2083 -1.2544
  166SAPE  H15Y18776   5.109   1.679   7.821 -0.9772 -0.4059  1.0304
  166SAPE  C31618777   5.095   1.730   7.614  0.1429 -0.3405  0.7243
  166SAPE  H16X18778   5.202   1.718   7.588 -0.4478 -3.4601 -0.8481
  166SAPE  H16Y18779   5.071   1.837   7.630 -0.3717 -0.1359 -1.1741
  166SAPE  C31718780   5.020   1.686   7.483  0.1515 -0.1138  0.1138
  166SAPE  H17X18781   4.911   1.705   7.480  0.2892  1.1562  1.7555
  166SAPE  H17Y18782   5.036   1.577   7.469  0.1733  0.2233 -3.2648
  166SAPE  C31818783   5.081   1.759   7.366 -0.3937 -0.7399 -0.6410
  166SAPE  H18X18784   5.043   1.729   7.266  1.6602 -1.4395 -1.2620
  166SAPE  H18Y18785   5.189   1.735   7.351 -0.0930  1.0719 -1.6956
  166SAPE  H18Z18786   5.079   1.869   7.378  0.7064 -0.7066 -0.6303
  167SAPE     N18787   5.243   0.133   6.152 -0.4593 -1.1449  0.7570
  167SAPE   HN118788   5.211   0.054   6.092  1.0294 -0.4696 -1.0024
  167SAPE   HN218789   5.343   0.158   6.138 -0.2842 -1.3150  1.6144
  167SAPE   HN318790   5.244   0.104   6.252 -1.2628  0.0619  1.1374
  167SAPE   C1218791   5.140   0.240   6.129 -0.4330  0.4633  0.1646
  167SAPE  H12A18792   5.043   0.186   6.138 -0.4098  0.2325 -0.8832
  167SAPE  H12B18793   5.159   0.269   6.024  0.7603 -0.4728  0.0917
  167SAPE   C1118794   5.155   0.352   6.232  0.2188  0.1714 -0.6822
  167SAPE  H11A18795   5.142   0.312   6.335  1.7626  0.9269 -0.1601
  167SAPE  H11B18796   5.069   0.421   6.212 -0.5988 -0.4586  0.5423
  167SAPE     P18797   5.342   0.532   6.136 -0.2381  0.2653  0.2673
  167SAPE   O1318798   5.437   0.615   6.214 -0.1169 -0.1168  0.4545
  167SAPE   O1418799   5.406   0.455   6.021 -0.2110 -0.3881  0.4689
  167SAPE   O1218800   5.282   0.413   6.230 -0.2267 -0.0926  0.1359
  167SAPE   O1118801   5.221   0.616   6.084  0.5903 -0.6349  0.0410
  167SAPE    C118802   5.118   0.687   6.155  0.2676 -0.0824  0.0475
  167SAPE    HA18803   5.096   0.768   6.082 -1.5892  1.5329  2.2482
  167SAPE    HB18804   5.027   0.622   6.161  1.2244 -1.5153 -0.4012
  167SAPE    C218805   5.155   0.738   6.301  0.2849  0.1650  0.5303
  167SAPE    HS18806   5.257   0.781   6.288  0.0129  0.9547  0.9516
  167SAPE   O2118807   5.150   0.634   6.386 -0.7111 -0.5246 -0.5845
  167SAPE   C2118808   5.241   0.643   6.487 -0.0258 -0.6565 -0.5859
  167SAPE   O2218809   5.333   0.725   6.491  0.0369 -0.2522 -0.0146
  167SAPE   C2218810   5.207   0.551   6.598  0.3538 -0.0812 -0.0802
  167SAPE   H2R18811   5.235   0.448   6.568 -2.1449 -0.8295 -0.1158
  167SAPE   H2S18812   5.254   0.600   6.687 -0.4310  0.2132  0.1853
  167SAPE    C318813   5.069   0.855   6.352  0.3616  0.1921 -0.3649
  167SAPE    HX18814   4.967   0.813   6.339  0.5996  0.1410 -2.3987
  167SAPE    HY18815   5.075   0.945   6.288  1.0076 -0.8712 -1.8752
  167SAPE   O3118816   5.090   0.871   6.494 -0.7861  0.3670  0.8149
  167SAPE   C3118817   5.174   0.973   6.529 -0.2127 -0.1288 -0.4380
  167SAPE   O3218818   5.258   1.026   6.459  0.4722  0.6380 -0.2211
  167SAPE   C3218819   5.151   1.010   6.684  0.4812  0.2263 -0.6260
  167SAPE   H2X18820   5.044   1.002   6.712  0.6945  1.8281  0.7702
  167SAPE   H2Y18821   5.195   1.110   6.700 -0.2448  0.4120  0.2422
  167SAPE   C2318822   5.056   0.543   6.622  0.0311 -0.0308  0.4218
  167SAPE   H3R18823   4.994   0.509   6.537  2.8615 -0.7713 -1.4797
  167SAPE   H3S18824   5.011   0.640   6.652 -1.3443  0.1505 -1.9571
  167SAPE   C2418825   5.024   0.464   6.753  0.5971 -0.4004  0.1619
  167SAPE   H4R18826   5.095   0.492   6.833  1.6608 -2.0079 -0.1710
  167SAPE   H4S18827   5.036   0.356   6.731  1.3595  0.0898 -2.0693
  167SAPE   C2518828   4.880   0.488   6.798 -0.0998  0.0666 -0.2080
  167SAPE   H5R18829   4.840   0.582   6.757  2.0198  0.7110 -0.8971
  167SAPE   C2618830   4.803   0.413   6.885 -0.0710  0.0387 -0.1737
  167SAPE   H6R18831   4.707   0.442   6.930  0.6433 -1.3380  2.4653
  167SAPE   C2718832   4.863   0.291   6.947 -0.3040  0.5001  0.2329
  167SAPE   H7R18833   4.917   0.331   7.036 -2.1407  2.1994  0.6426
  167SAPE   H7S18834   4.943   0.253   6.880 -2.0008 -0.2526 -1.4458
  167SAPE   C2818835   4.776   0.177   6.987  0.1734  0.1080 -0.2193
  167SAPE   H8R18836   4.712   0.151   6.901  0.3935  0.7940 -0.5987
  167SAPE   C2918837   4.753   0.122   7.109  0.2169 -0.4484 -0.2815
  167SAPE   H9R18838   4.686   0.036   7.123 -1.8301  0.9315 -1.1041
  167SAPE  C21018839   4.828   0.164   7.233 -0.3989 -0.1308  0.2992
  167SAPE  H10R18840   4.930   0.189   7.199 -1.5393  0.1377 -3.3180
  167SAPE  H10S18841   4.842   0.076   7.300 -0.3700 -0.4939 -0.1783
  167SAPE  C21118842   4.758   0.278   7.308  0.4417  0.3285  0.6287
  167SAPE  H11R18843   4.720   0.359   7.244  1.6253  0.7546  0.4317
  167SAPE  C21218844   4.748   0.308   7.436  0.1331  0.1279 -1.3380
  167SAPE  H12R18845   4.679   0.390   7.461  2.4491  1.9020 -0.4162
  167SAPE  C21318846   4.816   0.234   7.548  0.5498  0.0396 -0.0247
  167SAPE  H13R18847   4.895   0.171   7.501  0.5895  0.3454 -0.3687
  167SAPE  H13S18848   4.742   0.174   7.606 -0.6238  0.7132 -0.7964
  167SAPE  C21418849   4.889   0.343   7.628  0.7199 -0.6737 -0.4006
  167SAPE  H14R18850   4.960   0.409   7.575  0.2487 -1.1547 -1.6682
  167SAPE  C21518851   4.885   0.363   7.765 -0.4854  0.3188 -0.1144
  167SAPE  H15R18852   4.957   0.439   7.798  4.4220 -3.1441 -1.7397
  167SAPE  C21618853   4.811   0.277   7.869 -0.0081 -0.0090 -0.0034
  167SAPE  H16R18854   4.744   0.210   7.812 -3.3068  1.6999  1.5301
  167SAPE  H16S18855   4.761   0.343   7.944 -0.2908 -1.7149  1.3648
  167SAPE  C21718856   4.915   0.206   7.952  0.5900  0.0109  0.0228
  167SAPE  H17R18857   4.975   0.278   8.012  0.1820 -0.5503  1.1110
  167SAPE  H17S18858   4.979   0.150   7.880 -1.4405  1.0020 -2.7477
  167SAPE  C21818859   4.847   0.108   8.054  0.7580 -0.1239  0.1437
  167SAPE  H18R18860   4.808   0.017   8.003 -2.7762 -0.2478  2.6879
  167SAPE  H18S18861   4.763   0.161   8.105  1.5027  0.9987  0.2322
  167SAPE  C21918862   4.939   0.057   8.162 -0.6600 -0.6131  0.3473
  167SAPE  H19R18863   4.879   0.001   8.236  0.9604 -2.2594  0.4766
  167SAPE  H19S18864   4.990   0.143   8.211  0.6372 -1.8045  1.1405
  167SAPE  C22018865   5.054  -0.027   8.108  0.4836 -0.8474  0.4074
  167SAPE  H20R18866   5.115   0.010   8.023  0.5926 -3.4610 -0.7471
  167SAPE  H20S18867   5.022  -0.117   8.052  0.8448  0.0151 -1.2405
  167SAPE  H20T18868   5.126  -0.049   8.190  3.0059 -3.2370 -2.1990
  167SAPE   C3318869   5.227   0.902   6.772  0.7273  0.0605 -0.0730
  167SAPE   H3X18870   5.337   0.904   6.761  0.7467  1.1113  0.1836
  167SAPE   H3Y18871   5.195   0.803   6.734  2.0957  0.7060 -3.2105
  167SAPE   C3418872   5.191   0.918   6.920 -0.1921 -0.5389  0.0225
  167SAPE   H4X18873   5.093   0.969   6.935  0.1008  0.3836 -1.0033
  167SAPE   H4Y18874   5.276   0.979   6.958 -2.5214  2.3087  1.0815
  167SAPE   C3518875   5.210   0.779   6.993  0.1158  0.1071  0.0115
  167SAPE   H5X18876   5.303   0.727   6.960  0.3438 -0.0637  0.8896
  167SAPE   H5Y18877   5.129   0.713   6.953  0.1793 -1.5745  2.4427
  167SAPE   C3618878   5.210   0.777   7.142  0.4267  0.4378 -0.2038
  167SAPE   H6X18879   5.228   0.676   7.185  2.0141  0.2903 -1.1416
  167SAPE   H6Y18880   5.108   0.809   7.174  0.4011 -0.1372  0.3045
  167SAPE   C3718881   5.313   0.866   7.208  0.3125 -0.1083  0.2717
  167SAPE   H7X18882   5.292   0.972   7.180  3.1677 -0.3410 -3.6256
  167SAPE   H7Y18883   5.404   0.838   7.150 -1.2389 -0.2975 -2.2009
  167SAPE   C3818884   5.325   0.852   7.356 -0.3952 -0.5015 -0.1964
  167SAPE   H8X18885   5.418   0.906   7.384  0.3688 -1.4270 -0.9056
  167SAPE   H8Y18886   5.336   0.743   7.375 -2.9191 -0.5522  1.4744
  167SAPE   C3918887   5.195   0.910   7.419 -0.1631  0.2691  0.0644
  167SAPE   H9X18888   5.099   0.875   7.375  1.0880  0.6235 -3.2270
  167SAPE   H9Y18889   5.197   1.018   7.397 -2.8406  0.6207  1.1261
  167SAPE  C31018890   5.181   0.896   7.574 -0.0888  0.8398 -0.1289
  167SAPE  H10X18891   5.281   0.925   7.612 -0.4619  0.4995  1.1498
  167SAPE  H10Y18892   5.156   0.790   7.597 -1.9230  1.2144 -0.2875
  167SAPE  C31118893   5.075   0.975   7.632  0.3975 -0.5362 -0.0947
  167SAPE  H11X18894   4.981   0.932   7.591 -0.6633  1.3853  0.1681
  167SAPE  H11Y18895   5.088   1.076   7.586 -0.4326 -1.7865 -3.3769
  167SAPE  C31218896   5.079   0.999   7.776 -0.7448 -0.0155 -0.6292
  167SAPE  H12X18897   5.001   1.076   7.796 -1.1718 -0.7747  0.6897
  167SAPE  H12Y18898   5.181   1.040   7.793 -0.9462 -0.1521  1.0481
  167SAPE  C31318899   5.046   0.879   7.859 -0.3644 -0.4970 -0.3536
  167SAPE  H13X18900   5.111   0.793   7.833 -1.2079 -1.6189  1.0382
  167SAPE  H13Y18901   4.944   0.850   7.827  0.0555 -0.5707 -1.6737
  167SAPE  C31418902   5.039   0.916   8.014 -0.4871  0.3594  0.0133
  167SAPE  H14X18903   4.967   1.000   8.019 -1.5484 -0.5342  0.1444
  167SAPE  H14Y18904   5.139   0.951   8.047 -0.0676  0.0515 -0.8961
  167SAPE  C31518905   4.994   0.803   8.100  0.0360 -0.6490  0.1019
  167SAPE  H15X18906   5.055   0.712   8.082  0.9233 -0.6081  2.5032
  167SAPE  H15Y18907   4.887   0.777   8.082  0.1430 -0.2123 -1.1965
  167SAPE  C31618908   5.013   0.841   8.248 -1.0287 -0.5518 -0.0664
  167SAPE  H16X18909   5.118   0.868   8.272 -1.2231  1.5043 -1.2873
  167SAPE  H16Y18910   4.986   0.755   8.312 -1.0175 -1.1583 -0.8633
  167SAPE  C31718911   4.933   0.971   8.290  0.2217 -0.4176  0.5520
  167SAPE  H17X18912   4.825   0.970   8.265  0.1027 -0.5722  1.0707
  167SAPE  H17Y18913   4.970   1.062   8.239  0.6995  0.1222  1.8263
  167SAPE  C31818914   4.936   0.990   8.440 -0.1595  0.2761  0.3133
  167SAPE  H18X18915   5.042   0.990   8.473 -0.4544 -0.0809  1.2965
  167SAPE  H18Y18916   4.882   0.904   8.485  1.0729 -0.2346  0.8797
  167SAPE  H18Z18917   4.884   1.083   8.471  0.1736  0.7672 -0.5761
  168SAPE     N18918   0.873   2.158   6.431 -0.0486 -0.0159 -0.1466
  168SAPE   HN118919   0.933   2.162   6.346 -2.1100 -0.8936 -1.7263
  168SAPE   HN218920   0.913   2.221   6.503 -3.6002  1.9153  0.3566
  168SAPE   HN318921   0.879   2.061   6.469 -1.5480 -0.0022  0.1769
  168SAPE   C1218922   0.732   2.196   6.402  0.5102 -0.3361 -0.0876
  168SAPE  H12A18923   0.736   2.293   6.349  2.9686  0.0673  0.6934
  168SAPE  H12B18924   0.688   2.224   6.500  1.8278 -0.4128  0.5494
  168SAPE   C1118925   0.660   2.083   6.336  0.2966  0.3956  0.3449
  168SAPE  H11A18926   0.705   2.082   6.235  0.0109  0.9762  0.2046
  168SAPE  H11B18927   0.549   2.094   6.326 -0.1427 -3.9913 -1.8601
  168SAPE     P18928   0.573   1.904   6.507 -0.1951 -0.0205 -0.9567
  168SAPE   O1318929   0.656   1.858   6.621  0.4040 -0.2320  0.1413
  168SAPE   O1418930   0.473   2.007   6.541  0.0087 -0.1152  0.1722
  168SAPE   O1218931   0.677   1.952   6.396 -0.3462 -0.3767  0.1102
  168SAPE   O1118932   0.503   1.782   6.437 -0.3646  0.1368  0.0299
  168SAPE    C118933   0.490   1.655   6.517 -0.1271 -0.4400  0.6533
  168SAPE    HA18934   0.493   1.577   6.438 -0.9922  2.8511 -2.9362
  168SAPE    HB18935   0.578   1.638   6.583  0.9909 -1.7219 -1.0804
  168SAPE    C218936   0.349   1.634   6.581  0.4586  0.3154 -0.2892
  168SAPE    HS18937   0.275   1.634   6.498  1.5871 -2.5501 -1.4281
  168SAPE   O2118938   0.333   1.739   6.674 -0.7340 -0.9917 -0.7013
  168SAPE   C2118939   0.230   1.817   6.661 -0.4028 -0.6707 -0.2174
  168SAPE   O2218940   0.154   1.827   6.565 -0.0931 -0.1936 -0.3515
  168SAPE   C2218941   0.229   1.907   6.782  0.2779 -0.1187 -0.2007
  168SAPE   H2R18942   0.207   1.839   6.867  1.5020 -1.0073 -0.5573
  168SAPE   H2S18943   0.333   1.938   6.805  0.8194 -1.9890  0.0645
  168SAPE    C318944   0.347   1.488   6.635 -0.5366 -0.2897  0.3162
  168SAPE    HX18945   0.444   1.465   6.683 -0.0174  0.1122 -0.5155
  168SAPE    HY18946   0.331   1.413   6.554 -0.3203 -1.3776  1.2635
  168SAPE   O3118947   0.247   1.474   6.730 -0.8173 -0.3899 -0.4400
  168SAPE   C3118948   0.124   1.436   6.699  0.4405  0.7040  0.3231
  168SAPE   O3218949   0.092   1.406   6.582 -0.0462  0.4213  0.1819
  168SAPE   C3218950   0.029   1.437   6.822  0.3341  0.2686  0.1877
  168SAPE   H2X18951   0.043   1.336   6.867  0.4457  0.4505  0.5667
  168SAPE   H2Y18952  -0.074   1.442   6.781  1.0797  1.6321 -1.6307
  168SAPE   C2318953   0.125   2.022   6.755 -0.3025 -0.1513 -0.0398
  168SAPE   H3R18954   0.029   1.977   6.720 -0.5579 -1.8371  2.5411
  168SAPE   H3S18955   0.157   2.072   6.661  1.9730  0.2874  0.9107
  168SAPE   C2418956   0.104   2.130   6.861  0.1826 -0.9013 -0.7888
  168SAPE   H4R18957   0.044   2.216   6.825  1.2259  0.4111  0.4649
  168SAPE   H4S18958   0.204   2.179   6.861 -0.0169 -0.4296  0.9674
  168SAPE   C2518959   0.067   2.084   6.997  0.4776  0.0149 -0.3315
  168SAPE   H5R18960  -0.043   2.077   7.005  0.1616  1.3007 -2.5866
  168SAPE   C2618961   0.143   2.049   7.106 -0.4837 -0.2737 -0.2183
  168SAPE   H6R18962   0.089   2.008   7.193 -1.0012 -1.5772 -1.1223
  168SAPE   C2718963   0.296   2.051   7.113 -0.1523  0.1051  0.2151
  168SAPE   H7R18964   0.346   2.144   7.077 -1.4146  0.6942 -0.0786
  168SAPE   H7S18965   0.331   1.966   7.051 -0.5024 -0.3094  0.5818
  168SAPE   C2818966   0.351   2.038   7.250  0.5319  0.5090 -0.4536
  168SAPE   H8R18967   0.292   2.084   7.331  0.1413 -1.6008  0.5435
  168SAPE   C2918968   0.453   1.959   7.278  0.1852 -0.0320 -0.4665
  168SAPE   H9R18969   0.487   1.970   7.382  0.5574 -3.6670 -0.0817
  168SAPE  C21018970   0.542   1.873   7.194  0.0619 -0.2561 -0.6478
  168SAPE  H10R18971   0.645   1.913   7.187  1.2444 -2.2331  2.8610
  168SAPE  H10S18972   0.504   1.857   7.091  1.8236 -1.8817 -1.0992
  168SAPE  C21118973   0.565   1.740   7.256  0.4624 -0.2024  0.0010
  168SAPE  H11R18974   0.507   1.661   7.206 -0.7137 -0.5312  1.7486
  168SAPE  C21218975   0.647   1.705   7.365  0.0630  0.0407  0.3941
  168SAPE  H12R18976   0.644   1.597   7.384  0.4346 -0.2377 -0.9922
  168SAPE  C21318977   0.745   1.798   7.438  0.1536  0.0308  0.4839
  168SAPE  H13R18978   0.768   1.890   7.380  0.7140  0.7183  1.7408
  168SAPE  H13S18979   0.845   1.755   7.462  1.6183  3.2576  0.7552
  168SAPE  C21418980   0.686   1.848   7.564  0.3986 -0.2751  0.2450
  168SAPE  H14R18981   0.577   1.856   7.556  0.3747  1.0122  1.4670
  168SAPE  C21518982   0.742   1.879   7.681 -0.0024  0.2048 -0.4156
  168SAPE  H15R18983   0.682   1.897   7.771  2.0314 -0.4291  1.1516
  168SAPE  C21618984   0.888   1.870   7.713 -0.1912  0.6828 -0.8786
  168SAPE  H16R18985   0.921   1.961   7.766  0.8594 -0.9177  1.3567
  168SAPE  H16S18986   0.949   1.856   7.621  1.5680 -1.1082  0.4916
  168SAPE  C21718987   0.925   1.750   7.803 -0.5680  0.6871 -0.7264
  168SAPE  H17R18988   1.034   1.759   7.823 -0.6346 -1.9814  1.3150
  168SAPE  H17S18989   0.900   1.652   7.756 -3.2081 -0.0000  1.8375
  168SAPE  C21818990   0.847   1.746   7.937  0.2424  0.2816 -0.6430
  168SAPE  H18R18991   0.739   1.741   7.914 -0.1794  3.0113  0.4232
  168SAPE  H18S18992   0.872   1.846   7.979 -1.2230  1.2962 -2.0814
  168SAPE  C21918993   0.889   1.640   8.043  0.0442 -0.2548 -0.3242
  168SAPE  H19R18994   0.998   1.615   8.041 -0.1636 -1.7398  2.0085
  168SAPE  H19S18995   0.840   1.542   8.027  0.7664 -0.7154  0.1716
  168SAPE  C22018996   0.849   1.673   8.190 -0.0298 -0.2136 -0.1693
  168SAPE  H20R18997   0.900   1.763   8.232 -3.7112  2.0055  0.0271
  168SAPE  H20S18998   0.868   1.588   8.260 -0.4889 -0.2204 -0.0471
  168SAPE  H20T18999   0.744   1.708   8.191  0.5231  1.5761  1.0220
  168SAPE   C3319000   0.064   1.546   6.925 -1.2582 -0.5731 -0.0891
  168SAPE   H3X19001   0.032   1.637   6.869 -0.0877 -0.4405 -0.5695
  168SAPE   H3Y19002   0.174   1.557   6.938 -1.5813 -0.3370  3.3615
  168SAPE   C3419003   0.012   1.524   7.070 -0.1788 -0.0312 -0.3893
  168SAPE   H4X19004   0.060   1.432   7.109  0.6333 -0.6355 -2.6300
  168SAPE   H4Y19005  -0.097   1.504   7.076 -0.0023 -1.2583 -0.9438
  168SAPE   C3519006   0.065   1.636   7.160 -0.3709  0.0343 -0.3572
  168SAPE   H5X19007   0.035   1.737   7.125 -1.0067  0.6540  1.8201
  168SAPE   H5Y19008   0.176   1.628   7.158 -0.3650 -0.1270  0.4002
  168SAPE   C3619009   0.029   1.597   7.311 -0.5063 -0.3334  0.1713
  168SAPE   H6X19010   0.008   1.490   7.327  3.6486 -1.1536  1.3702
  168SAPE   H6Y19011  -0.043   1.671   7.353 -1.9385 -0.8637 -1.2792
  168SAPE   C3719012   0.158   1.622   7.403  0.3652  0.7702  0.7362
  168SAPE   H7X19013   0.206   1.720   7.383  3.7176 -0.3431  2.5120
  168SAPE   H7Y19014   0.223   1.535   7.380  0.2847  0.5844  1.2127
  168SAPE   C3819015   0.123   1.636   7.549  0.5000  0.1589  0.2149
  168SAPE   H8X19016   0.101   1.533   7.585  1.4172 -0.9439 -2.1747
  168SAPE   H8Y19017   0.036   1.704   7.563  0.1960 -0.3389  0.7576
  168SAPE   C3919018   0.239   1.683   7.643 -0.2246 -0.2865  0.2962
  168SAPE   H9X19019   0.284   1.770   7.589  0.3383 -1.0958 -0.5678
  168SAPE   H9Y19020   0.317   1.604   7.649 -0.6667 -0.6379  3.4109
  168SAPE  C31019021   0.199   1.721   7.787 -0.2113 -0.4346 -0.1805
  168SAPE  H10X19022   0.160   1.628   7.832  0.0901  0.0862  1.2178
  168SAPE  H10Y19023   0.119   1.798   7.790  0.2040  0.1044 -1.9238
  168SAPE  C31119024   0.314   1.783   7.871  0.4775 -0.0479 -0.0893
  168SAPE  H11X19025   0.348   1.882   7.835 -1.4129  2.0976  3.4322
  168SAPE  H11Y19026   0.403   1.717   7.882  0.1339 -0.1506  2.7115
  168SAPE  C31219027   0.255   1.825   8.008  0.0061  0.9776 -0.2307
  168SAPE  H12X19028   0.191   1.741   8.044 -0.6022  2.0886  1.3625
  168SAPE  H12Y19029   0.185   1.910   7.997  0.0721  0.8784 -1.5031
  168SAPE  C31319030   0.368   1.847   8.112 -0.2393 -0.0883 -0.1814
  168SAPE  H13X19031   0.450   1.920   8.096  1.0251 -0.7449  2.5900
  168SAPE  H13Y19032   0.422   1.750   8.123  0.2822  0.3237  1.0548
  168SAPE  C31419033   0.304   1.878   8.247 -0.3954 -0.1180 -0.2057
  168SAPE  H14X19034   0.251   1.786   8.278  1.0891 -2.4425 -3.8721
  168SAPE  H14Y19035   0.235   1.965   8.240  1.5725  1.4565 -1.0720
  168SAPE  C31519036   0.410   1.934   8.349 -0.1137 -0.6771 -0.0207
  168SAPE  H15X19037   0.483   1.852   8.366 -0.5465 -0.7253  1.8209
  168SAPE  H15Y19038   0.360   1.948   8.447  1.7691 -2.5019  1.2900
  168SAPE  C31619039   0.500   2.053   8.311 -0.0747  0.4476  0.0878
  168SAPE  H16X19040   0.559   2.024   8.222 -0.4682 -1.8521  0.5270
  168SAPE  H16Y19041   0.568   2.071   8.397 -0.1363 -0.1942  0.2767
  168SAPE  C31719042   0.430   2.184   8.284 -0.4401  0.3855 -0.3518
  168SAPE  H17X19043   0.352   2.197   8.362  0.2885 -0.2047  0.5028
  168SAPE  H17Y19044   0.388   2.163   8.183 -0.2107 -2.6759  0.0764
  168SAPE  C31819045   0.517   2.307   8.282 -0.1727 -0.0616  0.4837
  168SAPE  H18X19046   0.466   2.406   8.287  0.0644  0.1660 -1.1521
  168SAPE  H18Y19047   0.580   2.303   8.191 -0.0038  0.6644  0.5629
  168SAPE  H18Z19048   0.593   2.311   8.363 -1.0667 -0.8764  1.3926
  169SAPE     N19049   4.852   2.748   6.403  0.3639  0.6701 -0.0885
  169SAPE   HN119050   4.831   2.813   6.324  1.0127  1.4261  0.3428
  169SAPE   HN219051   4.845   2.647   6.379  1.3145 -0.1751  2.7745
  169SAPE   HN319052   4.772   2.764   6.467 -0.4352 -0.8953 -0.6661
  169SAPE   C1219053   4.984   2.751   6.477 -0.0360  0.4007  0.2974
  169SAPE  H12A19054   5.064   2.721   6.406 -0.5845 -1.6240  0.4650
  169SAPE  H12B19055   4.979   2.682   6.564  2.8295 -1.1185 -0.6287
  169SAPE   C1119056   5.013   2.897   6.528 -0.1832  0.4026  0.0834
  169SAPE  H11A19057   5.091   2.910   6.606  0.4542 -1.3209 -0.2360
  169SAPE  H11B19058   4.921   2.924   6.584 -0.9796  0.5509 -1.2439
  169SAPE     P19059   5.141   3.007   6.337  0.2004  0.1814 -0.1219
  169SAPE   O1319060   5.200   2.876   6.298  0.3538 -0.0573  0.1905
  169SAPE   O1419061   5.108   3.096   6.226  0.2494 -0.2833 -0.4768
  169SAPE   O1219062   5.016   2.997   6.429  0.4378  0.2330 -0.0152
  169SAPE   O1119063   5.244   3.081   6.437 -0.1094  0.2142  0.0463
  169SAPE    C119064   5.199   3.201   6.497  0.8255 -0.1706  0.4544
  169SAPE    HA19065   5.183   3.285   6.427 -0.3535 -1.3584 -0.7659
  169SAPE    HB19066   5.110   3.185   6.562  0.1248  3.1114  0.4368
  169SAPE    C219067   5.298   3.244   6.607 -0.6673  0.9672 -0.0685
  169SAPE    HS19068   5.388   3.238   6.542 -2.7947 -1.4772 -3.0957
  169SAPE   O2119069   5.301   3.151   6.714 -0.1699 -0.3293  0.1551
  169SAPE   C2119070   5.407   3.168   6.792 -0.0719  1.0957  0.1290
  169SAPE   O2219071   5.499   3.248   6.782  0.3263  0.6345 -0.2390
  169SAPE   C2219072   5.407   3.063   6.906 -0.1722 -0.0888 -0.1104
  169SAPE   H2R19073   5.502   3.079   6.961 -1.3970 -0.5004  2.2553
  169SAPE   H2S19074   5.316   3.090   6.963  1.2710  1.7702  1.4284
  169SAPE    C319075   5.277   3.388   6.659 -0.3057 -0.1623  0.6928
  169SAPE    HX19076   5.272   3.443   6.563  0.5196 -0.4030  0.5034
  169SAPE    HY19077   5.359   3.428   6.723 -1.8796  0.7876  2.2402
  169SAPE   O3119078   5.166   3.397   6.749 -0.1219 -0.7501  0.2956
  169SAPE   C3119079   5.098   3.508   6.727 -0.4408  0.2441  0.0515
  169SAPE   O3219080   5.114   3.588   6.640  0.0815  0.0301 -0.3293
  169SAPE   C3219081   4.974   3.500   6.823 -0.4501 -0.0866  0.1586
  169SAPE   H2X19082   5.012   3.470   6.923 -0.4803  3.5298  1.4103
  169SAPE   H2Y19083   4.911   3.422   6.775  1.5760 -1.0119 -1.1115
  169SAPE   C2319084   5.397   2.920   6.851  0.0397 -0.1665 -0.4545
  169SAPE   H3R19085   5.486   2.882   6.797 -1.6519 -1.8216 -2.2396
  169SAPE   H3S19086   5.312   2.917   6.779  0.8002 -0.1693 -1.3605
  169SAPE   C2419087   5.365   2.831   6.977 -0.0368 -0.3171  0.2886
  169SAPE   H4R19088   5.336   2.733   6.934 -0.7724  0.0330 -0.0264
  169SAPE   H4S19089   5.273   2.867   7.028 -0.5230 -2.2608  0.8555
  169SAPE   C2519090   5.486   2.821   7.066  0.2702  0.1920 -0.1756
  169SAPE   H5R19091   5.582   2.787   7.027  0.8507 -0.4601  1.6824
  169SAPE   C2619092   5.487   2.868   7.197  0.0374 -0.3211  0.4448
  169SAPE   H6R19093   5.580   2.846   7.252  1.3987  1.0598 -1.1534
  169SAPE   C2719094   5.382   2.932   7.284 -0.2601 -0.4952  0.2095
  169SAPE   H7R19095   5.364   2.878   7.380  0.2757 -1.4739 -0.2317
  169SAPE   H7S19096   5.288   2.925   7.225  0.6434 -1.9473 -1.1159
  169SAPE   C2819097   5.417   3.081   7.298  0.0121  0.5582 -0.3581
  169SAPE   H8R19098   5.456   3.128   7.207  1.8624 -0.0583  0.0850
  169SAPE   C2919099   5.408   3.149   7.416 -0.6494  0.1425 -0.0893
  169SAPE   H9R19100   5.446   3.252   7.412  1.0587 -0.4729 -0.4398
  169SAPE  C21019101   5.366   3.095   7.550  0.7883  0.1616 -0.2977
  169SAPE  H10R19102   5.259   3.064   7.556  0.6772  0.5186 -0.3823
  169SAPE  H10S19103   5.364   3.181   7.621  0.1143 -1.5118  1.8125
  169SAPE  C21119104   5.458   2.987   7.613  0.2364 -0.2227  0.1797
  169SAPE  H11R19105   5.537   2.951   7.546  1.1264  1.0658  0.5079
  169SAPE  C21219106   5.440   2.923   7.732  0.7389 -0.9812  0.2941
  169SAPE  H12R19107   5.507   2.843   7.765 -0.1544 -1.3122  1.3907
  169SAPE  C21319108   5.326   2.951   7.829 -0.5395 -0.2253  0.1704
  169SAPE  H13R19109   5.268   2.860   7.854 -1.6415  0.1981 -0.7501
  169SAPE  H13S19110   5.245   3.002   7.772 -1.0095 -1.4852 -0.3140
  169SAPE  C21419111   5.351   3.041   7.946  0.1089 -0.0182 -0.2097
  169SAPE  H14R19112   5.394   3.141   7.932 -1.6745  0.6648 -1.2308
  169SAPE  C21519113   5.301   3.025   8.068 -0.0570  0.1506  0.3220
  169SAPE  H15R19114   5.320   3.099   8.148 -1.1773  0.6193  0.1779
  169SAPE  C21619115   5.225   2.909   8.123 -0.3410 -0.4632 -0.4600
  169SAPE  H16R19116   5.212   2.821   8.056 -2.1816 -1.7260  1.4448
  169SAPE  H16S19117   5.121   2.946   8.128  0.2914  1.4576 -0.5645
  169SAPE  C21719118   5.269   2.867   8.259  0.7139  0.7623 -0.4129
  169SAPE  H17R19119   5.218   2.776   8.298  3.3964 -0.4142  0.5841
  169SAPE  H17S19120   5.239   2.940   8.338 -2.0080 -0.3828 -0.2813
  169SAPE  C21819121   5.423   2.845   8.273  0.0231 -0.3571 -0.2271
  169SAPE  H18R19122   5.475   2.935   8.235 -0.8751  0.0952 -0.4026
  169SAPE  H18S19123   5.450   2.756   8.212 -1.0678  0.8680 -2.6085
  169SAPE  C21919124   5.473   2.809   8.414 -0.6195 -0.2023  0.2950
  169SAPE  H19R19125   5.459   2.904   8.471 -3.0212  0.6662 -1.5347
  169SAPE  H19S19126   5.583   2.797   8.423 -0.4269  2.3798  3.1200
  169SAPE  C22019127   5.404   2.697   8.488 -0.3003 -0.1266  0.4971
  169SAPE  H20R19128   5.440   2.707   8.593  1.2761  2.3075 -0.1763
  169SAPE  H20S19129   5.410   2.592   8.453 -1.2507  0.1284 -0.4888
  169SAPE  H20T19130   5.296   2.719   8.479 -0.0258  0.6852 -1.4959
  169SAPE   C3319131   4.906   3.636   6.823 -0.2587  0.0272  0.2946
  169SAPE   H3X19132   4.861   3.657   6.724  1.5176  2.0062 -0.1750
  169SAPE   H3Y19133   4.978   3.720   6.826 -1.1975  0.8802 -0.4407
  169SAPE   C3419134   4.794   3.639   6.934 -0.1231 -0.1099  0.0238
  169SAPE   H4X19135   4.744   3.540   6.926  2.6034 -1.8406  2.5527
  169SAPE   H4Y19136   4.722   3.720   6.909 -0.6434 -0.7237 -0.5424
  169SAPE   C3519137   4.839   3.651   7.081 -0.4211  0.6604 -0.6248
  169SAPE   H5X19138   4.864   3.758   7.096  1.0188  0.8376 -3.6550
  169SAPE   H5Y19139   4.931   3.593   7.104 -1.4708 -1.0957 -0.6774
  169SAPE   C3619140   4.726   3.616   7.179 -0.8428  0.3033  0.5988
  169SAPE   H6X19141   4.710   3.506   7.188 -1.2691  0.4207  1.4592
  169SAPE   H6Y19142   4.632   3.657   7.136  0.5110  2.7440 -0.2189
  169SAPE   C3719143   4.745   3.669   7.324  0.9060  0.7869 -0.4006
  169SAPE   H7X19144   4.757   3.779   7.316  1.7830  0.6698 -0.8097
  169SAPE   H7Y19145   4.841   3.638   7.372 -0.0366  0.4500  1.3576
  169SAPE   C3819146   4.630   3.613   7.410 -0.2355 -0.1768 -0.2264
  169SAPE   H8X19147   4.627   3.503   7.402 -2.2035 -0.2437  0.9234
  169SAPE   H8Y19148   4.535   3.657   7.372  0.4926  0.0903 -1.8643
  169SAPE   C3919149   4.644   3.636   7.560 -0.2549  0.0935 -0.9231
  169SAPE   H9X19150   4.644   3.746   7.575  3.1709  0.2850 -1.5565
  169SAPE   H9Y19151   4.745   3.605   7.594 -0.8489  1.3015  2.3493
  169SAPE  C31019152   4.552   3.543   7.642  0.0537 -0.1231 -0.0026
  169SAPE  H10X19153   4.520   3.452   7.588 -1.9024  0.5454 -0.0552
  169SAPE  H10Y19154   4.456   3.594   7.668 -1.1429 -2.9240  1.4981
  169SAPE  C31119155   4.615   3.504   7.777  0.0892 -1.3251 -0.2603
  169SAPE  H11X19156   4.678   3.589   7.810 -1.1588 -0.5758  0.2441
  169SAPE  H11Y19157   4.673   3.410   7.766 -0.3805 -1.7380  0.7018
  169SAPE  C31219158   4.509   3.488   7.880 -0.0011 -0.4813  0.8418
  169SAPE  H12X19159   4.451   3.402   7.841  3.3547 -2.5118 -0.1527
  169SAPE  H12Y19160   4.449   3.580   7.896  1.6427  0.7211  0.4666
  169SAPE  C31319161   4.550   3.445   8.022 -0.3006  0.2083  0.6386
  169SAPE  H13X19162   4.620   3.524   8.056 -0.5284  1.5140 -1.7126
  169SAPE  H13Y19163   4.622   3.361   8.012  2.3445  1.9654  3.1597
  169SAPE  C31419164   4.446   3.429   8.137 -0.1897  0.9769  0.1596
  169SAPE  H14X19165   4.382   3.343   8.110  1.1970  0.5023 -1.8508
  169SAPE  H14Y19166   4.386   3.522   8.142 -0.1823  0.9899  0.0024
  169SAPE  C31519167   4.515   3.411   8.268  0.6311  0.3175  1.0060
  169SAPE  H15X19168   4.598   3.483   8.283  0.9351  0.0419  0.6468
  169SAPE  H15Y19169   4.565   3.312   8.263  0.5509  0.3338 -0.2189
  169SAPE  C31619170   4.421   3.409   8.392  0.0903  0.3280  0.0134
  169SAPE  H16X19171   4.349   3.326   8.378  0.1759  0.7350 -3.6916
  169SAPE  H16Y19172   4.364   3.505   8.394 -1.1991 -0.1633 -4.1493
  169SAPE  C31719173   4.507   3.392   8.517 -0.9021  0.0544 -0.0855
  169SAPE  H17X19174   4.567   3.484   8.531 -0.1230 -0.3160 -0.8819
  169SAPE  H17Y19175   4.577   3.306   8.512  0.9908  1.2827  2.7322
  169SAPE  C31819176   4.426   3.357   8.645  0.6631  0.6422 -0.4002
  169SAPE  H18X19177   4.353   3.438   8.663 -0.9014 -0.6734 -0.6232
  169SAPE  H18Y19178   4.495   3.326   8.727 -0.5096 -3.6375 -0.7774
  169SAPE  H18Z19179   4.366   3.264   8.629 -1.2135  1.6820  0.3002
  170SAPE     N19180   5.781   0.744   5.979 -0.1428  0.9992 -0.0490
  170SAPE   HN119181   5.747   0.716   6.073  0.3782 -0.9947 -0.4111
  170SAPE   HN219182   5.704   0.722   5.913 -0.9599  0.5315  1.0341
  170SAPE   HN319183   5.868   0.689   5.963 -0.3931  0.5208  0.2179
  170SAPE   C1219184   5.790   0.885   5.992  0.4917 -0.3202  0.1666
  170SAPE  H12A19185   5.689   0.929   6.003 -0.1959 -1.2257 -2.0374
  170SAPE  H12B19186   5.832   0.923   5.896  0.1065 -1.8594 -0.6380
  170SAPE   C1119187   5.883   0.932   6.105  1.0561 -0.4017 -0.0979
  170SAPE  H11A19188   5.840   0.901   6.203  1.1932 -2.4879 -0.6472
  170SAPE  H11B19189   5.901   1.041   6.103  1.3243 -0.4224  0.9923
  170SAPE     P19190   6.129   0.909   6.184 -0.4439 -0.0526  0.0695
  170SAPE   O1319191   6.247   0.826   6.150  0.0266  0.2318 -0.6004
  170SAPE   O1419192   6.147   1.056   6.168  0.3308 -0.2068  0.1074
  170SAPE   O1219193   6.003   0.872   6.094 -0.1022  0.4179  0.1013
  170SAPE   O1119194   6.080   0.878   6.328  0.5289  0.3738 -0.5775
  170SAPE    C119195   6.056   0.740   6.358  0.0720 -0.5083  0.4853
  170SAPE    HA19196   5.952   0.714   6.328  0.4486  1.1445 -2.6874
  170SAPE    HB19197   6.129   0.672   6.310 -0.1695  0.5450 -1.4731
  170SAPE    C219198   6.059   0.719   6.511  0.5365  0.4138  1.0621
  170SAPE    HS19199   5.980   0.790   6.544  0.0568  0.8986 -1.0062
  170SAPE   O2119200   6.197   0.744   6.560  0.4023  0.1224  0.2862
  170SAPE   C2119201   6.204   0.869   6.614  0.6242 -0.5597  0.1471
  170SAPE   O2219202   6.108   0.944   6.628 -0.6423 -0.1111 -0.2987
  170SAPE   C2219203   6.342   0.891   6.660  0.7101 -0.1653 -0.1584
  170SAPE   H2R19204   6.338   0.920   6.767 -0.3059 -0.8377 -0.0010
  170SAPE   H2S19205   6.398   0.795   6.654 -1.9382 -1.7329 -1.5510
  170SAPE    C319206   6.017   0.577   6.550 -1.5953 -0.0349 -0.1204
  170SAPE    HX19207   6.094   0.505   6.517  0.6171  2.4923 -0.8402
  170SAPE    HY19208   5.922   0.556   6.496 -1.9789 -1.3381  1.0131
  170SAPE   O3119209   5.992   0.563   6.691  0.0331 -0.2935 -1.1381
  170SAPE   C3119210   6.112   0.555   6.757 -0.2615 -0.5171 -0.5811
  170SAPE   O3219211   6.223   0.529   6.712  0.3748  0.1773  0.5858
  170SAPE   C3219212   6.089   0.586   6.909  0.7991  0.0604 -0.1731
  170SAPE   H2X19213   6.100   0.486   6.955 -1.2676 -0.4251 -0.6409
  170SAPE   H2Y19214   5.983   0.617   6.919  0.5977 -1.2176  2.4580
  170SAPE   C2319215   6.427   0.990   6.589 -0.1742  0.4106  0.6270
  170SAPE   H3R19216   6.373   1.081   6.555 -1.0092  0.2254  1.4274
  170SAPE   H3S19217   6.458   0.929   6.501  0.8363  0.5904  0.8454
  170SAPE   C2419218   6.560   1.018   6.668  0.3193 -0.1898 -0.3394
  170SAPE   H4R19219   6.625   1.061   6.589  1.8731 -0.1325  0.9332
  170SAPE   H4S19220   6.602   0.921   6.701  0.5928  0.3454  0.9651
  170SAPE   C2519221   6.539   1.125   6.775  0.0936 -0.3859  0.4312
  170SAPE   H5R19222   6.528   1.221   6.723  2.1491 -0.6015 -0.5341
  170SAPE   C2619223   6.531   1.110   6.909 -0.8397  0.1507  0.4326
  170SAPE   H6R19224   6.514   1.199   6.971 -1.3580  0.6879 -0.4714
  170SAPE   C2719225   6.549   0.977   6.974  0.2593  0.3422  0.0832
  170SAPE   H7R19226   6.543   0.898   6.895  0.7524  0.9148 -0.5445
  170SAPE   H7S19227   6.467   0.957   7.046  1.8646  1.2845  2.2834
  170SAPE   C2819228   6.684   0.958   7.039  0.3206 -0.7512 -0.2451
  170SAPE   H8R19229   6.758   0.928   6.964  0.7266  3.6156 -1.9180
  170SAPE   C2919230   6.723   0.991   7.161  0.7242  0.2330 -0.5532
  170SAPE   H9R19231   6.830   0.987   7.185  0.8677  1.4736 -0.9312
  170SAPE  C21019232   6.644   1.047   7.281 -0.0580  1.3030  0.6491
  170SAPE  H10R19233   6.628   0.965   7.354  0.8847  1.1021  0.6482
  170SAPE  H10S19234   6.544   1.077   7.244 -0.1516 -2.0038 -2.3322
  170SAPE  C21119235   6.715   1.165   7.346 -0.1074  0.2351 -0.1239
  170SAPE  H11R19236   6.746   1.250   7.283  2.4148  0.7886  1.7059
  170SAPE  C21219237   6.733   1.184   7.476 -0.3472  0.3412 -0.3378
  170SAPE  H12R19238   6.775   1.284   7.497 -0.0418  0.7534 -2.6789
  170SAPE  C21319239   6.682   1.095   7.585  0.3445 -0.4969 -0.4177
  170SAPE  H13R19240   6.590   1.039   7.559  0.2971  0.0185 -1.3880
  170SAPE  H13S19241   6.657   1.153   7.676  2.7525  0.4425 -0.2622
  170SAPE  C21419242   6.777   0.991   7.625 -0.4825  0.0280 -0.1038
  170SAPE  H14R19243   6.821   0.937   7.540 -2.0273  0.3274 -1.1384
  170SAPE  C21519244   6.825   0.960   7.742  0.1835 -0.3390  0.1870
  170SAPE  H15R19245   6.894   0.876   7.756  1.4846  0.9001  1.5348
  170SAPE  C21619246   6.813   1.032   7.869  0.5981  0.2766  0.1395
  170SAPE  H16R19247   6.721   1.093   7.877 -1.0291 -2.2262  1.6922
  170SAPE  H16S19248   6.896   1.106   7.871  1.1566 -0.1827 -2.1584
  170SAPE  C21719249   6.819   0.927   7.979  0.0589 -0.4564  0.9820
  170SAPE  H17R19250   6.902   0.854   7.973 -0.2497 -0.8313  1.2832
  170SAPE  H17S19251   6.722   0.875   7.976 -0.0616 -0.4350  3.2899
  170SAPE  C21819252   6.838   0.999   8.118  0.3440  0.7796  0.2851
  170SAPE  H18R19253   6.750   1.063   8.138  1.3323  2.4639 -0.6199
  170SAPE  H18S19254   6.929   1.062   8.112  0.6029  0.4686  0.8223
  170SAPE  C21919255   6.848   0.901   8.238  0.6624  0.6879  0.4050
  170SAPE  H19R19256   6.952   0.863   8.236  0.1805 -0.6529 -0.5529
  170SAPE  H19S19257   6.777   0.817   8.221 -1.5958  2.6003 -0.1457
  170SAPE  C22019258   6.816   0.969   8.373  0.2521 -0.0688 -0.1687
  170SAPE  H20R19259   6.713   1.010   8.363  0.6480  1.3006  0.9376
  170SAPE  H20S19260   6.885   1.055   8.390  0.2417 -0.2511  0.8376
  170SAPE  H20T19261   6.836   0.902   8.459 -1.1752 -0.9924 -0.5227
  170SAPE   C3319262   6.169   0.708   6.953  0.1357  0.1506 -0.0677
  170SAPE   H3X19263   6.169   0.788   6.877  1.4561  1.5260  1.2997
  170SAPE   H3Y19264   6.273   0.680   6.979  0.0054  0.9315  1.4354
  170SAPE   C3419265   6.108   0.774   7.079  0.2607 -0.7180 -0.3279
  170SAPE   H4X19266   5.998   0.790   7.076  0.3925  0.1795 -0.5147
  170SAPE   H4Y19267   6.159   0.868   7.107 -0.8539 -0.0227 -0.5867
  170SAPE   C3519268   6.128   0.684   7.204  0.0770  0.1641  0.0547
  170SAPE   H5X19269   6.237   0.680   7.223  0.1296  0.1760 -0.2517
  170SAPE   H5Y19270   6.101   0.580   7.176 -2.8262  0.8991 -0.1824
  170SAPE   C3619271   6.056   0.748   7.326 -0.1336 -0.0947 -0.1759
  170SAPE   H6X19272   5.947   0.759   7.307 -0.0430 -0.3094 -0.8426
  170SAPE   H6Y19273   6.099   0.850   7.334 -0.7445  0.1229  0.4017
  170SAPE   C3719274   6.087   0.668   7.452  0.1239 -0.1747 -0.0230
  170SAPE   H7X19275   6.197   0.660   7.463  0.2706  0.5024 -0.9154
  170SAPE   H7Y19276   6.037   0.570   7.434  0.7251 -0.3777 -0.6092
  170SAPE   C3819277   6.013   0.722   7.577  0.0281  0.5341 -0.1506
  170SAPE   H8X19278   5.909   0.681   7.581  0.8978 -1.7808  0.7736
  170SAPE   H8Y19279   5.990   0.830   7.577  0.5887  0.6715  0.9161
  170SAPE   C3919280   6.073   0.690   7.717  0.2524  0.1544 -0.1663
  170SAPE   H9X19281   6.172   0.741   7.713 -0.4348  1.6255  0.4717
  170SAPE   H9Y19282   6.081   0.581   7.734 -0.4759 -0.3144 -2.5036
  170SAPE  C31019283   5.988   0.759   7.822  0.1300  0.2405  0.4213
  170SAPE  H10X19284   5.885   0.721   7.837  0.3282 -0.3560  0.3315
  170SAPE  H10Y19285   5.977   0.865   7.792  1.1553  0.3067  0.2390
  170SAPE  C31119286   6.056   0.751   7.963  0.2155  0.2469 -0.1777
  170SAPE  H11X19287   6.166   0.767   7.964  0.3490 -0.6416  0.3768
  170SAPE  H11Y19288   6.030   0.649   7.998  2.6805 -1.7235 -3.5333
  170SAPE  C31219289   6.002   0.864   8.058  1.0375 -0.3315 -0.0250
  170SAPE  H12X19290   5.894   0.890   8.048  1.4033  2.0955  1.5543
  170SAPE  H12Y19291   6.042   0.963   8.031 -0.7210  0.5711  0.4924
  170SAPE  C31319292   6.020   0.838   8.210  0.5589  0.2141  0.4758
  170SAPE  H13X19293   5.988   0.931   8.262 -0.1736  0.2260  0.0203
  170SAPE  H13Y19294   6.127   0.814   8.225  0.3373 -0.9317  0.3309
  170SAPE  C31419295   5.933   0.721   8.255 -0.3310  0.4371 -0.2580
  170SAPE  H14X19296   5.980   0.627   8.219 -0.7983  0.6467 -1.4609
  170SAPE  H14Y19297   5.831   0.720   8.213 -0.2267 -0.4769 -0.5140
  170SAPE  C31519298   5.920   0.724   8.410 -0.3505  0.1040  0.7004
  170SAPE  H15X19299   5.879   0.826   8.425 -1.9928 -0.7270  2.2883
  170SAPE  H15Y19300   6.021   0.718   8.456  0.6823  0.8218 -1.3699
  170SAPE  C31619301   5.841   0.613   8.469 -0.5526  0.2886  0.2755
  170SAPE  H16X19302   5.884   0.516   8.435  0.8864  0.6647  0.9265
  170SAPE  H16Y19303   5.733   0.625   8.446 -0.8019  1.1444  1.7758
  170SAPE  C31719304   5.862   0.606   8.623 -0.0684 -0.1432  0.4141
  170SAPE  H17X19305   5.807   0.690   8.669  0.1760  0.3676 -0.2133
  170SAPE  H17Y19306   5.972   0.620   8.637  0.0009  1.1851 -1.1737
  170SAPE  C31819307   5.828   0.470   8.686 -0.4568 -0.5266  0.4166
  170SAPE  H18X19308   5.841   0.480   8.795  0.5033  0.5783  0.2219
  170SAPE  H18Y19309   5.887   0.386   8.645 -1.3658 -1.9352  1.8760
  170SAPE  H18Z19310   5.718   0.451   8.683 -0.7255  0.8068  1.0277
  171SAPE     N19311   1.853   2.300   6.378  0.0753 -0.1493  0.6230
  171SAPE   HN119312   1.889   2.389   6.340 -2.5962 -0.4458 -3.1781
  171SAPE   HN219313   1.859   2.297   6.482 -0.5226 -0.9498  0.6545
  171SAPE   HN319314   1.911   2.220   6.346  0.9229  0.4319  0.6912
  171SAPE   C1219315   1.720   2.282   6.315 -0.5429 -0.0126 -0.4977
  171SAPE  H12A19316   1.741   2.254   6.209  1.9313 -1.9021  0.4155
  171SAPE  H12B19317   1.662   2.376   6.303 -0.8705 -0.1295  0.1137
  171SAPE   C1119318   1.642   2.180   6.400  0.8431  0.5041 -0.0404
  171SAPE  H11A19319   1.597   2.225   6.492  0.8942  2.0208 -0.7235
  171SAPE  H11B19320   1.699   2.088   6.427 -0.1033 -0.2123 -0.4224
  171SAPE     P19321   1.404   2.217   6.280 -0.0699 -0.3327 -0.0836
  171SAPE   O1319322   1.427   2.347   6.219 -0.0367 -0.1417 -0.0362
  171SAPE   O1419323   1.312   2.123   6.208  0.3827 -0.3350  0.1912
  171SAPE   O1219324   1.540   2.142   6.301 -0.2702  0.6021 -0.2393
  171SAPE   O1119325   1.366   2.235   6.430 -0.3871  0.3784  0.1393
  171SAPE    C119326   1.285   2.133   6.498 -0.0925  0.2943 -1.0430
  171SAPE    HA19327   1.180   2.135   6.461 -0.1957  2.5224 -0.7558
  171SAPE    HB19328   1.334   2.034   6.484 -1.6245 -0.3850 -1.8199
  171SAPE    C219329   1.279   2.155   6.657 -0.3172  0.5611 -0.4086
  171SAPE    HS19330   1.211   2.081   6.705 -0.1626 -0.2020 -1.3304
  171SAPE   O2119331   1.241   2.290   6.691  0.1671 -0.1970  0.0992
  171SAPE   C2119332   1.116   2.326   6.686  0.0457 -0.0860 -0.2178
  171SAPE   O2219333   1.023   2.263   6.633  0.0106 -0.1956  0.4437
  171SAPE   C2219334   1.102   2.449   6.773  0.3829 -0.7512 -0.1275
  171SAPE   H2R19335   1.161   2.435   6.866  0.3106  0.3027  0.0832
  171SAPE   H2S19336   1.136   2.543   6.725  0.6088 -0.1826  1.1114
  171SAPE    C319337   1.424   2.118   6.714 -0.2579  0.0534  0.5861
  171SAPE    HX19338   1.485   2.190   6.656 -0.6658 -1.0020 -1.2297
  171SAPE    HY19339   1.463   2.018   6.685  1.0671  0.5400  0.6111
  171SAPE   O3119340   1.425   2.130   6.857 -0.2077 -0.6473 -0.4052
  171SAPE   C3119341   1.443   2.250   6.902  0.1955 -0.3716 -0.4743
  171SAPE   O3219342   1.450   2.356   6.841  0.2375  0.2895  0.0845
  171SAPE   C3219343   1.449   2.231   7.052 -0.4356 -0.3880  0.1300
  171SAPE   H2X19344   1.487   2.130   7.079  0.2797 -0.1566  0.0194
  171SAPE   H2Y19345   1.345   2.237   7.090 -1.5543 -0.7529 -2.6306
  171SAPE   C2319346   0.956   2.467   6.813 -0.8394 -0.3069 -0.8791
  171SAPE   H3R19347   0.886   2.449   6.729  0.3606 -1.1115 -1.7483
  171SAPE   H3S19348   0.957   2.574   6.845  1.8006  0.3466 -2.7672
  171SAPE   C2419349   0.905   2.389   6.944 -0.8197  0.4826  0.1031
  171SAPE   H4R19350   0.815   2.442   6.983 -0.2701  1.0479  0.6274
  171SAPE   H4S19351   0.975   2.406   7.029 -0.4184  1.0838 -0.3372
  171SAPE   C2519352   0.884   2.239   6.925  0.2100 -0.1080 -0.3580
  171SAPE   H5R19353   0.974   2.182   6.898 -0.4363 -1.3525  0.0238
  171SAPE   C2619354   0.769   2.172   6.932 -0.4273  0.5790 -0.0422
  171SAPE   H6R19355   0.775   2.062   6.925 -1.1169  0.3597  1.9766
  171SAPE   C2719356   0.633   2.221   6.976  0.4423  0.1494 -0.2343
  171SAPE   H7R19357   0.652   2.284   7.065  1.1944  2.4631 -1.9332
  171SAPE   H7S19358   0.581   2.131   7.015  1.1087  1.1620  3.2991
  171SAPE   C2819359   0.541   2.291   6.873  0.4126 -0.3604 -0.6416
  171SAPE   H8R19360   0.552   2.258   6.769  1.7766 -2.9093  0.2247
  171SAPE   C2919361   0.450   2.390   6.902 -0.8189  0.5163 -0.3975
  171SAPE   H9R19362   0.384   2.431   6.824  0.1222  1.5896 -0.6485
  171SAPE  C21019363   0.429   2.429   7.047 -0.6468 -0.1010 -0.0109
  171SAPE  H10R19364   0.512   2.493   7.085 -0.8774 -0.6187  1.4358
  171SAPE  H10S19365   0.443   2.343   7.116  0.0507 -0.7565 -0.9464
  171SAPE  C21119366   0.293   2.485   7.065  0.4003 -0.1247  0.0490
  171SAPE  H11R19367   0.223   2.477   6.981 -0.6143  0.0546  0.8598
  171SAPE  C21219368   0.256   2.549   7.181  0.7918  0.1773  0.4929
  171SAPE  H12R19369   0.153   2.582   7.197  1.2816  1.0899  2.0093
  171SAPE  C21319370   0.335   2.563   7.309 -0.4521 -0.1213  0.0876
  171SAPE  H13R19371   0.329   2.671   7.334  0.0640 -0.0193 -0.2100
  171SAPE  H13S19372   0.445   2.558   7.296 -0.0659  0.7839  2.5238
  171SAPE  C21419373   0.283   2.484   7.427 -0.2785  0.6552  0.0109
  171SAPE  H14R19374   0.205   2.409   7.409  1.7037 -2.0951  1.9314
  171SAPE  C21519375   0.331   2.499   7.552  0.1022  0.7353 -0.3112
  171SAPE  H15R19376   0.289   2.437   7.633  0.9774  1.5028  0.7606
  171SAPE  C21619377   0.427   2.604   7.597  0.8070  0.5692 -0.1591
  171SAPE  H16R19378   0.366   2.685   7.643  0.8030  0.0130  0.8359
  171SAPE  H16S19379   0.479   2.647   7.508  0.0079 -0.8324 -1.3497
  171SAPE  C21719380   0.528   2.556   7.704  0.1386 -0.4536  0.1327
  171SAPE  H17R19381   0.574   2.470   7.651  0.4198 -0.4677  0.3981
  171SAPE  H17S19382   0.471   2.524   7.794 -2.7884  2.4911 -0.4930
  171SAPE  C21819383   0.634   2.664   7.745 -0.6844 -0.2197  0.1494
  171SAPE  H18R19384   0.699   2.692   7.660  1.4189 -0.6277  1.5559
  171SAPE  H18S19385   0.689   2.600   7.818  0.3802 -1.5632 -1.7505
  171SAPE  C21919386   0.578   2.791   7.807 -0.2197  0.2038 -0.0448
  171SAPE  H19R19387   0.505   2.832   7.736 -1.1808 -1.8601 -0.3269
  171SAPE  H19S19388   0.658   2.868   7.813 -1.0079  1.0639 -0.3937
  171SAPE  C22019389   0.509   2.773   7.943  0.1920  0.0774 -0.4089
  171SAPE  H20R19390   0.579   2.723   8.013 -1.3202 -0.9283  0.4639
  171SAPE  H20S19391   0.420   2.709   7.927 -1.1489  1.6224  0.5199
  171SAPE  H20T19392   0.491   2.871   7.993 -2.1349 -0.0789 -0.8386
  171SAPE   C3319393   1.546   2.331   7.124 -0.4812  0.2478  0.2694
  171SAPE   H3X19394   1.509   2.435   7.124 -1.6973 -0.1664 -0.1493
  171SAPE   H3Y19395   1.645   2.334   7.074  0.0782  0.5895  1.3561
  171SAPE   C3419396   1.582   2.280   7.260 -0.4710  0.1983 -0.0904
  171SAPE   H4X19397   1.558   2.172   7.271 -1.4841  0.1812 -2.0667
  171SAPE   H4Y19398   1.528   2.338   7.338  0.6079 -0.3443  1.1080
  171SAPE   C3519399   1.735   2.280   7.284  0.4030  0.3402  0.1087
  171SAPE   H5X19400   1.774   2.383   7.272  2.0006 -0.3893 -1.4037
  171SAPE   H5Y19401   1.792   2.221   7.210  2.5903  0.8746  1.2770
  171SAPE   C3619402   1.780   2.225   7.418  0.3338 -0.1167  0.2447
  171SAPE   H6X19403   1.888   2.244   7.435  0.4181 -0.8738  0.5678
  171SAPE   H6Y19404   1.759   2.116   7.423 -2.2926  0.3031 -0.0896
  171SAPE   C3719405   1.715   2.290   7.539 -0.3496 -0.1355  0.2063
  171SAPE   H7X19406   1.604   2.279   7.541 -0.2746 -0.8441  0.5773
  171SAPE   H7Y19407   1.742   2.398   7.531  0.4531 -0.3815 -0.6048
  171SAPE   C3819408   1.783   2.234   7.665  0.0199  1.1139  0.4608
  171SAPE   H8X19409   1.891   2.261   7.663  0.0643  1.0271  1.3501
  171SAPE   H8Y19410   1.785   2.123   7.660  3.1776  1.1291 -1.3417
  171SAPE   C3919411   1.739   2.294   7.799  0.2416  0.0337  0.5366
  171SAPE   H9X19412   1.628   2.293   7.797  0.2186  0.9534  0.6276
  171SAPE   H9Y19413   1.759   2.402   7.782  0.5323  0.1376  1.5084
  171SAPE  C31019414   1.808   2.243   7.923  0.1373 -0.0065 -0.1888
  171SAPE  H10X19415   1.918   2.257   7.925  0.0809  0.5143 -0.4437
  171SAPE  H10Y19416   1.795   2.134   7.937  0.9372  0.1320  2.0728
  171SAPE  C31119417   1.764   2.324   8.049 -0.4500  0.4224  0.4148
  171SAPE  H11X19418   1.789   2.431   8.033  1.5571 -0.3424 -2.3010
  171SAPE  H11Y19419   1.823   2.302   8.141 -1.4398 -0.3321  0.8884
  171SAPE  C31219420   1.613   2.299   8.077  0.0685  0.6791  0.3518
  171SAPE  H12X19421   1.611   2.194   8.113  1.5669  0.4476 -0.1495
  171SAPE  H12Y19422   1.545   2.291   7.990  1.0267 -0.3163 -0.3406
  171SAPE  C31319423   1.555   2.404   8.169 -0.0004  0.3671 -1.0019
  171SAPE  H13X19424   1.447   2.383   8.188  0.2913 -0.3706 -0.1216
  171SAPE  H13Y19425   1.552   2.507   8.127 -1.2056  0.2513 -1.2476
  171SAPE  C31419426   1.618   2.410   8.308  0.3097  0.3575  0.1714
  171SAPE  H14X19427   1.570   2.499   8.355  1.7229  0.7102  0.9966
  171SAPE  H14Y19428   1.721   2.447   8.290 -0.6878  1.8733 -3.0544
  171SAPE  C31519429   1.626   2.277   8.391  0.4803  0.0951  0.3639
  171SAPE  H15X19430   1.680   2.204   8.327 -0.6822  0.5743 -1.2483
  171SAPE  H15Y19431   1.524   2.240   8.416  1.3180 -1.0743  2.2102
  171SAPE  C31619432   1.715   2.281   8.515 -0.5649  0.0809  0.3527
  171SAPE  H16X19433   1.803   2.348   8.501 -0.2273 -0.2532  0.8272
  171SAPE  H16Y19434   1.754   2.182   8.544  0.4769  0.7529  1.3400
  171SAPE  C31719435   1.636   2.339   8.637  0.0960  0.0542 -0.1936
  171SAPE  H17X19436   1.560   2.265   8.670 -3.1707  3.1388 -0.2347
  171SAPE  H17Y19437   1.573   2.425   8.606 -1.2132 -0.9886 -0.4785
  171SAPE  C31819438   1.722   2.379   8.757  0.0540 -0.5149  0.2166
  171SAPE  H18X19439   1.795   2.459   8.731  0.4077 -0.7569  0.4559
  171SAPE  H18Y19440   1.777   2.293   8.801  1.7614 -1.0419 -2.6264
  171SAPE  H18Z19441   1.673   2.424   8.845  1.8825 -1.1073  1.6064
  172SAPE     N19442   0.127   0.077   6.201 -0.3080  0.1801 -0.6809
  172SAPE   HN119443   0.135   0.012   6.120  0.2311 -1.0664  0.3528
  172SAPE   HN219444   0.029   0.107   6.219 -0.2064 -1.3885  3.4037
  172SAPE   HN319445   0.184   0.164   6.193  1.1093 -0.8093 -2.0426
  172SAPE   C1219446   0.198   0.021   6.324 -0.5426  0.2828  0.0350
  172SAPE  H12A19447   0.118   0.003   6.400  0.0487 -0.7844  0.4240
  172SAPE  H12B19448   0.266   0.100   6.363  0.8860 -0.3069 -1.1897
  172SAPE   C1119449   0.269  -0.119   6.311  1.0051 -0.1893 -0.0970
  172SAPE  H11A19450   0.196  -0.165   6.241  0.8970 -0.2735  0.0699
  172SAPE  H11B19451   0.264  -0.178   6.405  2.1651  0.5970  0.4787
  172SAPE     P19452   0.530  -0.148   6.324 -0.0406  0.3529  0.3259
  172SAPE   O1319453   0.527  -0.296   6.341  0.1808  0.3155 -0.3709
  172SAPE   O1419454   0.646  -0.105   6.245 -0.6778  0.0997  0.7392
  172SAPE   O1219455   0.398  -0.105   6.249 -0.2351 -0.2507 -0.2545
  172SAPE   O1119456   0.523  -0.090   6.472  0.2765 -0.4254 -0.0764
  172SAPE    C119457   0.604   0.027   6.487 -0.7378 -0.2837 -0.6124
  172SAPE    HA19458   0.712   0.000   6.488 -1.1292 -2.0059  0.8788
  172SAPE    HB19459   0.579   0.109   6.416 -0.4790 -0.5457 -1.0134
  172SAPE    C219460   0.592   0.079   6.637 -0.3566  0.1603 -0.5562
  172SAPE    HS19461   0.648   0.174   6.634  0.0432 -0.0201  0.6343
  172SAPE   O2119462   0.638  -0.023   6.730  0.1517 -0.1032  0.0563
  172SAPE   C2119463   0.718   0.030   6.823  0.0320  0.8318  0.0796
  172SAPE   O2219464   0.761   0.143   6.825  0.2088 -0.2008  0.1740
  172SAPE   C2219465   0.755  -0.076   6.929 -0.7973  0.5141 -0.4966
  172SAPE   H2R19466   0.762  -0.178   6.885  0.3463  1.3421 -2.3905
  172SAPE   H2S19467   0.852  -0.048   6.976  0.1375 -2.0079 -0.7771
  172SAPE    C319468   0.443   0.118   6.655 -0.2331  0.4697  0.2234
  172SAPE    HX19469   0.377   0.045   6.604 -2.0906  1.7063  0.7674
  172SAPE    HY19470   0.434   0.218   6.607 -0.1100  0.9104  1.1092
  172SAPE   O3119471   0.414   0.143   6.797 -0.2866 -0.4297  0.5676
  172SAPE   C3119472   0.356   0.040   6.866  0.3514 -0.2821 -0.2472
  172SAPE   O3219473   0.348  -0.077   6.832  0.1545 -0.0217  0.0644
  172SAPE   C3219474   0.297   0.090   6.993 -1.1838 -0.5150 -0.2555
  172SAPE   H2X19475   0.243   0.180   6.956  0.2540  0.9008  0.9108
  172SAPE   H2Y19476   0.381   0.112   7.062 -1.9038 -0.6975  0.7033
  172SAPE   C2319477   0.662  -0.070   7.056  0.0358 -0.7159  0.3309
  172SAPE   H3R19478   0.685  -0.160   7.117  2.5751 -0.6734 -0.4219
  172SAPE   H3S19479   0.556  -0.085   7.028 -0.5089 -0.6125  2.2523
  172SAPE   C2419480   0.683   0.054   7.140  0.5130  0.1590  0.1917
  172SAPE   H4R19481   0.597   0.066   7.209  0.4183 -2.9045  0.7878
  172SAPE   H4S19482   0.696   0.143   7.075  0.1036  2.1975  2.7283
  172SAPE   C2519483   0.811   0.038   7.224  0.3754 -0.4147  0.6436
  172SAPE   H5R19484   0.900   0.059   7.163  0.3350  1.4153  1.1337
  172SAPE   C2619485   0.819   0.035   7.357 -0.7162 -0.1660  0.4978
  172SAPE   H6R19486   0.919   0.020   7.399 -0.6437 -2.2114 -0.3119
  172SAPE   C2719487   0.715   0.025   7.475  0.6337 -0.0485  0.1984
  172SAPE   H7R19488   0.625   0.055   7.418  0.6527 -1.6629 -0.7435
  172SAPE   H7S19489   0.723   0.103   7.554 -0.9847 -1.1483  1.5159
  172SAPE   C2819490   0.699  -0.119   7.523 -0.7292 -0.2974 -0.6597
  172SAPE   H8R19491   0.707  -0.195   7.445 -0.0800  0.6796 -1.5805
  172SAPE   C2919492   0.697  -0.156   7.656  0.1133 -0.4585  0.5481
  172SAPE   H9R19493   0.706  -0.264   7.676  2.5250 -0.4005  0.1119
  172SAPE  C21019494   0.707  -0.065   7.777 -0.0430 -0.9785 -0.9171
  172SAPE  H10R19495   0.613  -0.071   7.837  1.3919 -1.0040  1.4371
  172SAPE  H10S19496   0.709   0.045   7.760 -1.7445 -0.9385 -1.0327
  172SAPE  C21119497   0.817  -0.093   7.874  0.3090  0.0231  0.4298
  172SAPE  H11R19498   0.917  -0.095   7.829  0.3619  0.6585  0.5189
  172SAPE  C21219499   0.800  -0.121   8.006 -0.0425  0.7163 -0.2011
  172SAPE  H12R19500   0.891  -0.125   8.068  0.1086  0.2929 -0.4517
  172SAPE  C21319501   0.668  -0.140   8.083 -0.0139 -0.4309  0.1262
  172SAPE  H13R19502   0.687  -0.206   8.170 -3.7837 -1.3094  0.4703
  172SAPE  H13S19503   0.606  -0.204   8.017  0.7361 -0.9804 -0.0651
  172SAPE  C21419504   0.602  -0.007   8.117 -0.3740  0.4347  1.1276
  172SAPE  H14R19505   0.513   0.024   8.061  0.8762 -0.6504 -1.6413
  172SAPE  C21519506   0.645   0.069   8.222  0.1092 -0.3432 -0.4063
  172SAPE  H15R19507   0.590   0.163   8.237 -1.0598 -1.1402  0.4765
  172SAPE  C21619508   0.755   0.043   8.322 -0.7657  0.2788 -0.2189
  172SAPE  H16R19509   0.843   0.110   8.317  0.7559 -1.6675 -0.3391
  172SAPE  H16S19510   0.807  -0.050   8.295  0.4977  0.4128  1.5818
  172SAPE  C21719511   0.715   0.039   8.468  0.3939  0.2944 -0.2098
  172SAPE  H17R19512   0.690   0.137   8.513  0.8412 -0.2553  1.2784
  172SAPE  H17S19513   0.805  -0.001   8.520 -1.1197 -1.4725  1.1903
  172SAPE  C21819514   0.579  -0.040   8.492 -0.8877  0.1545 -0.3623
  172SAPE  H18R19515   0.601  -0.143   8.457 -0.1412  0.2541 -0.2045
  172SAPE  H18S19516   0.491   0.004   8.442 -0.9173  0.3950 -0.1006
  172SAPE  C21919517   0.549  -0.038   8.643  0.0228 -0.4231  0.2701
  172SAPE  H19R19518   0.557   0.058   8.698 -1.3757  0.7894 -1.5064
  172SAPE  H19S19519   0.626  -0.106   8.685  0.7999  0.2511 -0.0401
  172SAPE  C22019520   0.413  -0.097   8.683  0.4881 -0.0338  0.1711
  172SAPE  H20R19521   0.335  -0.024   8.654  0.2733  0.5977  2.1765
  172SAPE  H20S19522   0.401  -0.114   8.792  1.1481  1.5234  0.5097
  172SAPE  H20T19523   0.400  -0.188   8.621 -1.2910  1.4422 -1.7651
  172SAPE   C3319524   0.197  -0.013   7.047  0.6857 -0.0462  0.4837
  172SAPE   H3X19525   0.253  -0.109   7.047 -0.5444 -0.7839  0.9040
  172SAPE   H3Y19526   0.107  -0.009   6.982  1.9058  2.4385 -1.2019
  172SAPE   C3419527   0.168  -0.000   7.197 -0.5487 -0.1692  0.3278
  172SAPE   H4X19528   0.096  -0.082   7.219 -1.1223  0.0667 -0.6396
  172SAPE   H4Y19529   0.116   0.098   7.207  1.3565  0.8971  0.2086
  172SAPE   C3519530   0.293  -0.020   7.287  0.1032  0.4543 -0.3476
  172SAPE   H5X19531   0.346   0.078   7.292 -1.2548  1.2179 -0.4595
  172SAPE   H5Y19532   0.357  -0.102   7.249 -0.2352  0.0944 -0.1475
  172SAPE   C3619533   0.264  -0.044   7.429 -0.3166 -0.2116  0.4251
  172SAPE   H6X19534   0.216   0.049   7.467  1.1354  0.5325  0.4847
  172SAPE   H6Y19535   0.360  -0.048   7.485 -0.9103 -2.2814  1.4161
  172SAPE   C3719536   0.176  -0.162   7.466  0.2754  0.5217  0.8607
  172SAPE   H7X19537   0.203  -0.257   7.415 -1.3544  0.0759  0.7616
  172SAPE   H7Y19538   0.073  -0.150   7.426  0.9777  0.2075 -1.1350
  172SAPE   C3819539   0.159  -0.180   7.618 -0.2496  0.1528  0.5606
  172SAPE   H8X19540   0.142  -0.081   7.666  0.5836  0.3744  0.4215
  172SAPE   H8Y19541   0.262  -0.213   7.643 -0.3542 -0.6204  0.0275
  172SAPE   C3919542   0.072  -0.297   7.669 -0.3297 -0.4093  0.0818
  172SAPE   H9X19543   0.101  -0.385   7.607  0.4276 -0.1267  0.0279
  172SAPE   H9Y19544  -0.037  -0.286   7.651  0.2353  3.4675 -1.8940
  172SAPE  C31019545   0.102  -0.331   7.820  0.3568 -0.4731  0.1924
  172SAPE  H10X19546   0.207  -0.363   7.839 -0.5248 -3.0465  1.1428
  172SAPE  H10Y19547   0.032  -0.416   7.834 -2.0332  1.3800  0.0774
  172SAPE  C31119548   0.064  -0.225   7.926  0.1809  0.7837 -0.8363
  172SAPE  H11X19549  -0.035  -0.182   7.901 -0.6664 -0.4999  0.2030
  172SAPE  H11Y19550   0.132  -0.137   7.927  3.6635 -1.6478  1.6716
  172SAPE  C31219551   0.072  -0.289   8.063  0.2148 -0.3415 -1.0301
  172SAPE  H12X19552   0.177  -0.309   8.095 -0.9752 -2.8413  1.8712
  172SAPE  H12Y19553   0.028  -0.392   8.063 -0.4526 -0.0711  0.2384
  172SAPE  C31319554  -0.003  -0.212   8.183 -0.1013 -0.6883 -0.1091
  172SAPE  H13X19555   0.004  -0.281   8.270 -2.9743  0.8470  1.4900
  172SAPE  H13Y19556  -0.106  -0.196   8.145 -0.2543 -1.4461 -0.0292
  172SAPE  C31419557   0.043  -0.067   8.211 -0.3772 -0.5235 -0.7256
  172SAPE  H14X19558   0.021   0.004   8.128  2.7464 -0.2982 -1.4674
  172SAPE  H14Y19559   0.154  -0.071   8.213 -0.2072  2.3739  0.9245
  172SAPE  C31519560  -0.011  -0.010   8.337  0.2348  0.8764  0.2264
  172SAPE  H15X19561   0.048  -0.069   8.410  1.5138  0.1468 -1.3284
  172SAPE  H15Y19562  -0.117  -0.041   8.346  0.8877 -1.1682  1.5265
  172SAPE  C31619563   0.006   0.140   8.367 -0.5906  0.0945 -0.0941
  172SAPE  H16X19564   0.112   0.170   8.368 -0.7438  0.6204  0.4757
  172SAPE  H16Y19565  -0.040   0.143   8.468 -1.9165 -0.4067 -0.6604
  172SAPE  C31719566  -0.055   0.228   8.260  0.2936  0.4528  0.7325
  172SAPE  H17X19567  -0.152   0.185   8.226  0.9423  0.0691 -0.7024
  172SAPE  H17Y19568   0.016   0.209   8.177 -1.3429 -0.1333 -0.5764
  172SAPE  C31819569  -0.062   0.375   8.301  0.6533 -0.8648  0.3360
  172SAPE  H18X19570   0.036   0.416   8.334 -0.6718  2.6192  0.3283
  172SAPE  H18Y19571  -0.137   0.401   8.379 -0.3181 -1.2079 -0.4593
  172SAPE  H18Z19572  -0.090   0.432   8.210 -1.0574 -1.7094  0.2913
  173SOPE     N19573   6.189   6.359  11.026  0.5145  0.1103 -0.0510
  173SOPE   HN119574   6.266   6.306  10.980  0.4403 -1.3091  1.3384
  173SOPE   HN219575   6.193   6.454  10.985  2.2455  0.5976  1.1007
  173SOPE   HN319576   6.196   6.360  11.130  1.3655  1.2269 -0.0978
  173SOPE   C1219577   6.063   6.293  10.988  0.1045  0.0239 -0.4156
  173SOPE  H12A19578   6.052   6.302  10.878  1.2514  1.1312 -0.4733
  173SOPE  H12B19579   5.981   6.342  11.044 -0.8948 -1.1095 -0.8619
  173SOPE   C1119580   6.075   6.142  11.034 -0.2941 -0.6436  0.5353
  173SOPE  H11A19581   5.977   6.092  11.018 -0.5490 -0.1012  0.3578
  173SOPE  H11B19582   6.090   6.145  11.144 -1.3026  0.9405  0.6601
  173SOPE     P19583   6.266   5.970  11.023 -0.4603  0.2428  0.2982
  173SOPE   O1319584   6.179   5.851  11.055  0.8189  0.2211 -0.7350
  173SOPE   O1419585   6.327   6.034  11.137  0.1303  0.0419  0.1163
  173SOPE   O1219586   6.186   6.081  10.953 -0.1545 -0.0654  0.7268
  173SOPE   O1119587   6.385   5.923  10.925 -0.7616 -0.1043 -0.5088
  173SOPE    C119588   6.360   5.867  10.792 -1.0596 -0.1758  0.2611
  173SOPE    HA19589   6.274   5.798  10.788 -1.4364  0.2553  0.7774
  173SOPE    HB19590   6.446   5.799  10.775 -0.8414  0.0997  0.2487
  173SOPE    C219591   6.360   5.972  10.679  0.5812 -0.2045  0.2567
  173SOPE    HS19592   6.256   6.009  10.674  0.3505 -0.3622  2.5827
  173SOPE   O2119593   6.411   5.919  10.552 -0.4662  0.8321  0.8746
  173SOPE   C2119594   6.322   5.872  10.470  0.3103  0.1661  0.0732
  173SOPE   O2219595   6.201   5.859  10.495 -0.2459  0.0812  0.0472
  173SOPE   C2219596   6.392   5.820  10.339  0.7643 -0.0503  0.1200
  173SOPE   H2R19597   6.471   5.751  10.376  0.1812 -0.0178  1.4698
  173SOPE   H2S19598   6.424   5.916  10.293 -1.9858  0.4751 -0.9036
  173SOPE    C319599   6.447   6.087  10.707 -0.2054 -0.0858  0.3932
  173SOPE    HX19600   6.549   6.043  10.718 -0.4398 -1.8433 -3.0560
  173SOPE    HY19601   6.418   6.145  10.797  0.8218  0.0406  0.6604
  173SOPE   O3119602   6.442   6.172  10.587  0.3158  0.5950 -0.4187
  173SOPE   C3119603   6.544   6.255  10.566  0.7900 -0.2299 -0.4913
  173SOPE   O3219604   6.634   6.283  10.641 -0.6177 -0.0100  0.2005
  173SOPE   C3219605   6.529   6.289  10.424  0.2669  0.7204  0.2886
  173SOPE   H2X19606   6.565   6.394  10.422  2.5942  0.0606  2.2338
  173SOPE   H2Y19607   6.423   6.275  10.397  0.9052  0.6716 -2.5524
  173SOPE   C2319608   6.304   5.735  10.245 -0.1022 -0.0121  0.1346
  173SOPE   H3R19609   6.216   5.796  10.215  0.6338  1.9962  1.8331
  173SOPE   H3S19610   6.268   5.644  10.299 -1.1942  1.1112  1.4049
  173SOPE   C2419611   6.389   5.686  10.120 -0.0977 -0.7008  0.4406
  173SOPE   H4R19612   6.445   5.592  10.136 -0.0469 -0.6449  0.5864
  173SOPE   H4S19613   6.310   5.662  10.044  0.4977 -0.3015 -0.3232
  173SOPE   C2519614   6.468   5.807  10.064  0.2280  0.0436  0.1792
  173SOPE   H5R19615   6.408   5.899  10.050 -0.0653  0.5173  3.5922
  173SOPE   H5S19616   6.546   5.843  10.135 -1.3770 -1.6108  2.9665
  173SOPE   C2619617   6.535   5.763   9.933  0.6380 -0.7975 -0.5466
  173SOPE   H6R19618   6.571   5.658   9.937  0.1606 -0.9487 -0.1287
  173SOPE   H6S19619   6.456   5.756   9.855 -0.1122 -2.0276  0.2856
  173SOPE   C2719620   6.630   5.868   9.894 -0.6607  0.4226  0.8484
  173SOPE   H7R19621   6.572   5.962   9.907 -2.4790 -0.6231  0.6369
  173SOPE   H7S19622   6.716   5.867   9.965 -0.0700  0.5252  0.1408
  173SOPE   C2819623   6.670   5.873   9.739  0.0621  0.0720 -0.0993
  173SOPE   H8R19624   6.578   5.869   9.677 -0.3306  1.2982  0.3547
  173SOPE   H8S19625   6.709   5.977   9.730  1.3594  0.0261  3.4075
  173SOPE   C2919626   6.771   5.773   9.701  0.9316  0.1924 -0.8507
  173SOPE   H9119627   6.839   5.744   9.782 -0.1006 -0.3306 -0.1432
  173SOPE  C21019628   6.777   5.715   9.583 -0.3620 -0.0867  0.6284
  173SOPE  H10119629   6.854   5.640   9.559 -2.0111 -0.5751 -4.1478
  173SOPE  C21119630   6.687   5.743   9.460  0.0106  0.6058 -0.2437
  173SOPE  H11R19631   6.701   5.841   9.410 -1.8880  2.2961  2.2814
  173SOPE  H11S19632   6.578   5.734   9.482  0.6727 -0.8087  2.9952
  173SOPE  C21219633   6.717   5.637   9.351 -0.5020  0.1969 -0.0114
  173SOPE  H12R19634   6.635   5.651   9.278 -1.7620  1.7256  1.6259
  173SOPE  H12S19635   6.715   5.540   9.405 -0.4113  0.8052  1.1109
  173SOPE  C21319636   6.855   5.650   9.272  0.4549 -0.2950  0.1834
  173SOPE  H13R19637   6.888   5.550   9.239  3.0446  1.0257 -1.5606
  173SOPE  H13S19638   6.922   5.691   9.351  0.4524  0.0335  0.0164
  173SOPE  C21419639   6.835   5.749   9.154 -0.0470 -0.1158  1.0750
  173SOPE  H14R19640   6.803   5.850   9.187  1.2389 -0.2941  3.0633
  173SOPE  H14S19641   6.759   5.707   9.084  0.2257  2.3265 -0.8173
  173SOPE  C21519642   6.963   5.778   9.070 -0.4610 -0.8665  0.2341
  173SOPE  H15R19643   6.943   5.791   8.961  2.0336 -0.2564 -0.2298
  173SOPE  H15S19644   7.048   5.706   9.074  0.3260 -0.1168 -1.6195
  173SOPE  C21619645   7.038   5.905   9.123 -0.5576 -0.4738 -0.0427
  173SOPE  H16R19646   7.041   5.908   9.235 -1.8050 -0.7470  0.0104
  173SOPE  H16S19647   6.975   5.991   9.094 -0.8967 -0.8719 -0.4784
  173SOPE  C21719648   7.173   5.937   9.051  0.1747 -0.4648 -0.2944
  173SOPE  H17R19649   7.155   5.966   8.945 -0.5159  2.0219  0.4263
  173SOPE  H17S19650   7.226   5.840   9.056 -1.0453 -1.0996  2.0700
  173SOPE  C21819651   7.239   6.052   9.126 -0.1767  0.5776  0.7931
  173SOPE  H18R19652   7.205   6.149   9.085  0.5677  0.7740  0.6166
  173SOPE  H18S19653   7.351   6.052   9.122 -0.1013 -2.5381  0.1987
  173SOPE  H18T19654   7.208   6.057   9.233 -1.3925  1.3047  0.4255
  173SOPE   C3319655   6.623   6.211  10.333 -0.1529 -0.1874 -0.6479
  173SOPE   H3X19656   6.614   6.100  10.332 -0.8227 -0.1335 -1.4730
  173SOPE   H3Y19657   6.723   6.246  10.365 -0.7592  1.0437 -0.0129
  173SOPE   C3419658   6.603   6.254  10.185  0.0384  0.7153 -0.8175
  173SOPE   H4X19659   6.660   6.175  10.132 -0.8019 -0.9689  0.6802
  173SOPE   H4Y19660   6.648   6.356  10.178  1.2391  0.1442 -1.5308
  173SOPE   C3519661   6.461   6.241  10.125  0.3254  0.0435 -0.2481
  173SOPE   H5X19662   6.393   6.311  10.179  0.8679  0.3566  0.0400
  173SOPE   H5Y19663   6.417   6.140  10.138  3.6003 -1.4289  0.4550
  173SOPE   C3619664   6.464   6.265   9.970 -0.8306 -0.4120 -0.7560
  173SOPE   H6X19665   6.545   6.211   9.916  0.7502  1.3637 -0.2544
  173SOPE   H6Y19666   6.482   6.374   9.965 -0.8826 -0.3397  0.3641
  173SOPE   C3719667   6.336   6.235   9.905  0.1789  0.5909 -0.0705
  173SOPE   H7X19668   6.257   6.298   9.952  0.5919  0.5843  0.6492
  173SOPE   H7Y19669   6.310   6.129   9.928  0.6584  0.6421  0.7552
  173SOPE   C3819670   6.337   6.247   9.752  0.0362  0.0747 -0.6478
  173SOPE   H8X19671   6.389   6.343   9.731 -1.2322  0.9839  0.2129
  173SOPE   H8Y19672   6.230   6.246   9.722 -0.0741 -0.2435 -0.2519
  173SOPE   C3919673   6.401   6.129   9.681 -0.0711  0.9640 -0.7840
  173SOPE   H9X19674   6.352   6.031   9.700 -2.2220  2.1562  0.2336
  173SOPE   H9Y19675   6.502   6.110   9.723 -0.8673 -1.0214  0.3466
  173SOPE  C31019676   6.416   6.154   9.530 -0.1325 -0.8111  0.0143
  173SOPE  H10X19677   6.468   6.251   9.515  0.9433 -1.5695 -1.2620
  173SOPE  H10Y19678   6.313   6.178   9.496 -0.8957 -1.9737  1.4045
  173SOPE  C31119679   6.484   6.043   9.453 -0.4851 -0.2960  0.2226
  173SOPE  H11X19680   6.439   5.943   9.471 -0.3122 -0.2467  0.9434
  173SOPE  H11Y19681   6.588   6.037   9.491 -0.6372 -0.4641  0.6133
  173SOPE  C31219682   6.484   6.059   9.304  0.0826 -0.1360 -0.1707
  173SOPE  H12X19683   6.590   6.064   9.272  1.3805  0.2848  3.7323
  173SOPE  H12Y19684   6.437   6.154   9.271  1.1853 -0.1020 -1.7939
  173SOPE  C31319685   6.423   5.938   9.235  0.1348  0.0353  0.8546
  173SOPE  H13X19686   6.313   5.943   9.252 -0.0873  0.1994 -0.5181
  173SOPE  H13Y19687   6.452   5.834   9.262  0.4256 -0.0622  0.2007
  173SOPE  C31419688   6.456   5.944   9.079 -0.0627 -0.3746  0.7561
  173SOPE  H14X19689   6.566   5.953   9.079 -0.1655  1.1787  1.5027
  173SOPE  H14Y19690   6.416   6.040   9.040  2.0971  0.0130 -0.6327
  173SOPE  C31519691   6.406   5.829   8.989 -0.2300 -0.4495 -0.4949
  173SOPE  H15X19692   6.442   5.734   9.033 -0.2182  1.1818  3.3210
  173SOPE  H15Y19693   6.462   5.854   8.896 -0.7718  0.4792 -0.5831
  173SOPE  C31619694   6.257   5.822   8.949  0.0763  0.5535 -0.2177
  173SOPE  H16X19695   6.192   5.842   9.038 -1.8352 -1.2255 -1.1191
  173SOPE  H16Y19696   6.238   5.716   8.919  0.2094  0.5088 -0.1444
  173SOPE  C31719697   6.218   5.921   8.836  0.0865  0.3476 -0.5626
  173SOPE  H17X19698   6.249   5.878   8.738  1.0874 -0.5806  0.1430
  173SOPE  H17Y19699   6.273   6.017   8.842 -0.0996  0.6065 -2.2411
  173SOPE  C31819700   6.071   5.954   8.840  0.4372 -0.1259 -0.0824
  173SOPE  H18X19701   6.010   5.865   8.867  1.2104 -0.4070  0.8085
  173SOPE  H18Y19702   6.055   5.990   8.736  0.1349 -0.0604 -0.0141
  173SOPE  H18Z19703   6.065   6.029   8.922  1.2951  0.1486 -0.2603
  174SOPE     N19704   5.990   5.237  11.095 -0.5343 -0.3483  0.4304
  174SOPE   HN119705   6.092   5.222  11.113 -0.7373  0.9624  3.3199
  174SOPE   HN219706   5.951   5.228  11.191  0.5922 -3.0983  0.7237
  174SOPE   HN319707   5.968   5.154  11.037 -0.8184 -1.4139  1.9952
  174SOPE   C1219708   5.969   5.362  11.015  0.4626  0.1959 -0.1393
  174SOPE  H12A19709   6.035   5.358  10.926  0.2466  1.7123 -0.3883
  174SOPE  H12B19710   6.006   5.446  11.077  0.6356  0.2762 -0.3518
  174SOPE   C1119711   5.821   5.398  10.982 -0.7880  0.2032 -0.5550
  174SOPE  H11A19712   5.821   5.483  10.910  0.3022 -0.9634 -1.9912
  174SOPE  H11B19713   5.783   5.439  11.078 -0.3386 -1.1608  0.2235
  174SOPE     P19714   5.705   5.269  10.788 -0.1656 -0.0382 -0.4694
  174SOPE   O1319715   5.583   5.192  10.772 -0.5826 -0.2592 -0.1636
  174SOPE   O1419716   5.819   5.214  10.712  0.1101 -0.5147  0.2705
  174SOPE   O1219717   5.748   5.284  10.939 -0.2796  0.4102 -0.2111
  174SOPE   O1119718   5.681   5.416  10.744 -0.0652  0.2621 -0.4157
  174SOPE    C119719   5.745   5.497  10.638 -0.1297 -0.3778 -0.3080
  174SOPE    HA19720   5.815   5.440  10.574  0.5696  1.7928 -1.5993
  174SOPE    HB19721   5.814   5.569  10.688 -1.3230 -0.3690  1.4133
  174SOPE    C219722   5.636   5.556  10.547  0.1926 -0.0209 -0.7242
  174SOPE    HS19723   5.567   5.623  10.603  0.0504 -0.2068 -0.6781
  174SOPE   O2119724   5.559   5.444  10.502  0.0781 -0.4527 -0.2291
  174SOPE   C2119725   5.455   5.472  10.431  0.0541  0.0887 -0.0240
  174SOPE   O2219726   5.402   5.580  10.409 -0.0371  0.1274  0.0879
  174SOPE   C2219727   5.423   5.349  10.347  0.0165 -0.1495  0.1783
  174SOPE   H2R19728   5.322   5.376  10.308  0.1333 -2.4098 -1.9186
  174SOPE   H2S19729   5.419   5.254  10.404  2.5211 -0.7126 -0.4994
  174SOPE    C319730   5.696   5.637  10.430 -0.3133  0.0499 -0.0350
  174SOPE    HX19731   5.762   5.720  10.464 -0.2470  0.0812 -0.2396
  174SOPE    HY19732   5.613   5.694  10.384  0.7909  1.7466 -0.0372
  174SOPE   O3119733   5.751   5.545  10.340 -0.1300 -0.8815 -0.0509
  174SOPE   C3119734   5.877   5.545  10.322 -0.1641 -0.0057 -0.2092
  174SOPE   O3219735   5.961   5.619  10.376 -0.9068  0.4311  0.1300
  174SOPE   C3219736   5.918   5.430  10.238 -0.3072 -0.0565  0.2055
  174SOPE   H2X19737   5.834   5.358  10.222  0.1155 -0.6386  0.5733
  174SOPE   H2Y19738   5.979   5.370  10.308  3.2168  0.9166 -1.8042
  174SOPE   C2319739   5.529   5.333  10.234 -0.0629 -0.0684  0.4725
  174SOPE   H3R19740   5.516   5.236  10.182  1.2392 -0.6056  1.0986
  174SOPE   H3S19741   5.631   5.343  10.276 -0.1498  1.2844  0.3891
  174SOPE   C2419742   5.513   5.441  10.121 -0.3175  0.1945 -0.0160
  174SOPE   H4R19743   5.413   5.424  10.076  1.2035 -0.6880 -3.3793
  174SOPE   H4S19744   5.535   5.542  10.161  2.9335  0.1222 -1.2661
  174SOPE   C2519745   5.606   5.407  10.005  0.7258 -0.0763 -0.2457
  174SOPE   H5R19746   5.619   5.495   9.939 -0.9705 -0.5877 -1.3303
  174SOPE   H5S19747   5.713   5.396  10.033  0.9715  1.7674 -0.3140
  174SOPE   C2619748   5.571   5.293   9.911 -0.5573  0.5790  0.6047
  174SOPE   H6R19749   5.662   5.290   9.846 -1.7794  2.0739 -1.2896
  174SOPE   H6S19750   5.572   5.203   9.977  0.5439  0.0094 -0.1469
  174SOPE   C2719751   5.439   5.320   9.831  0.9285 -0.8002  0.4342
  174SOPE   H7R19752   5.348   5.323   9.896  0.8808  2.6525  0.3839
  174SOPE   H7S19753   5.452   5.419   9.784 -0.4164 -1.3641 -1.2446
  174SOPE   C2819754   5.409   5.225   9.718  0.9500  0.2760  0.1965
  174SOPE   H8R19755   5.319   5.272   9.675  0.0671  0.8745  2.5437
  174SOPE   H8S19756   5.501   5.235   9.655  0.8141  2.2143  0.2350
  174SOPE   C2919757   5.381   5.086   9.767 -0.1986  1.2005  0.1176
  174SOPE   H9119758   5.435   5.046   9.855  0.2764 -1.4212 -1.2701
  174SOPE  C21019759   5.290   4.998   9.728  0.1483 -0.0039  0.2337
  174SOPE  H10119760   5.279   4.895   9.766 -2.7519 -1.1909 -3.1519
  174SOPE  C21119761   5.196   5.010   9.611 -0.2102  0.1976  0.4035
  174SOPE  H11R19762   5.152   5.112   9.625  0.5273  0.4607  0.8469
  174SOPE  H11S19763   5.115   4.935   9.625 -0.3897  0.5527  1.3675
  174SOPE  C21219764   5.252   4.993   9.468  0.0557 -0.8396 -0.2466
  174SOPE  H12R19765   5.293   4.889   9.467 -1.9609 -1.7605  2.1416
  174SOPE  H12S19766   5.334   5.062   9.439  0.4955 -2.1177 -2.2057
  174SOPE  C21319767   5.136   4.996   9.371 -0.0073 -0.0478  0.6810
  174SOPE  H13R19768   5.089   5.096   9.364 -0.1166 -0.1678 -0.6089
  174SOPE  H13S19769   5.060   4.926   9.412  1.3914 -0.2860  3.0611
  174SOPE  C21419770   5.178   4.959   9.229 -0.3564  0.1957 -0.6656
  174SOPE  H14R19771   5.205   4.851   9.228 -1.6237 -0.1467  0.5895
  174SOPE  H14S19772   5.267   5.015   9.193  0.0387  0.0902  0.1422
  174SOPE  C21519773   5.063   4.972   9.126 -0.9702  0.2671 -0.1168
  174SOPE  H15R19774   5.039   5.078   9.102 -0.7688  0.5033  0.6609
  174SOPE  H15S19775   4.971   4.933   9.175 -0.2476 -1.0725  0.2331
  174SOPE  C21619776   5.094   4.899   8.991 -0.5974  0.4680  0.6205
  174SOPE  H16R19777   5.009   4.901   8.919  0.5811 -0.5617 -0.8741
  174SOPE  H16S19778   5.114   4.791   9.008  0.4779  0.4347 -0.6718
  174SOPE  C21719779   5.225   4.954   8.922 -0.2302  0.0151  0.6919
  174SOPE  H17R19780   5.314   4.946   8.988  0.2260 -1.7526 -0.0757
  174SOPE  H17S19781   5.214   5.064   8.918  2.1455  0.3139  1.0555
  174SOPE  C21819782   5.250   4.884   8.787 -0.5048  0.2131  0.2288
  174SOPE  H18R19783   5.286   4.781   8.811 -0.1352  0.5328  1.0713
  174SOPE  H18S19784   5.337   4.930   8.734  0.1709 -0.9285  0.3035
  174SOPE  H18T19785   5.160   4.887   8.721 -1.0640  1.1980  1.0242
  174SOPE   C3319786   6.004   5.475  10.120  0.0268  0.1483 -0.3145
  174SOPE   H3X19787   6.103   5.510  10.156 -1.4558  1.4911  2.8879
  174SOPE   H3Y19788   5.955   5.559  10.065  0.0216 -0.4900 -1.2984
  174SOPE   C3419789   6.023   5.368  10.010 -0.5799 -0.2728  0.2198
  174SOPE   H4X19790   5.921   5.325   9.995 -0.9248  0.6894 -0.2876
  174SOPE   H4Y19791   6.089   5.284  10.041 -1.0339 -1.7463 -2.4173
  174SOPE   C3519792   6.080   5.425   9.886  0.1006  0.3890  0.0528
  174SOPE   H5X19793   6.179   5.468   9.913  0.4389 -1.2994  1.6537
  174SOPE   H5Y19794   6.015   5.500   9.836  0.9174  0.0960 -1.5083
  174SOPE   C3619795   6.098   5.316   9.781 -0.0710 -0.0402  0.2516
  174SOPE   H6X19796   6.146   5.232   9.836 -0.7410 -0.3175  0.4195
  174SOPE   H6Y19797   6.177   5.338   9.707 -2.1144  2.1362 -1.4382
  174SOPE   C3719798   5.958   5.284   9.733 -0.5686  0.1288 -0.0187
  174SOPE   H7X19799   5.884   5.367   9.733 -0.4983  0.2333 -2.0278
  174SOPE   H7Y19800   5.906   5.214   9.802  0.5326 -0.2206  0.4835
  174SOPE   C3819801   5.941   5.204   9.591 -0.1775  0.0422 -0.1139
  174SOPE   H8X19802   6.006   5.113   9.589  0.8651  0.7654 -0.1005
  174SOPE   H8Y19803   5.975   5.264   9.504  0.0611 -1.6126 -1.2213
  174SOPE   C3919804   5.795   5.171   9.555 -0.6189  0.3905 -0.1397
  174SOPE   H9X19805   5.734   5.249   9.606  0.8370  1.2423  0.3705
  174SOPE   H9Y19806   5.783   5.079   9.616  0.2867  1.5500  1.8968
  174SOPE  C31019807   5.776   5.145   9.404  0.1842 -0.7931 -0.7043
  174SOPE  H10X19808   5.850   5.069   9.372  1.7113  0.2585  0.2012
  174SOPE  H10Y19809   5.798   5.238   9.348  0.2071  1.1083  2.2229
  174SOPE  C31119810   5.638   5.084   9.372  0.1158 -0.1096 -0.1336
  174SOPE  H11X19811   5.566   5.156   9.414 -0.9475 -1.5401  0.5766
  174SOPE  H11Y19812   5.622   4.993   9.433 -2.2629 -0.1411 -0.7223
  174SOPE  C31219813   5.605   5.056   9.226  0.7784  0.3899  0.1197
  174SOPE  H12X19814   5.627   5.148   9.167  0.8086  0.6282  0.4967
  174SOPE  H12Y19815   5.497   5.034   9.221  0.8743  0.0331 -0.5384
  174SOPE  C31319816   5.678   4.931   9.169  0.0621  0.3398 -0.2062
  174SOPE  H13X19817   5.598   4.875   9.117 -0.5690 -0.7154  1.8192
  174SOPE  H13Y19818   5.730   4.872   9.247  1.2088  0.7250 -0.6554
  174SOPE  C31419819   5.780   4.960   9.051  0.0245 -0.1182 -0.0792
  174SOPE  H14X19820   5.835   5.055   9.070 -1.1860  0.4704  0.5720
  174SOPE  H14Y19821   5.723   4.984   8.959 -0.1583  0.5753  0.2081
  174SOPE  C31519822   5.884   4.846   9.034 -0.2951 -0.3486  0.2495
  174SOPE  H15X19823   5.838   4.751   9.002 -0.4832 -1.0295  2.3589
  174SOPE  H15Y19824   5.917   4.817   9.136 -2.2526 -0.1458  0.9778
  174SOPE  C31619825   6.004   4.879   8.935 -0.1228 -0.5287 -0.1790
  174SOPE  H16X19826   6.071   4.792   8.916 -1.2203 -1.2663 -0.7684
  174SOPE  H16Y19827   6.067   4.964   8.970  0.8797 -1.3635  0.0956
  174SOPE  C31719828   5.956   4.919   8.795 -0.4405  0.0209 -0.2853
  174SOPE  H17X19829   5.877   4.997   8.798 -1.5194 -0.9256 -2.1776
  174SOPE  H17Y19830   5.908   4.826   8.757 -2.6944  0.7063  0.7473
  174SOPE  C31819831   6.076   4.981   8.710  0.8861 -0.1381  0.4991
  174SOPE  H18X19832   6.160   4.909   8.703 -1.8883 -3.5036 -1.7766
  174SOPE  H18Y19833   6.115   5.067   8.769 -1.7016  2.4780 -1.3100
  174SOPE  H18Z19834   6.049   5.023   8.611  3.6999 -1.4415 -0.9460
  175SOPE     N19835   2.409   6.439  10.961 -0.0251 -0.3347 -0.3650
  175SOPE   HN119836   2.460   6.398  11.041 -2.7881 -2.8000  0.3200
  175SOPE   HN219837   2.336   6.374  10.926 -0.5464 -0.9029  1.6665
  175SOPE   HN319838   2.473   6.469  10.885  0.3705 -0.1122  0.0539
  175SOPE   C1219839   2.336   6.566  11.013 -1.1244  0.1270  0.4091
  175SOPE  H12A19840   2.398   6.629  11.080 -0.4846 -0.4909  0.4153
  175SOPE  H12B19841   2.254   6.532  11.081 -1.3167  1.5807  0.9243
  175SOPE   C1119842   2.276   6.635  10.892 -0.0682 -0.2502 -0.2114
  175SOPE  H11A19843   2.351   6.665  10.817  3.6140 -3.5873  1.7470
  175SOPE  H11B19844   2.233   6.728  10.935  1.1293  0.2167  0.0146
  175SOPE     P19845   2.058   6.602  10.762  0.3085  0.0133  0.1851
  175SOPE   O1319846   1.975   6.674  10.857  0.4484 -0.4906 -0.3743
  175SOPE   O1419847   1.994   6.493  10.678  0.0402 -0.0267  0.1104
  175SOPE   O1219848   2.185   6.543  10.835  0.1582  0.1414 -0.0670
  175SOPE   O1119849   2.111   6.711  10.662  0.4945  0.5603  0.6341
  175SOPE    C119850   2.193   6.680  10.543  0.4266  0.0678  0.2134
  175SOPE    HA19851   2.221   6.573  10.534 -1.4726 -0.4193 -0.1311
  175SOPE    HB19852   2.288   6.738  10.535  1.2609 -1.3567 -0.6999
  175SOPE    C219853   2.115   6.718  10.417 -0.0959 -0.4537 -0.4462
  175SOPE    HS19854   2.086   6.825  10.422 -2.1607 -0.9071 -1.6315
  175SOPE   O2119855   2.001   6.629  10.405  0.0778 -0.4391  0.7361
  175SOPE   C2119856   1.882   6.667  10.448  0.3619 -0.0800  0.4178
  175SOPE   O2219857   1.862   6.779  10.493  0.0304 -0.1050 -0.1773
  175SOPE   C2219858   1.779   6.557  10.440  0.5488 -0.2808 -0.0901
  175SOPE   H2R19859   1.672   6.588  10.440  0.3440 -0.9718 -0.2011
  175SOPE   H2S19860   1.797   6.509  10.538 -0.0232 -0.8436 -0.2553
  175SOPE    C319861   2.206   6.712  10.295  0.5417  0.3865 -0.0613
  175SOPE    HX19862   2.238   6.605  10.288  0.1550  0.3502 -1.7745
  175SOPE    HY19863   2.287   6.786  10.312 -0.1858  0.7627  2.1193
  175SOPE   O3119864   2.134   6.761  10.179 -0.1357 -0.0598  0.1239
  175SOPE   C3119865   2.154   6.694  10.072  0.3612 -0.6042 -0.2725
  175SOPE   O3219866   2.232   6.596  10.068  0.9130  0.0661 -0.2128
  175SOPE   C3219867   2.092   6.746   9.943  0.1485  0.0152 -0.2970
  175SOPE   H2X19868   2.148   6.838   9.913 -1.0945  1.1900  0.8297
  175SOPE   H2Y19869   1.992   6.789   9.967  0.2607  0.4507 -0.5848
  175SOPE   C2319870   1.791   6.465  10.326  0.1552 -0.0563  1.0589
  175SOPE   H3R19871   1.744   6.373  10.366  0.8226 -1.0809 -0.4093
  175SOPE   H3S19872   1.897   6.443  10.304  0.0570  0.3146  0.1432
  175SOPE   C2419873   1.710   6.500  10.199 -0.4725  0.0350 -0.8206
  175SOPE   H4R19874   1.602   6.511  10.224 -0.2125  1.4328 -0.2068
  175SOPE   H4S19875   1.728   6.604  10.165 -3.7089  0.3365 -2.0265
  175SOPE   C2519876   1.732   6.401  10.086  0.4737  0.4029 -0.4195
  175SOPE   H5R19877   1.838   6.371  10.071  0.0849 -0.2116 -2.0918
  175SOPE   H5S19878   1.680   6.311  10.125  1.6651  0.4687  1.4435
  175SOPE   C2619879   1.671   6.448   9.956 -0.2217 -0.5172 -0.5657
  175SOPE   H6R19880   1.561   6.447   9.972 -0.2815  0.0058 -0.9068
  175SOPE   H6S19881   1.708   6.548   9.924  1.7318 -1.4685 -1.4320
  175SOPE   C2719882   1.693   6.353   9.832 -0.2910  0.0206 -0.8819
  175SOPE   H7R19883   1.801   6.339   9.809 -0.4403 -2.9617 -0.1820
  175SOPE   H7S19884   1.647   6.256   9.860  0.7174  0.0158  0.8839
  175SOPE   C2819885   1.625   6.403   9.709  0.5717 -0.0819 -0.3572
  175SOPE   H8R19886   1.518   6.406   9.740  0.1796 -0.6829 -1.5877
  175SOPE   H8S19887   1.663   6.505   9.687 -0.6338  0.5130  0.2032
  175SOPE   C2919888   1.659   6.312   9.590 -0.4628  0.2671  0.1886
  175SOPE   H9119889   1.759   6.266   9.592 -1.5916 -2.4354 -0.0594
  175SOPE  C21019890   1.575   6.272   9.495 -0.0851 -0.1584  0.1031
  175SOPE  H10119891   1.608   6.196   9.422 -0.7922 -1.4370  1.0558
  175SOPE  C21119892   1.431   6.318   9.474 -0.0914 -1.0202 -0.2331
  175SOPE  H11R19893   1.407   6.397   9.548  0.6855 -1.4554  0.5129
  175SOPE  H11S19894   1.363   6.230   9.484  0.1071 -1.2685 -1.0389
  175SOPE  C21219895   1.421   6.373   9.337  0.9901 -0.8503 -0.5795
  175SOPE  H12R19896   1.501   6.447   9.316 -0.7632  0.5669 -2.7176
  175SOPE  H12S19897   1.323   6.426   9.340  1.0574 -0.7467 -0.2243
  175SOPE  C21319898   1.410   6.270   9.220  0.8012  0.1204  0.2075
  175SOPE  H13R19899   1.309   6.225   9.219  0.5450  0.6045  1.7651
  175SOPE  H13S19900   1.482   6.189   9.243  2.5914  1.3029 -0.9590
  175SOPE  C21419901   1.439   6.319   9.077  0.1786  0.5831  0.0557
  175SOPE  H14R19902   1.546   6.345   9.080  0.9175 -1.8568 -1.5152
  175SOPE  H14S19903   1.381   6.414   9.077  0.4692  0.8545  3.1634
  175SOPE  C21519904   1.371   6.235   8.968 -0.2654 -0.1091  0.0736
  175SOPE  H15R19905   1.261   6.249   8.975 -0.2348  5.2696 -3.6407
  175SOPE  H15S19906   1.415   6.133   8.966  4.0756  1.5657  1.1217
  175SOPE  C21619907   1.388   6.307   8.825  0.0879  0.1486 -0.0107
  175SOPE  H16R19908   1.495   6.303   8.793 -0.1880 -1.7260 -0.8861
  175SOPE  H16S19909   1.357   6.413   8.827 -3.0659 -0.6085 -1.6622
  175SOPE  C21719910   1.314   6.230   8.722  0.1016 -0.1896  0.2925
  175SOPE  H17R19911   1.343   6.122   8.726 -0.2033 -0.2784  0.1167
  175SOPE  H17S19912   1.345   6.267   8.623 -2.5614  0.1908 -0.4753
  175SOPE  C21819913   1.163   6.225   8.717  0.7673 -0.2638 -0.2742
  175SOPE  H18R19914   1.128   6.173   8.808  0.9373 -0.5811 -0.3897
  175SOPE  H18S19915   1.120   6.180   8.624  0.3308  0.4718 -0.4367
  175SOPE  H18T19916   1.120   6.327   8.726 -1.2504 -1.0620 -0.2078
  175SOPE   C3319917   2.094   6.638   9.833 -0.3219  0.0149  0.1775
  175SOPE   H3X19918   2.029   6.562   9.881 -0.4773  1.8127  3.0635
  175SOPE   H3Y19919   2.200   6.609   9.819 -0.1133  0.5616  0.6024
  175SOPE   C3419920   2.025   6.675   9.701  0.6099  0.0386 -0.3784
  175SOPE   H4X19921   2.072   6.770   9.668 -0.3138  0.7466  0.2571
  175SOPE   H4Y19922   1.925   6.721   9.716  0.8874  0.3061  0.7807
  175SOPE   C3519923   2.032   6.560   9.594  0.4600 -0.2598  0.0101
  175SOPE   H5X19924   1.968   6.477   9.632 -0.1126  0.6002  0.9911
  175SOPE   H5Y19925   2.140   6.534   9.607  0.7510  1.8296  2.4762
  175SOPE   C3619926   1.986   6.601   9.451 -0.4662 -0.0900 -0.7090
  175SOPE   H6X19927   2.056   6.682   9.422 -0.8972  0.9145  0.9438
  175SOPE   H6Y19928   1.878   6.626   9.454 -0.5537 -0.3974 -1.1393
  175SOPE   C3719929   1.992   6.479   9.363 -0.4040  0.0603 -0.5924
  175SOPE   H7X19930   1.938   6.400   9.420  1.0232  0.0357  0.7877
  175SOPE   H7Y19931   2.099   6.448   9.363  0.1004  1.6791 -1.1929
  175SOPE   C3819932   1.950   6.501   9.221 -0.4244  0.1108 -0.9440
  175SOPE   H8X19933   2.004   6.587   9.175 -2.2122  1.7756 -0.0945
  175SOPE   H8Y19934   1.843   6.530   9.216  0.0365  1.9452 -0.8378
  175SOPE   C3919935   1.959   6.381   9.132  0.6327  0.6857  0.2130
  175SOPE   H9X19936   1.911   6.292   9.178  2.0264 -0.9141 -1.2881
  175SOPE   H9Y19937   2.060   6.337   9.114  0.5631  0.5452  0.1605
  175SOPE  C31019938   1.893   6.403   8.997 -0.0835  0.0700  0.1587
  175SOPE  H10X19939   1.796   6.455   9.014 -0.0647  0.2015 -0.1336
  175SOPE  H10Y19940   1.866   6.310   8.943 -3.1458  1.4740 -0.9688
  175SOPE  C31119941   1.959   6.503   8.893 -0.4915 -0.3861  0.0530
  175SOPE  H11X19942   2.061   6.464   8.874  1.3376  2.8109  2.5423
  175SOPE  H11Y19943   1.970   6.603   8.939 -0.6698 -1.0914  1.7060
  175SOPE  C31219944   1.883   6.513   8.759 -0.4682 -0.4832 -0.8211
  175SOPE  H12X19945   1.794   6.576   8.781 -0.4959 -0.9299  0.4361
  175SOPE  H12Y19946   1.846   6.413   8.728 -2.3130 -0.9595  2.4414
  175SOPE  C31319947   1.958   6.571   8.643 -0.0961 -0.6705 -0.7515
  175SOPE  H13X19948   2.030   6.496   8.604  0.0062 -0.8675 -0.1971
  175SOPE  H13Y19949   2.022   6.652   8.683 -2.1235  0.5896  0.1269
  175SOPE  C31419950   1.871   6.633   8.530  0.3597 -0.2903 -0.1517
  175SOPE  H14X19951   1.944   6.677   8.459 -1.0185  0.6498 -1.0528
  175SOPE  H14Y19952   1.818   6.719   8.577  1.5774  0.4865 -0.1558
  175SOPE  C31519953   1.767   6.541   8.465  0.1615  0.2787 -0.3046
  175SOPE  H15X19954   1.692   6.504   8.537 -2.0140 -0.0981 -2.6053
  175SOPE  H15Y19955   1.823   6.456   8.421  1.5357 -0.2679  2.3180
  175SOPE  C31619956   1.691   6.612   8.348 -0.0524 -0.0288 -0.4511
  175SOPE  H16X19957   1.770   6.631   8.272  0.3836 -3.4341 -0.9770
  175SOPE  H16Y19958   1.646   6.705   8.390  2.4314 -0.0626  2.7225
  175SOPE  C31719959   1.578   6.527   8.286 -0.0017 -0.2014 -0.0308
  175SOPE  H17X19960   1.498   6.494   8.356  1.1525 -0.7076  1.0911
  175SOPE  H17Y19961   1.621   6.427   8.260  0.2884  0.2927 -1.5486
  175SOPE  C31819962   1.521   6.582   8.150 -0.5029 -0.2470 -0.1467
  175SOPE  H18X19963   1.608   6.577   8.082 -0.4395 -0.5236 -0.0438
  175SOPE  H18Y19964   1.501   6.691   8.163 -0.1684 -0.3357  1.3828
  175SOPE  H18Z19965   1.436   6.523   8.110  0.1497  0.2590 -2.4316
  176SOPE     N19966   1.763   0.224  10.654 -0.5038 -0.1632 -0.4871
  176SOPE   HN119967   1.807   0.163  10.582  0.3331 -4.0338  2.9327
  176SOPE   HN219968   1.680   0.269  10.609 -0.1045  0.0301 -1.0465
  176SOPE   HN319969   1.829   0.302  10.673 -1.8314  1.3786 -1.8783
  176SOPE   C1219970   1.729   0.137  10.770  0.2681  0.2925 -0.4444
  176SOPE  H12A19971   1.818   0.078  10.800  0.7598  2.4269  2.7733
  176SOPE  H12B19972   1.641   0.075  10.743  0.0051  1.1963 -1.7781
  176SOPE   C1119973   1.680   0.217  10.895 -0.4939 -0.1379 -0.0464
  176SOPE  H11A19974   1.763   0.258  10.956 -0.8391 -1.7395  1.6050
  176SOPE  H11B19975   1.639   0.149  10.973  1.1123 -2.5462 -1.1545
  176SOPE     P19976   1.518   0.424  10.951 -0.4360 -0.1973 -0.0801
  176SOPE   O1319977   1.594   0.558  10.951 -0.1757  0.1878 -0.1193
  176SOPE   O1419978   1.496   0.368  11.086 -0.3650 -0.5609 -0.2503
  176SOPE   O1219979   1.596   0.323  10.858  0.2359 -0.0023 -0.3904
  176SOPE   O1119980   1.373   0.437  10.885  0.3142 -0.5491  0.0728
  176SOPE    C119981   1.313   0.321  10.836 -0.5005  0.0956 -0.1786
  176SOPE    HA19982   1.205   0.333  10.858 -0.5844 -0.5721 -0.2071
  176SOPE    HB19983   1.351   0.233  10.892  2.9199  1.2704 -0.4026
  176SOPE    C219984   1.326   0.310  10.683  0.5846  0.5487  0.8393
  176SOPE    HS19985   1.434   0.322  10.655  0.4777  0.8268  0.5275
  176SOPE   O2119986   1.249   0.427  10.633 -0.3086  0.0083 -0.2136
  176SOPE   C2119987   1.295   0.463  10.515  0.2659 -0.6147  1.0909
  176SOPE   O2219988   1.400   0.430  10.460  0.4281 -0.4552  0.2286
  176SOPE   C2219989   1.198   0.559  10.464 -0.2717 -0.6463 -0.2764
  176SOPE   H2R19990   1.233   0.610  10.371  0.4879 -3.6492 -1.7418
  176SOPE   H2S19991   1.173   0.641  10.535 -1.3493 -1.0406 -0.1852
  176SOPE    C319992   1.286   0.174  10.628 -0.4135 -0.1230  0.6709
  176SOPE    HX19993   1.180   0.152  10.651 -1.5151  3.6275 -0.1431
  176SOPE    HY19994   1.343   0.093  10.678 -0.0135 -0.4808 -0.3193
  176SOPE   O3119995   1.305   0.167  10.483  0.2328 -0.0726  0.0609
  176SOPE   C3119996   1.430   0.132  10.443 -0.8422 -0.3696  0.3536
  176SOPE   O3219997   1.525   0.105  10.512  0.0922 -0.1140  0.6520
  176SOPE   C3219998   1.424   0.127  10.291  0.7656 -0.4160 -0.2407
  176SOPE   H2X19999   1.382   0.229  10.279  2.1194  0.7361  3.4572
  176SOPE   H2Y20000   1.354   0.048  10.256  2.0939 -1.8843  0.3075
  176SOPE   C2320001   1.056   0.492  10.438 -0.2683  0.3714  0.4472
  176SOPE   H3R20002   0.993   0.577  10.405  0.5062  0.6428 -0.3698
  176SOPE   H3S20003   1.008   0.445  10.526  0.3422  2.8235  2.1741
  176SOPE   C2420004   1.056   0.397  10.315 -0.0809 -0.6046  0.0163
  176SOPE   H4R20005   1.115   0.306  10.337 -0.3520 -0.9467 -0.6596
  176SOPE   H4S20006   0.952   0.360  10.320  0.2647 -1.4204  2.1302
  176SOPE   C2520007   1.083   0.459  10.181 -0.0328  0.2063 -0.4902
  176SOPE   H5R20008   1.018   0.548  10.170 -0.5778 -0.0958  0.2697
  176SOPE   H5S20009   1.191   0.485  10.192  0.1784 -0.8057 -0.0834
  176SOPE   C2620010   1.053   0.365  10.061  0.1568 -0.6562 -0.4477
  176SOPE   H6R20011   1.121   0.277  10.060 -1.2420 -1.8864  1.9826
  176SOPE   H6S20012   0.952   0.322  10.079 -0.7218  0.9195 -1.4290
  176SOPE   C2720013   1.058   0.440   9.922 -0.2074 -0.6110  0.2429
  176SOPE   H7R20014   0.980   0.518   9.937  0.5503 -0.1646  2.2057
  176SOPE   H7S20015   1.157   0.489   9.915 -0.0324 -1.0674 -0.6261
  176SOPE   C2820016   1.039   0.356   9.794  0.2288 -0.1459 -0.1294
  176SOPE   H8R20017   1.136   0.301   9.793  1.5327  2.0416 -0.8135
  176SOPE   H8S20018   0.952   0.287   9.801 -1.4957  1.7290 -1.8462
  176SOPE   C2920019   1.025   0.430   9.662 -0.2528 -0.5499 -0.0350
  176SOPE   H9120020   1.000   0.537   9.669  0.5493 -0.0915 -2.9320
  176SOPE  C21020021   1.013   0.374   9.538 -0.5638  0.1055  0.0045
  176SOPE  H10120022   1.016   0.450   9.459 -0.4379  0.9214  0.7784
  176SOPE  C21120023   1.031   0.225   9.501 -0.2030  0.3599 -0.0735
  176SOPE  H11R20024   0.934   0.182   9.470  1.0128 -2.4860 -0.2704
  176SOPE  H11S20025   1.063   0.176   9.595 -0.4380  1.6642  0.7113
  176SOPE  C21220026   1.130   0.191   9.389  0.2503  0.2809  0.1144
  176SOPE  H12R20027   1.150   0.083   9.405 -0.6019  0.2230  0.8721
  176SOPE  H12S20028   1.226   0.243   9.405 -0.6328  2.4539 -1.1699
  176SOPE  C21320029   1.091   0.224   9.242  0.0422  0.0369  0.0710
  176SOPE  H13R20030   1.091   0.335   9.239  0.4175  0.0545  0.5364
  176SOPE  H13S20031   0.988   0.188   9.222  0.1440  0.4935 -1.3488
  176SOPE  C21420032   1.201   0.180   9.149  0.1875  0.3249  0.0399
  176SOPE  H14R20033   1.206   0.069   9.147  0.5321  0.3145  0.8400
  176SOPE  H14S20034   1.303   0.195   9.192 -0.1371  1.4108  0.4457
  176SOPE  C21520035   1.207   0.254   9.013  0.1969 -0.7201 -0.3145
  176SOPE  H15R20036   1.301   0.223   8.963  0.8086  1.2167 -0.4595
  176SOPE  H15S20037   1.210   0.362   9.039  2.5836 -1.0900  1.2732
  176SOPE  C21620038   1.079   0.235   8.935 -0.6375 -0.5398 -0.4284
  176SOPE  H16R20039   0.995   0.261   9.003  0.9641 -0.8277  1.7875
  176SOPE  H16S20040   1.066   0.130   8.901  0.6326 -0.5543 -0.9181
  176SOPE  C21720041   1.077   0.327   8.810  0.2676  0.7585  0.4471
  176SOPE  H17R20042   1.173   0.322   8.754 -1.2299  1.6625 -2.4001
  176SOPE  H17S20043   1.068   0.436   8.827 -0.1043  0.6947  0.6536
  176SOPE  C21820044   0.968   0.285   8.709 -0.1100  0.0100 -0.4890
  176SOPE  H18R20045   0.973   0.175   8.695  0.9257  0.1161 -1.0127
  176SOPE  H18S20046   0.977   0.320   8.604  0.3691  2.3258  0.2687
  176SOPE  H18T20047   0.865   0.304   8.746  0.2843 -0.4517  0.9533
  176SOPE   C3320048   1.563   0.118  10.230 -0.0514  0.0593 -0.3659
  176SOPE   H3X20049   1.585   0.009  10.240  2.1105  0.5153  0.4634
  176SOPE   H3Y20050   1.643   0.173  10.285  0.2400  0.0792 -0.8051
  176SOPE   C3420051   1.565   0.150  10.079 -0.0739 -0.1848  0.0602
  176SOPE   H4X20052   1.547   0.257  10.056  0.2867 -0.0636  0.3447
  176SOPE   H4Y20053   1.491   0.089  10.022 -0.2526 -1.1868  1.3338
  176SOPE   C3520054   1.711   0.135  10.023 -0.7111 -0.0150 -0.5089
  176SOPE   H5X20055   1.746   0.031  10.037  0.2789  0.0101 -2.4535
  176SOPE   H5Y20056   1.766   0.203  10.091 -2.3857  1.6676 -0.7158
  176SOPE   C3620057   1.725   0.164   9.878  0.7347  0.0403 -0.1273
  176SOPE   H6X20058   1.660   0.119   9.800  1.3089  0.5906 -0.9422
  176SOPE   H6Y20059   1.824   0.126   9.846 -0.9659 -2.6221 -2.6948
  176SOPE   C3720060   1.739   0.316   9.859  0.0117 -0.7904 -0.8825
  176SOPE   H7X20061   1.829   0.334   9.796  0.3858  3.3111  0.5289
  176SOPE   H7Y20062   1.759   0.371   9.953  0.4487 -2.5103  0.0752
  176SOPE   C3820063   1.615   0.374   9.795 -0.2428 -0.6032 -0.7621
  176SOPE   H8X20064   1.527   0.337   9.852 -0.4564  2.3007  0.9418
  176SOPE   H8Y20065   1.602   0.328   9.694  1.2860 -0.9995 -0.8069
  176SOPE   C3920066   1.607   0.529   9.778 -0.1589 -0.4450 -0.2854
  176SOPE   H9X20067   1.683   0.569   9.707  0.1295  3.1589  1.7947
  176SOPE   H9Y20068   1.626   0.574   9.878  0.9253 -0.4469 -0.4730
  176SOPE  C31020069   1.470   0.580   9.741  0.1238 -0.5715  0.5200
  176SOPE  H10X20070   1.471   0.686   9.708  1.3363 -0.6765  0.1601
  176SOPE  H10Y20071   1.406   0.561   9.830  2.3126 -2.7638  1.7576
  176SOPE  C31120072   1.402   0.509   9.621 -0.1588  0.0637 -1.0850
  176SOPE  H11X20073   1.294   0.528   9.607 -0.5797 -0.6942  0.8540
  176SOPE  H11Y20074   1.396   0.402   9.650 -3.0738 -0.0065 -1.6402
  176SOPE  C31220075   1.466   0.542   9.486  0.3933  0.6477 -0.7314
  176SOPE  H12X20076   1.575   0.520   9.493 -0.0527 -1.3205  1.2967
  176SOPE  H12Y20077   1.461   0.653   9.476  1.6855  0.9267  1.1904
  176SOPE  C31320078   1.409   0.455   9.374 -0.0025  0.0828 -0.2727
  176SOPE  H13X20079   1.299   0.466   9.366  0.0630 -0.3926 -2.4070
  176SOPE  H13Y20080   1.418   0.348   9.405 -0.7868  0.1846  0.3388
  176SOPE  C31420081   1.461   0.484   9.233  0.1061  0.6846  0.6506
  176SOPE  H14X20082   1.417   0.403   9.170  0.4944  0.9772 -0.0098
  176SOPE  H14Y20083   1.569   0.468   9.211  0.1699  0.2582  1.2396
  176SOPE  C31520084   1.431   0.621   9.178 -0.5097  0.2330 -0.0700
  176SOPE  H15X20085   1.459   0.698   9.253 -0.5443  0.1781 -0.0007
  176SOPE  H15Y20086   1.321   0.624   9.160 -0.6130  1.6828  0.6443
  176SOPE  C31620087   1.508   0.668   9.044 -0.2798 -0.0151 -0.0504
  176SOPE  H16X20088   1.614   0.690   9.067 -0.1046 -2.9867  2.6204
  176SOPE  H16Y20089   1.453   0.760   9.013 -1.3524 -0.1130  1.4545
  176SOPE  C31720090   1.501   0.560   8.937  0.3121 -0.2336  0.4311
  176SOPE  H17X20091   1.401   0.510   8.931  0.4286 -0.3104 -1.7896
  176SOPE  H17Y20092   1.572   0.477   8.955  1.1687  0.3916 -0.0016
  176SOPE  C31820093   1.529   0.611   8.792 -0.8579  0.1171  0.2410
  176SOPE  H18X20094   1.455   0.687   8.759 -0.6022  1.0038  1.6347
  176SOPE  H18Y20095   1.532   0.531   8.715 -1.6097 -0.2370  0.5751
  176SOPE  H18Z20096   1.616   0.679   8.799 -1.3251  1.0665 -2.1546
  177SOPE     N20097   5.726   4.561  11.400 -0.1135  0.7210  0.0891
  177SOPE   HN120098   5.656   4.499  11.445 -0.5763 -0.9286 -2.6733
  177SOPE   HN220099   5.694   4.580  11.303 -0.7454 -0.0350  0.1444
  177SOPE   HN320100   5.804   4.493  11.390 -0.2965 -0.1893  3.5875
  177SOPE   C1220101   5.775   4.678  11.475  0.5634 -1.1546 -0.0553
  177SOPE  H12A20102   5.814   4.644  11.573  0.7788 -1.7122 -0.3316
  177SOPE  H12B20103   5.692   4.748  11.498  1.5920  0.1763 -0.2574
  177SOPE   C1120104   5.880   4.750  11.394 -0.2818 -0.4803  0.1703
  177SOPE  H11A20105   5.959   4.677  11.366 -1.5852 -1.2966 -1.6021
  177SOPE  H11B20106   5.924   4.839  11.442  0.1697 -0.5319 -0.1448
  177SOPE     P20107   5.908   4.872  11.167 -0.4040  0.0267  0.0747
  177SOPE   O1320108   6.002   4.954  11.241 -0.1329 -0.3068  0.3505
  177SOPE   O1420109   5.820   4.942  11.074 -0.6180  0.0873 -0.0858
  177SOPE   O1220110   5.819   4.789  11.267 -0.0461  0.2275  0.5350
  177SOPE   O1120111   5.980   4.755  11.089  0.0723  0.1489  0.1202
  177SOPE    C120112   5.903   4.659  11.012  0.4274 -0.2194  0.7927
  177SOPE    HA20113   5.825   4.709  10.950  0.5879 -1.6804 -0.6257
  177SOPE    HB20114   5.858   4.584  11.080 -1.3206  0.8248  0.8727
  177SOPE    C220115   5.990   4.582  10.910  0.5216 -1.2077  0.2349
  177SOPE    HS20116   6.061   4.521  10.971  2.0975  0.3089 -0.0171
  177SOPE   O2120117   6.048   4.675  10.821  0.1580 -0.3220 -0.4138
  177SOPE   C2120118   6.153   4.737  10.872 -0.5512  0.1832 -0.3441
  177SOPE   O2220119   6.221   4.696  10.969  0.1761  0.1576  0.0426
  177SOPE   C2220120   6.204   4.845  10.776  0.2213  0.4822  0.1462
  177SOPE   H2R20121   6.288   4.896  10.827  1.3385  0.7894 -1.9120
  177SOPE   H2S20122   6.124   4.920  10.760 -1.8607 -1.8182 -0.8542
  177SOPE    C320123   5.892   4.490  10.822 -0.4819  1.0988  0.9693
  177SOPE    HX20124   5.798   4.540  10.790 -0.3717  1.4769  1.2233
  177SOPE    HY20125   5.884   4.391  10.871  3.4909  0.2973  0.3322
  177SOPE   O3120126   5.949   4.456  10.690  0.4623  0.5081 -0.3877
  177SOPE   C3120127   6.037   4.356  10.681 -0.5065 -0.2247 -0.1961
  177SOPE   O3220128   6.071   4.278  10.764 -0.1840  0.4717 -0.3461
  177SOPE   C3220129   6.092   4.368  10.546 -0.0367 -0.4318  0.5508
  177SOPE   H2X20130   6.170   4.289  10.537 -1.3162 -1.4527 -3.5966
  177SOPE   H2Y20131   6.133   4.471  10.540 -0.0758 -0.2443  2.6553
  177SOPE   C2320132   6.249   4.782  10.639  0.1212  0.4140  0.2608
  177SOPE   H3R20133   6.163   4.727  10.596 -0.6992 -0.6136  3.0443
  177SOPE   H3S20134   6.331   4.709  10.656 -0.0394  0.6692  2.3955
  177SOPE   C2420135   6.289   4.891  10.540 -0.3104  0.0756  0.4984
  177SOPE   H4R20136   6.201   4.954  10.515 -1.6159 -1.1360  1.8929
  177SOPE   H4S20137   6.367   4.959  10.580 -2.5806  1.1692  3.4091
  177SOPE   C2520138   6.347   4.828  10.418  0.1653  0.2536 -0.1476
  177SOPE   H5R20139   6.292   4.743  10.371  0.0588  1.2534 -1.9361
  177SOPE   H5S20140   6.351   4.897  10.331 -0.8819 -1.7217 -1.8482
  177SOPE   C2620141   6.497   4.781  10.436  0.2327  0.1626 -0.5230
  177SOPE   H6R20142   6.564   4.868  10.450  2.4029 -1.6162  0.9878
  177SOPE   H6S20143   6.511   4.718  10.526  2.1657  2.6865  1.0718
  177SOPE   C2720144   6.536   4.695  10.318 -0.0114 -0.0514 -0.4895
  177SOPE   H7R20145   6.474   4.604  10.335  0.3479  0.0775  1.9812
  177SOPE   H7S20146   6.509   4.745  10.223 -0.9997  0.5975  0.1171
  177SOPE   C2820147   6.691   4.667  10.310 -0.5230 -0.2637  0.6217
  177SOPE   H8R20148   6.717   4.627  10.411  1.9800 -2.2638 -0.6963
  177SOPE   H8S20149   6.712   4.580  10.244 -0.8005  1.0162 -1.2072
  177SOPE   C2920150   6.770   4.784  10.258 -0.2421  0.0134  0.0083
  177SOPE   H9120151   6.794   4.860  10.334 -0.0843 -0.0379  0.0090
  177SOPE  C21020152   6.800   4.804  10.132 -0.2372 -0.2391 -0.0058
  177SOPE  H10120153   6.869   4.885  10.104 -1.3059  0.3139 -1.1228
  177SOPE  C21120154   6.768   4.713  10.024  0.8902 -0.3463 -0.0789
  177SOPE  H11R20155   6.698   4.632  10.054  0.3807  0.3012  0.5295
  177SOPE  H11S20156   6.862   4.659  10.002  0.1445 -0.8966 -2.1707
  177SOPE  C21220157   6.724   4.779   9.887 -0.4889  0.4318 -0.2710
  177SOPE  H12R20158   6.800   4.855   9.859 -0.0783  0.2301  0.2781
  177SOPE  H12S20159   6.635   4.845   9.897 -2.3655 -1.4608 -2.9066
  177SOPE  C21320160   6.698   4.668   9.782  0.0410  0.0888  0.1766
  177SOPE  H13R20161   6.617   4.601   9.818 -0.8325  0.2185 -1.4545
  177SOPE  H13S20162   6.793   4.611   9.773  0.1009  0.0808  0.8001
  177SOPE  C21420163   6.669   4.718   9.638  0.3700 -1.3709 -0.4024
  177SOPE  H14R20164   6.753   4.774   9.592 -0.1299 -2.2951 -2.5106
  177SOPE  H14S20165   6.569   4.767   9.640  0.7168 -0.6587  0.2618
  177SOPE  C21520166   6.667   4.613   9.535  0.5266  0.3148  0.5987
  177SOPE  H15R20167   6.623   4.651   9.440 -3.7182 -1.3883  1.6293
  177SOPE  H15S20168   6.607   4.526   9.571  1.5580 -1.1562 -1.0716
  177SOPE  C21620169   6.805   4.559   9.504  0.1105  0.7834 -0.3913
  177SOPE  H16R20170   6.832   4.475   9.572  0.0749  0.4612 -0.7785
  177SOPE  H16S20171   6.881   4.636   9.531 -0.3835  0.7861  1.1389
  177SOPE  C21720172   6.835   4.509   9.366 -0.9080  0.0407  0.4600
  177SOPE  H17R20173   6.941   4.474   9.368 -0.5744  0.9767  2.8959
  177SOPE  H17S20174   6.820   4.597   9.301  2.4225 -0.5274 -1.3579
  177SOPE  C21820175   6.758   4.387   9.325  0.3627  0.4433 -0.7993
  177SOPE  H18R20176   6.779   4.337   9.229 -0.6537 -0.7486 -0.4351
  177SOPE  H18S20177   6.653   4.425   9.329  0.1055 -0.1082 -1.9523
  177SOPE  H18T20178   6.765   4.306   9.401  0.6554  1.5295  0.3653
  177SOPE   C3320179   5.979   4.356  10.435 -0.9933 -0.1110 -0.1433
  177SOPE   H3X20180   5.907   4.439  10.445 -2.8363 -1.5495 -0.8390
  177SOPE   H3Y20181   5.911   4.270  10.454 -2.7721  0.9171 -1.4943
  177SOPE   C3420182   6.041   4.338  10.295  0.0121 -0.4801 -0.3079
  177SOPE   H4X20183   6.087   4.238  10.277  1.9827  0.3180  0.0377
  177SOPE   H4Y20184   6.121   4.414  10.282 -2.3418  1.8082 -2.6746
  177SOPE   C3520185   5.943   4.352  10.185 -0.2052 -0.2526 -0.8307
  177SOPE   H5X20186   5.885   4.447  10.193 -0.4623 -0.2044 -2.7994
  177SOPE   H5Y20187   5.866   4.272  10.195 -0.0216 -0.3871 -0.4922
  177SOPE   C3620188   6.013   4.336  10.048  0.1402  0.2279 -0.5917
  177SOPE   H6X20189   6.080   4.248  10.046  1.3695  0.9950  2.0359
  177SOPE   H6Y20190   6.080   4.423  10.030 -0.8151  0.8682 -1.0809
  177SOPE   C3720191   5.901   4.327   9.946  0.2940 -0.2670 -0.0991
  177SOPE   H7X20192   5.816   4.395   9.969  0.0010 -0.6689  0.0096
  177SOPE   H7Y20193   5.853   4.228   9.956 -1.7874  0.8393  1.9459
  177SOPE   C3820194   5.962   4.338   9.800  0.0203 -0.3819  0.5154
  177SOPE   H8X20195   6.021   4.245   9.787 -0.2117 -0.7967  2.1815
  177SOPE   H8Y20196   6.033   4.423   9.791  0.2616 -0.8302 -3.5239
  177SOPE   C3920197   5.872   4.347   9.682 -0.0345  0.3855 -0.1481
  177SOPE   H9X20198   5.792   4.424   9.695 -0.1060  0.3799 -0.5208
  177SOPE   H9Y20199   5.814   4.253   9.670 -2.4418  1.8857 -0.9932
  177SOPE  C31020200   5.951   4.381   9.553  0.5666 -0.6456  0.3724
  177SOPE  H10X20201   6.056   4.347   9.570  0.3601 -2.0249 -0.8751
  177SOPE  H10Y20202   5.959   4.490   9.535  0.1922 -0.8630 -1.2305
  177SOPE  C31120203   5.881   4.329   9.431  0.3475 -0.4839 -0.3867
  177SOPE  H11X20204   5.909   4.394   9.345  0.3107  0.3818  0.2507
  177SOPE  H11Y20205   5.772   4.345   9.446  0.8018  0.4126  2.4642
  177SOPE  C31220206   5.929   4.183   9.392 -0.5908 -0.6399 -0.2332
  177SOPE  H12X20207   5.913   4.113   9.476 -0.3049  0.8127  1.0845
  177SOPE  H12Y20208   6.036   4.181   9.364 -0.3475  0.9533  0.4638
  177SOPE  C31320209   5.852   4.130   9.265 -0.1662  0.1971  0.1768
  177SOPE  H13X20210   5.743   4.131   9.287  0.0701  0.7280  1.4518
  177SOPE  H13Y20211   5.883   4.025   9.243 -0.6298  0.2244 -0.6226
  177SOPE  C31420212   5.881   4.219   9.139  0.1381  0.0357 -0.0898
  177SOPE  H14X20213   5.987   4.235   9.111  0.0112 -0.9038 -1.1877
  177SOPE  H14Y20214   5.839   4.319   9.162  1.7165  0.3460  1.6355
  177SOPE  C31520215   5.794   4.173   9.020  0.0821  0.4068 -0.2681
  177SOPE  H15X20216   5.688   4.178   9.053  0.4386 -0.4272  1.0780
  177SOPE  H15Y20217   5.812   4.064   9.012  3.6963  0.9878 -2.3315
  177SOPE  C31620218   5.821   4.255   8.893 -0.2594  0.1962  0.0053
  177SOPE  H16X20219   5.928   4.233   8.876 -0.0714  0.9459  0.1688
  177SOPE  H16Y20220   5.810   4.365   8.900  1.2337  0.4486 -1.1494
  177SOPE  C31720221   5.737   4.210   8.774 -0.0730 -0.4092  0.1468
  177SOPE  H17X20222   5.740   4.278   8.687  2.0621 -1.3795 -0.6099
  177SOPE  H17Y20223   5.633   4.209   8.813  0.7393 -0.3189  2.4753
  177SOPE  C31820224   5.767   4.070   8.731  0.3340 -0.1634  0.2264
  177SOPE  H18X20225   5.693   4.034   8.657  0.1942  2.8617 -1.2150
  177SOPE  H18Y20226   5.768   4.007   8.823  1.0446  0.6188  0.7747
  177SOPE  H18Z20227   5.872   4.080   8.696  0.6120  2.7499  1.6224
  178SOPE     N20228   4.419   1.182  10.842  0.5105  0.3482  0.6983
  178SOPE   HN120229   4.367   1.179  10.932 -1.5767 -0.5972 -0.4768
  178SOPE   HN220230   4.511   1.228  10.860 -0.0349  0.8954  2.2092
  178SOPE   HN320231   4.366   1.248  10.782 -0.5829 -0.2216  1.0175
  178SOPE   C1220232   4.422   1.044  10.775 -0.9556 -0.8874 -0.5496
  178SOPE  H12A20233   4.320   1.005  10.759 -1.2241 -0.4835  0.1359
  178SOPE  H12B20234   4.481   0.983  10.847  3.6129 -0.2599 -3.3336
  178SOPE   C1120235   4.500   1.064  10.641 -0.4640  0.4458  0.2249
  178SOPE  H11A20236   4.436   1.138  10.590 -0.7769 -0.7167 -1.1510
  178SOPE  H11B20237   4.505   0.962  10.596  0.9873 -0.6844  2.7104
  178SOPE     P20238   4.703   1.235  10.596 -0.1071 -0.2112 -0.1104
  178SOPE   O1320239   4.852   1.219  10.596 -0.0075  0.1840  0.0025
  178SOPE   O1420240   4.653   1.353  10.669 -0.3809  0.0068  0.7468
  178SOPE   O1220241   4.634   1.103  10.651 -0.0887  0.0715 -0.0710
  178SOPE   O1120242   4.651   1.239  10.447 -0.5902 -0.1590 -0.3232
  178SOPE    C120243   4.680   1.126  10.361 -0.8601 -0.0072 -0.0070
  178SOPE    HA20244   4.602   1.127  10.281  0.2626 -1.6146 -1.1988
  178SOPE    HB20245   4.667   1.031  10.417 -1.9469  0.4727  0.5952
  178SOPE    C220246   4.816   1.121  10.287 -0.1877  0.1625 -0.4612
  178SOPE    HS20247   4.903   1.112  10.355  0.3365  0.8051 -1.0273
  178SOPE   O2120248   4.816   1.242  10.211  0.0385  0.0963 -0.5067
  178SOPE   C2120249   4.922   1.307  10.174  0.4125  0.3416  0.5095
  178SOPE   O2220250   5.039   1.278  10.197 -0.2962  0.0321 -0.3882
  178SOPE   C2220251   4.866   1.421  10.088  0.4895  0.3981 -0.0193
  178SOPE   H2R20252   4.782   1.472  10.139 -0.3036 -0.1274 -0.7847
  178SOPE   H2S20253   4.826   1.389   9.990  0.9992  2.9025 -1.1163
  178SOPE    C320254   4.822   1.000  10.183  0.4352 -0.5282  0.4874
  178SOPE    HX20255   4.917   1.013  10.126  0.3292 -1.3957  0.1003
  178SOPE    HY20256   4.736   0.987  10.114  0.6867 -2.6848  0.5082
  178SOPE   O3120257   4.826   0.876  10.259 -0.0133 -0.2596  0.6631
  178SOPE   C3120258   4.883   0.765  10.198 -0.2642 -0.2029 -0.6195
  178SOPE   O3220259   4.944   0.773  10.088  0.2521  0.1779  0.5883
  178SOPE   C3220260   4.858   0.638  10.272  0.4039  0.4111 -0.1879
  178SOPE   H2X20261   4.834   0.665  10.378  0.5583  0.9828 -0.2927
  178SOPE   H2Y20262   4.946   0.571  10.280 -0.5433 -0.6911  2.1524
  178SOPE   C2320263   4.974   1.516  10.055 -0.1980  0.0755 -0.7538
  178SOPE   H3R20264   5.057   1.479   9.991  0.5143  1.2086 -0.5053
  178SOPE   H3S20265   5.014   1.555  10.151 -0.7047 -1.1417 -0.0249
  178SOPE   C2420266   4.923   1.640   9.987 -0.0422 -0.9935  0.2450
  178SOPE   H4R20267   4.851   1.697  10.049  0.8404  0.2943  0.1107
  178SOPE   H4S20268   5.006   1.709   9.963  1.0538 -2.2117  0.3850
  178SOPE   C2520269   4.866   1.624   9.849 -0.1072  0.6658  0.3759
  178SOPE   H5R20270   4.766   1.576   9.837 -0.3058  0.7066  1.7507
  178SOPE   H5S20271   4.844   1.728   9.817 -4.0023 -0.1686 -0.2498
  178SOPE   C2620272   4.957   1.550   9.748  0.6820  0.2258  0.2151
  178SOPE   H6R20273   5.057   1.599   9.747 -0.2830  2.3380 -1.2976
  178SOPE   H6S20274   4.964   1.441   9.765 -0.9653 -0.0295 -0.5687
  178SOPE   C2720275   4.913   1.559   9.602 -0.1672 -0.2411  0.5893
  178SOPE   H7R20276   4.816   1.507   9.584  0.7041 -1.2264 -1.4274
  178SOPE   H7S20277   4.905   1.669   9.585  1.5568 -0.3735 -1.3574
  178SOPE   C2820278   5.022   1.506   9.503  0.7706 -0.0198  0.1192
  178SOPE   H8R20279   5.126   1.527   9.537  1.5043 -2.2027 -0.5927
  178SOPE   H8S20280   5.015   1.396   9.512  1.1428 -0.0751 -0.2352
  178SOPE   C2920281   5.004   1.558   9.359  0.2594  0.1861  0.4532
  178SOPE   H9120282   5.023   1.666   9.344  1.5821  0.2597  2.4074
  178SOPE  C21020283   4.995   1.477   9.243 -0.1169 -0.3659 -0.5437
  178SOPE  H10120284   4.984   1.534   9.150  3.4580  0.6239 -0.5019
  178SOPE  C21120285   4.994   1.329   9.224  0.8083  0.3056 -0.0866
  178SOPE  H11R20286   4.899   1.290   9.181  0.8633 -0.1107  0.1629
  178SOPE  H11S20287   4.992   1.267   9.316 -1.8081  1.5806  0.7926
  178SOPE  C21220288   5.117   1.296   9.141  0.0431 -1.1322  0.2661
  178SOPE  H12R20289   5.125   1.187   9.121  1.8464 -0.5400 -2.8755
  178SOPE  H12S20290   5.201   1.328   9.207 -1.2763  1.4559  0.8338
  178SOPE  C21320291   5.126   1.371   9.003  0.5696  0.2638  0.0110
  178SOPE  H13R20292   5.162   1.475   9.019 -0.6865  0.4955  1.6766
  178SOPE  H13S20293   5.034   1.370   8.940  1.5837 -0.7540 -1.5058
  178SOPE  C21420294   5.217   1.308   8.899 -0.0241 -0.8553 -0.1095
  178SOPE  H14R20295   5.182   1.203   8.892  0.4014 -0.9505 -0.9496
  178SOPE  H14S20296   5.320   1.299   8.942  0.3828 -1.3231 -1.1584
  178SOPE  C21520297   5.222   1.378   8.764  0.3649 -0.1776  0.3195
  178SOPE  H15R20298   5.240   1.487   8.779 -2.4025  0.2288  1.3059
  178SOPE  H15S20299   5.127   1.380   8.706  0.9365 -0.1206 -0.6363
  178SOPE  C21620300   5.320   1.313   8.662 -0.7411  0.8443  0.3701
  178SOPE  H16R20301   5.283   1.210   8.647 -3.1823  1.5056  1.3323
  178SOPE  H16S20302   5.423   1.317   8.704 -0.1003  0.9781 -1.1587
  178SOPE  C21720303   5.330   1.390   8.531  0.3951 -0.3397  0.5471
  178SOPE  H17R20304   5.337   1.497   8.559 -0.5165  0.1343 -0.8689
  178SOPE  H17S20305   5.237   1.375   8.471 -0.8920  1.2002  2.0441
  178SOPE  C21820306   5.453   1.357   8.445 -0.5760 -0.0359  0.0788
  178SOPE  H18R20307   5.543   1.341   8.507 -0.4059 -0.5944 -0.3072
  178SOPE  H18S20308   5.486   1.439   8.378 -1.3196 -0.3541 -0.6962
  178SOPE  H18T20309   5.433   1.264   8.388 -1.0901  0.4586 -0.5594
  178SOPE   C3320310   4.750   0.554  10.205  0.5020 -0.1195  0.2899
  178SOPE   H3X20311   4.766   0.537  10.096 -3.4699 -0.3571 -0.4031
  178SOPE   H3Y20312   4.647   0.594  10.203  0.4355 -0.3155 -1.0222
  178SOPE   C3420313   4.745   0.416  10.275  0.3781 -0.6676  0.7110
  178SOPE   H4X20314   4.713   0.422  10.382  0.6586 -1.7613  0.8627
  178SOPE   H4Y20315   4.842   0.370  10.248  0.4759  0.6756 -1.5217
  178SOPE   C3520316   4.637   0.321  10.219  0.3777 -0.1850 -0.2544
  178SOPE   H5X20317   4.533   0.355  10.234  0.8680  2.4444 -2.0809
  178SOPE   H5Y20318   4.655   0.232  10.282  0.9460  1.1558  1.5815
  178SOPE   C3620319   4.667   0.289  10.068  0.6073 -0.8917  0.1235
  178SOPE   H6X20320   4.775   0.266  10.057  0.7497  0.0019 -0.5369
  178SOPE   H6Y20321   4.638   0.372  10.000  1.5715 -1.7258 -1.3717
  178SOPE   C3720322   4.591   0.165  10.025  0.1897 -0.2823  0.0271
  178SOPE   H7X20323   4.490   0.175  10.071  0.5934  3.5270  0.4043
  178SOPE   H7Y20324   4.642   0.073  10.061  2.6944  0.8269 -0.4591
  178SOPE   C3820325   4.558   0.156   9.870  0.6093  0.0341 -1.2413
  178SOPE   H8X20326   4.658   0.152   9.823  0.9654 -0.4383 -0.4603
  178SOPE   H8Y20327   4.492   0.243   9.848 -2.6819 -2.2245 -1.1901
  178SOPE   C3920328   4.470   0.032   9.840 -0.3048  0.1467  0.2438
  178SOPE   H9X20329   4.375   0.045   9.895 -0.0374 -1.6869  1.1958
  178SOPE   H9Y20330   4.497  -0.065   9.887 -0.3325 -0.3814 -0.7915
  178SOPE  C31020331   4.451   0.017   9.689 -0.0166 -0.2675 -0.0722
  178SOPE  H10X20332   4.544   0.010   9.628  0.0568 -0.6558  0.0817
  178SOPE  H10Y20333   4.392   0.104   9.654  0.8875  0.0175 -0.9445
  178SOPE  C31120334   4.383  -0.123   9.652  0.2994 -0.2034 -0.2725
  178SOPE  H11X20335   4.273  -0.106   9.651 -0.3258 -3.5916 -0.1996
  178SOPE  H11Y20336   4.398  -0.200   9.730 -1.8280  0.9634  1.3930
  178SOPE  C31220337   4.430  -0.182   9.522  0.3884 -0.6397  0.5306
  178SOPE  H12X20338   4.525  -0.238   9.535  1.9817  1.5153 -1.0327
  178SOPE  H12Y20339   4.453  -0.090   9.462 -2.5429 -0.5897 -0.6626
  178SOPE  C31320340   4.323  -0.265   9.447  0.3702  0.1185  0.1202
  178SOPE  H13X20341   4.228  -0.220   9.410  0.9177  0.7656 -0.5343
  178SOPE  H13Y20342   4.289  -0.331   9.529 -0.6534  1.9570  1.2710
  178SOPE  C31420343   4.389  -0.354   9.338  0.2401  0.0182 -0.6618
  178SOPE  H14X20344   4.340  -0.453   9.348 -0.4547  0.3638 -0.5581
  178SOPE  H14Y20345   4.494  -0.363   9.373  0.0435  0.8369  0.2009
  178SOPE  C31520346   4.371  -0.291   9.203 -0.5038  0.3019  0.2114
  178SOPE  H15X20347   4.404  -0.185   9.207  4.4157 -1.0241  2.2852
  178SOPE  H15Y20348   4.264  -0.306   9.177 -0.3310 -2.7686  0.8916
  178SOPE  C31620349   4.469  -0.365   9.102 -0.8377 -0.6133  0.3743
  178SOPE  H16X20350   4.451  -0.472   9.078  0.3427 -0.3730 -1.7826
  178SOPE  H16Y20351   4.575  -0.365   9.136 -1.3547  0.7434  2.1674
  178SOPE  C31720352   4.476  -0.302   8.957  0.1564 -0.9620  0.0027
  178SOPE  H17X20353   4.545  -0.216   8.965  2.2934 -2.4647 -1.4531
  178SOPE  H17Y20354   4.379  -0.248   8.945 -0.4691 -1.8481  0.8549
  178SOPE  C31820355   4.519  -0.399   8.843 -0.2742 -0.5166 -0.8489
  178SOPE  H18X20356   4.529  -0.341   8.748 -2.6847  0.3833 -0.6285
  178SOPE  H18Y20357   4.459  -0.491   8.832  0.2051 -0.9170 -0.1847
  178SOPE  H18Z20358   4.621  -0.438   8.861 -0.4719 -0.5643  0.2168
  179SOPE     N20359   4.616   3.353   6.538 -0.1540 -0.2455  0.0627
  179SOPE   HN120360   4.609   3.455   6.516  0.0492  0.0401  1.2192
  179SOPE   HN220361   4.524   3.310   6.514  1.0020 -1.5433 -2.3885
  179SOPE   HN320362   4.646   3.347   6.638  0.5009 -2.8154 -0.2188
  179SOPE   C1220363   4.711   3.285   6.448 -0.0873 -0.3499  0.5068
  179SOPE  H12A20364   4.806   3.343   6.458  0.4442 -1.1940  0.4932
  179SOPE  H12B20365   4.668   3.293   6.346 -0.1791 -2.5434  0.3334
  179SOPE   C1120366   4.735   3.134   6.483  0.3020 -0.0469  0.5064
  179SOPE  H11A20367   4.789   3.126   6.580  0.2570  1.2624  0.6536
  179SOPE  H11B20368   4.795   3.084   6.403 -2.0815 -0.3695 -1.2017
  179SOPE     P20369   4.579   2.933   6.585 -0.0573 -0.0780 -0.0896
  179SOPE   O1320370   4.619   2.806   6.519 -0.8849 -0.2390 -0.1347
  179SOPE   O1420371   4.436   2.946   6.623 -0.3545 -0.1806 -0.3863
  179SOPE   O1220372   4.608   3.065   6.493  0.0405 -0.1492  0.0439
  179SOPE   O1120373   4.671   2.951   6.712  0.0101 -0.5622 -0.4700
  179SOPE    C120374   4.629   2.878   6.828  0.5248  0.4720  0.1796
  179SOPE    HA20375   4.670   2.775   6.822 -1.8026 -0.4729 -0.3836
  179SOPE    HB20376   4.519   2.862   6.833  0.6804 -2.0705 -2.2987
  179SOPE    C220377   4.699   2.934   6.953  0.2094 -0.8748 -0.6451
  179SOPE    HS20378   4.682   2.861   7.035 -1.5241  0.8586  0.6387
  179SOPE   O2120379   4.648   3.064   6.994 -0.5572 -0.7072 -0.1066
  179SOPE   C2120380   4.533   3.058   7.035 -0.7777 -0.1965 -0.2124
  179SOPE   O2220381   4.455   2.963   7.040 -0.5768 -0.4207 -0.0562
  179SOPE   C2220382   4.498   3.196   7.092  0.0244  0.2778 -0.3445
  179SOPE   H2R20383   4.387   3.202   7.093  0.0012  0.0304 -1.1594
  179SOPE   H2S20384   4.535   3.264   7.012  2.0581  0.9744  1.0827
  179SOPE    C320385   4.849   2.939   6.917 -0.0304 -0.3795 -0.0901
  179SOPE    HX20386   4.870   2.996   6.824  2.0494 -1.6879 -0.4910
  179SOPE    HY20387   4.880   2.835   6.894  1.1030  0.1428 -1.0369
  179SOPE   O3120388   4.932   2.990   7.020  0.4044  0.1424  0.3366
  179SOPE   C3120389   4.938   3.118   7.023  0.1822  0.6040 -0.0496
  179SOPE   O3220390   4.911   3.196   6.934  0.3684  0.1567  0.3436
  179SOPE   C3220391   4.991   3.156   7.161  0.3573  1.2136 -0.0778
  179SOPE   H2X20392   5.100   3.135   7.159 -0.2107 -2.2874 -0.4092
  179SOPE   H2Y20393   4.960   3.079   7.235  3.1315 -0.6665 -0.7490
  179SOPE   C2320394   4.549   3.235   7.233  0.0242  0.4900 -0.6100
  179SOPE   H3R20395   4.550   3.346   7.237 -2.3339  0.5250  0.6457
  179SOPE   H3S20396   4.649   3.189   7.250 -1.1327 -1.5347  1.1442
  179SOPE   C2420397   4.452   3.194   7.346 -0.6926 -0.3181 -0.6847
  179SOPE   H4R20398   4.492   3.246   7.436 -2.0631 -0.6088  0.1061
  179SOPE   H4S20399   4.350   3.230   7.320 -0.3451  2.1131  0.9241
  179SOPE   C2520400   4.446   3.041   7.362 -0.2053 -0.1990  0.3856
  179SOPE   H5R20401   4.358   3.019   7.427 -0.4148  0.9190  0.4875
  179SOPE   H5S20402   4.418   3.000   7.263  2.7433  0.6323 -0.9036
  179SOPE   C2620403   4.570   2.967   7.412  0.6714  0.5387 -0.0133
  179SOPE   H6R20404   4.540   2.860   7.420 -1.8299  0.6458 -4.6336
  179SOPE   H6S20405   4.652   2.986   7.341 -0.8423  0.6432 -1.8095
  179SOPE   C2720406   4.622   3.024   7.544  0.5205  0.8423  0.0087
  179SOPE   H7R20407   4.709   2.965   7.581  0.5110 -0.1672 -1.5282
  179SOPE   H7S20408   4.661   3.127   7.533 -0.8795  1.6762  2.1244
  179SOPE   C2820409   4.521   3.037   7.668  0.4971  0.7169  0.0756
  179SOPE   H8R20410   4.579   3.068   7.758 -1.2630  0.7712  1.2420
  179SOPE   H8S20411   4.463   3.127   7.640  0.3435  0.0732 -1.8150
  179SOPE   C2920412   4.438   2.914   7.698  0.6369 -0.1952 -0.0759
  179SOPE   H9120413   4.486   2.815   7.699 -1.2731 -1.1883  0.7998
  179SOPE  C21020414   4.305   2.914   7.739 -1.1213 -0.1528 -0.0596
  179SOPE  H10120415   4.259   2.817   7.763 -0.2509 -0.8242 -1.0545
  179SOPE  C21120416   4.223   3.033   7.749  0.0399  0.2772  1.3624
  179SOPE  H11R20417   4.170   3.049   7.653  2.0544 -1.0726 -0.0510
  179SOPE  H11S20418   4.289   3.122   7.751  0.8035 -0.1361 -1.4889
  179SOPE  C21220419   4.136   3.030   7.878  1.0543  0.7757  0.4011
  179SOPE  H12R20420   4.117   2.925   7.907 -1.2171  1.4785  1.6630
  179SOPE  H12S20421   4.043   3.083   7.850  0.4729 -0.6923 -0.5670
  179SOPE  C21320422   4.213   3.103   7.987 -0.0315  0.9605  0.0618
  179SOPE  H13R20423   4.251   3.202   7.953  1.6704 -0.1315 -1.4166
  179SOPE  H13S20424   4.299   3.036   8.008  0.2795  1.1815 -0.4860
  179SOPE  C21420425   4.123   3.135   8.105 -0.5000 -0.0611 -0.4166
  179SOPE  H14R20426   4.045   3.206   8.069  2.2376  3.7237  0.4534
  179SOPE  H14S20427   4.172   3.195   8.185 -0.1523 -0.6736 -0.1649
  179SOPE  C21520428   4.060   3.014   8.174  0.7585 -0.1494 -0.3163
  179SOPE  H15R20429   4.136   2.940   8.207  1.2704 -0.6843 -2.5659
  179SOPE  H15S20430   3.995   2.959   8.103 -0.2764  0.8796 -0.1941
  179SOPE  C21620431   3.981   3.061   8.301  0.1203  0.1765 -0.2052
  179SOPE  H16R20432   3.915   3.139   8.258  0.9676 -1.0095 -4.0570
  179SOPE  H16S20433   4.053   3.098   8.376  0.9492  1.5001 -1.6044
  179SOPE  C21720434   3.897   2.943   8.368 -0.4134 -0.5988  0.0984
  179SOPE  H17R20435   3.964   2.864   8.409 -1.3694 -1.0839  0.7776
  179SOPE  H17S20436   3.831   2.912   8.284  0.1140 -0.0196 -0.5427
  179SOPE  C21820437   3.809   2.997   8.480  0.9847 -0.2024  0.5769
  179SOPE  H18R20438   3.759   3.092   8.451  1.8208 -0.1039 -0.6027
  179SOPE  H18S20439   3.861   3.033   8.572  0.0142  2.1146  0.2788
  179SOPE  H18T20440   3.727   2.931   8.516  0.0412  1.5262  1.7197
  179SOPE   C3320441   4.967   3.299   7.202 -0.6540 -0.0850 -0.6431
  179SOPE   H3X20442   4.858   3.322   7.199 -0.3859  1.4500  0.1582
  179SOPE   H3Y20443   5.028   3.369   7.140  0.6667  0.9191  1.6512
  179SOPE   C3420444   5.012   3.329   7.347 -0.4207 -0.4442  0.2002
  179SOPE   H4X20445   4.972   3.429   7.370  0.7982 -0.2201  1.5208
  179SOPE   H4Y20446   5.123   3.331   7.357 -0.4102  0.5396 -0.0531
  179SOPE   C3520447   4.956   3.240   7.456 -0.3305 -0.8280 -0.0803
  179SOPE   H5X20448   4.999   3.138   7.447  0.8654 -0.4150  0.7264
  179SOPE   H5Y20449   4.846   3.236   7.436 -1.0561  0.1552  3.0771
  179SOPE   C3620450   4.986   3.296   7.601  0.3046 -0.1776 -0.5631
  179SOPE   H6X20451   4.925   3.387   7.614 -0.3112 -0.9701  3.2600
  179SOPE   H6Y20452   5.094   3.323   7.612  0.9713 -3.2784  2.1711
  179SOPE   C3720453   4.962   3.194   7.716  0.0462 -0.0380  0.9512
  179SOPE   H7X20454   5.007   3.096   7.686  2.2218  1.0571  0.4397
  179SOPE   H7Y20455   4.851   3.192   7.716 -0.0325 -0.0720 -1.9890
  179SOPE   C3820456   5.022   3.238   7.845  0.0451  0.3623 -0.2077
  179SOPE   H8X20457   5.132   3.255   7.837 -0.1356  0.8012 -2.6164
  179SOPE   H8Y20458   5.003   3.160   7.922 -1.1525  0.4468 -0.3944
  179SOPE   C3920459   4.965   3.370   7.903  0.1474 -0.2738 -0.6661
  179SOPE   H9X20460   4.864   3.352   7.945  0.4788  0.4010  0.4806
  179SOPE   H9Y20461   4.960   3.446   7.822 -1.3944  1.6484  1.1258
  179SOPE  C31020462   5.041   3.413   8.031 -0.4862  0.8219  0.6105
  179SOPE  H10X20463   5.148   3.396   8.008 -1.1790 -0.5399 -1.9610
  179SOPE  H10Y20464   5.011   3.350   8.117  1.2760  0.2645  0.8636
  179SOPE  C31120465   5.024   3.560   8.060 -0.0631  0.6168 -0.2411
  179SOPE  H11X20466   4.929   3.586   8.112 -0.7562 -0.4609 -0.9393
  179SOPE  H11Y20467   5.033   3.618   7.965 -1.2092  0.7361 -0.2921
  179SOPE  C31220468   5.137   3.607   8.153 -0.0832  0.2148  0.2383
  179SOPE  H12X20469   5.227   3.641   8.097  0.4844 -0.2092  0.8724
  179SOPE  H12Y20470   5.164   3.522   8.219  0.0370  2.7307  3.7441
  179SOPE  C31320471   5.090   3.729   8.234  0.5056 -0.0298  0.1845
  179SOPE  H13X20472   4.989   3.695   8.266 -0.2925  0.6476 -1.4969
  179SOPE  H13Y20473   5.084   3.815   8.165  1.0045 -1.9333 -2.3740
  179SOPE  C31420474   5.168   3.786   8.354 -0.1075  0.3287 -0.4585
  179SOPE  H14X20475   5.260   3.836   8.318  0.7116 -1.6663 -1.2587
  179SOPE  H14Y20476   5.197   3.695   8.411 -1.6012  0.6466  0.8971
  179SOPE  C31520477   5.082   3.872   8.448 -0.7129  0.0779 -0.3177
  179SOPE  H15X20478   5.040   3.949   8.380  0.6886  1.2489  0.1047
  179SOPE  H15Y20479   5.133   3.928   8.530  2.5249  0.0569 -2.1342
  179SOPE  C31620480   4.972   3.786   8.513  0.2842  0.1040 -0.3970
  179SOPE  H16X20481   5.024   3.702   8.563 -0.7238 -0.6087 -0.5068
  179SOPE  H16Y20482   4.905   3.738   8.439  2.1693 -1.9344 -0.8748
  179SOPE  C31720483   4.899   3.868   8.622 -0.1049 -0.0421  0.8625
  179SOPE  H17X20484   4.974   3.909   8.693 -0.6972  3.4966 -0.3539
  179SOPE  H17Y20485   4.834   3.797   8.678 -1.3699 -0.1877 -0.7178
  179SOPE  C31820486   4.806   3.980   8.576 -0.1326  0.2547  0.4688
  179SOPE  H18X20487   4.816   4.018   8.473 -1.5517  1.4298  0.7284
  179SOPE  H18Y20488   4.810   4.067   8.645 -0.3036 -0.7046  1.7254
  179SOPE  H18Z20489   4.700   3.948   8.578 -0.3883  1.0315 -0.1613
  180SOPE     N20490   3.919   3.008   6.643  0.1542 -0.6572 -0.3151
  180SOPE   HN120491   3.825   3.013   6.598  0.3512 -0.3294 -0.6981
  180SOPE   HN220492   3.896   3.033   6.741 -0.7034  1.7340 -1.0572
  180SOPE   HN320493   3.970   3.074   6.582  0.4218 -2.4470 -2.1435
  180SOPE   C1220494   3.959   2.869   6.625  0.0767  1.1963  0.0367
  180SOPE  H12A20495   4.062   2.849   6.660  0.3444  1.1080 -0.7877
  180SOPE  H12B20496   3.962   2.846   6.516  0.6117  4.2793 -0.6794
  180SOPE   C1120497   3.847   2.771   6.683 -0.1364 -0.3948  0.0392
  180SOPE  H11A20498   3.836   2.796   6.791  1.6071  1.5868 -0.1743
  180SOPE  H11B20499   3.879   2.665   6.680 -3.2379 -1.4629  1.0154
  180SOPE     P20500   3.661   2.680   6.546  0.2507 -0.0791 -0.0424
  180SOPE   O1320501   3.745   2.654   6.429  0.0859  0.2689  0.0190
  180SOPE   O1420502   3.514   2.710   6.516  0.0697  0.1486  0.2688
  180SOPE   O1220503   3.721   2.791   6.637 -0.3229 -0.2101  0.4670
  180SOPE   O1120504   3.668   2.554   6.644  0.1719  0.4615  0.3247
  180SOPE    C120505   3.619   2.553   6.773 -0.8097 -0.3522  0.0636
  180SOPE    HA20506   3.514   2.518   6.775 -0.4109 -1.6414 -0.4099
  180SOPE    HB20507   3.649   2.643   6.831  1.0204 -0.3013 -0.8812
  180SOPE    C220508   3.699   2.451   6.857  0.3960 -0.4475 -0.2651
  180SOPE    HS20509   3.661   2.477   6.958  0.6897 -0.0934 -0.2437
  180SOPE   O2120510   3.842   2.469   6.852 -0.0999 -0.1373 -0.8137
  180SOPE   C2120511   3.897   2.441   6.972 -0.4397 -0.5191 -0.3147
  180SOPE   O2220512   3.830   2.440   7.078 -0.3859 -0.0356 -0.3174
  180SOPE   C2220513   4.041   2.398   6.937  0.3194  0.1620 -0.0803
  180SOPE   H2R20514   4.097   2.483   6.894  0.5993 -0.3468 -0.7500
  180SOPE   H2S20515   4.050   2.324   6.854 -1.6107 -0.4888  0.2348
  180SOPE    C320516   3.661   2.310   6.815  0.3271 -0.1781 -0.0769
  180SOPE    HX20517   3.708   2.292   6.716  2.7361  0.5635  0.8649
  180SOPE    HY20518   3.553   2.293   6.797  0.1068 -0.2922  1.2369
  180SOPE   O3120519   3.710   2.209   6.907  0.0831 -0.2193 -0.3348
  180SOPE   C3120520   3.627   2.193   7.012  0.4563 -0.0721  0.3465
  180SOPE   O3220521   3.509   2.222   7.015 -0.4040  0.5455  0.3801
  180SOPE   C3220522   3.690   2.098   7.109  0.5640 -0.0898  0.1339
  180SOPE   H2X20523   3.800   2.094   7.090  0.0883 -1.7362 -2.8881
  180SOPE   H2Y20524   3.646   1.997   7.097  1.1689 -0.3155 -0.2452
  180SOPE   C2320525   4.127   2.342   7.061  0.0130  0.3247  0.0962
  180SOPE   H3R20526   4.124   2.398   7.157  0.7001 -0.4977  0.6119
  180SOPE   H3S20527   4.234   2.324   7.037 -0.4755 -0.9121 -1.2637
  180SOPE   C2420528   4.080   2.200   7.097  0.0012 -0.5279  0.5055
  180SOPE   H4R20529   3.993   2.207   7.165 -0.1388  1.3127  0.1881
  180SOPE   H4S20530   4.060   2.134   7.010  1.0697 -0.1776 -0.0293
  180SOPE   C2520531   4.189   2.124   7.179 -0.0793 -0.3290  0.6326
  180SOPE   H5R20532   4.139   2.025   7.180  1.1758 -1.0084 -0.6131
  180SOPE   H5S20533   4.288   2.121   7.128 -0.2355 -1.6227  0.3704
  180SOPE   C2620534   4.210   2.145   7.328 -0.8296 -0.0633 -0.5438
  180SOPE   H6R20535   4.249   2.246   7.355  1.1968 -0.5266 -1.6008
  180SOPE   H6S20536   4.115   2.152   7.387  0.5776  3.3268  1.6449
  180SOPE   C2720537   4.289   2.029   7.393  0.0085 -0.9250  1.0793
  180SOPE   H7R20538   4.263   1.935   7.340  2.6826 -1.8646  1.2960
  180SOPE   H7S20539   4.393   2.039   7.357 -0.6648  1.3602 -0.4732
  180SOPE   C2820540   4.280   2.005   7.546 -0.3146  0.0718 -0.1753
  180SOPE   H8R20541   4.368   1.941   7.570  0.4268  0.4102 -1.8785
  180SOPE   H8S20542   4.301   2.099   7.601 -1.0007 -0.6665  1.4477
  180SOPE   C2920543   4.150   1.948   7.599 -0.1869  0.3115  0.4475
  180SOPE   H9120544   4.064   1.953   7.529 -0.1782 -2.2728  0.1474
  180SOPE  C21020545   4.126   1.924   7.726  0.4469  0.1925  0.0356
  180SOPE  H10120546   4.024   1.888   7.748 -0.2921  1.8136 -0.5716
  180SOPE  C21120547   4.223   1.947   7.839 -0.9895 -0.6636  0.4791
  180SOPE  H11R20548   4.296   2.026   7.813  0.1593 -1.9099 -0.1802
  180SOPE  H11S20549   4.289   1.859   7.854 -0.2256 -0.1236  0.2958
  180SOPE  C21220550   4.153   1.982   7.976  0.5718 -0.3594  0.2846
  180SOPE  H12R20551   4.102   1.889   8.008 -1.7134  0.4003 -0.9468
  180SOPE  H12S20552   4.071   2.054   7.957 -0.6414 -1.7313  0.1610
  180SOPE  C21320553   4.252   2.031   8.086  0.5272  0.1868  0.0216
  180SOPE  H13R20554   4.311   2.117   8.046  0.1400 -0.0706 -1.1456
  180SOPE  H13S20555   4.332   1.957   8.107 -0.0036 -0.5259 -0.4538
  180SOPE  C21420556   4.189   2.082   8.213 -0.4744 -0.1897 -0.5037
  180SOPE  H14R20557   4.147   1.997   8.270 -1.4596  0.7900  0.2892
  180SOPE  H14S20558   4.100   2.144   8.192 -0.4893 -0.2325 -0.5661
  180SOPE  C21520559   4.293   2.143   8.307  0.8238 -0.8556  0.7472
  180SOPE  H15R20560   4.344   2.239   8.283  0.9569 -0.9225  0.7618
  180SOPE  H15S20561   4.379   2.077   8.330  1.2156  0.6762  4.2361
  180SOPE  C21620562   4.230   2.171   8.447 -0.7614 -1.0092 -1.2093
  180SOPE  H16R20563   4.226   2.072   8.496 -0.2417  0.3859  1.8721
  180SOPE  H16S20564   4.127   2.211   8.433 -0.1180  1.8316  1.1937
  180SOPE  C21720565   4.301   2.272   8.541 -0.2784  0.0805  0.2679
  180SOPE  H17R20566   4.330   2.365   8.487 -0.5985 -0.2870 -0.5508
  180SOPE  H17S20567   4.396   2.225   8.572 -0.5852  0.1454  1.3451
  180SOPE  C21820568   4.218   2.315   8.671 -0.9632  0.3518  0.7137
  180SOPE  H18R20569   4.281   2.356   8.753  0.9097  0.0167 -0.5197
  180SOPE  H18S20570   4.157   2.236   8.719 -1.3921  0.0807 -0.2495
  180SOPE  H18T20571   4.150   2.401   8.650  1.6760  3.2849  3.0778
  180SOPE   C3320572   3.675   2.165   7.249 -0.4000  0.2581 -0.4611
  180SOPE   H3X20573   3.569   2.180   7.278 -0.5686 -1.7964  0.1543
  180SOPE   H3Y20574   3.715   2.268   7.266 -0.3877  0.5099 -1.8993
  180SOPE   C3420575   3.743   2.082   7.369 -0.1088 -0.0855  0.1554
  180SOPE   H4X20576   3.852   2.097   7.379 -0.0654  0.0953 -0.5226
  180SOPE   H4Y20577   3.712   1.976   7.357 -3.1898  0.6235  0.7990
  180SOPE   C3520578   3.687   2.136   7.500  0.2478 -0.2197 -0.4677
  180SOPE   H5X20579   3.577   2.126   7.490  0.1070 -0.0667  0.8559
  180SOPE   H5Y20580   3.705   2.245   7.500 -0.0217 -0.1761 -0.4403
  180SOPE   C3620581   3.748   2.080   7.619 -0.6236 -0.0535 -0.3437
  180SOPE   H6X20582   3.858   2.077   7.612 -0.2993  3.7602  0.9162
  180SOPE   H6Y20583   3.716   1.974   7.628 -0.7779 -0.0601 -0.9330
  180SOPE   C3720584   3.714   2.150   7.758  0.5859  1.0523  0.8180
  180SOPE   H7X20585   3.609   2.118   7.774  0.9516  0.1259  1.5042
  180SOPE   H7Y20586   3.698   2.259   7.743 -0.2438  0.6795 -1.5081
  180SOPE   C3820587   3.804   2.114   7.871  0.7492  0.2904 -0.2141
  180SOPE   H8X20588   3.902   2.164   7.860  0.9162 -0.0132 -0.0960
  180SOPE   H8Y20589   3.830   2.007   7.860  0.2271  0.2279 -0.9122
  180SOPE   C3920590   3.730   2.135   8.006 -0.5278 -1.0796  0.1781
  180SOPE   H9X20591   3.641   2.068   8.005 -1.9124  0.6639 -1.0306
  180SOPE   H9Y20592   3.701   2.241   8.025  1.4043 -0.2544 -1.2591
  180SOPE  C31020593   3.810   2.116   8.134  0.1235 -0.2790  0.7836
  180SOPE  H10X20594   3.901   2.177   8.151 -0.2691  0.0208  1.9203
  180SOPE  H10Y20595   3.843   2.010   8.133  0.7895 -0.1402 -2.4907
  180SOPE  C31120596   3.733   2.128   8.270 -0.8572  0.3331 -0.1281
  180SOPE  H11X20597   3.647   2.057   8.263 -0.1058 -0.7339  1.0469
  180SOPE  H11Y20598   3.700   2.234   8.271  0.5855  0.8044  1.3088
  180SOPE  C31220599   3.826   2.108   8.400  0.7052 -0.1878  0.2691
  180SOPE  H12X20600   3.916   2.170   8.384  1.2979 -0.5894  1.8601
  180SOPE  H12Y20601   3.863   2.004   8.410  0.3303 -0.3847 -0.3620
  180SOPE  C31320602   3.746   2.156   8.525 -0.3917 -0.2384  0.1016
  180SOPE  H13X20603   3.661   2.087   8.546 -0.7004 -0.4525 -1.6872
  180SOPE  H13Y20604   3.700   2.253   8.497  1.0906  0.8687  1.2910
  180SOPE  C31420605   3.830   2.157   8.651  0.1998 -0.7161 -0.9382
  180SOPE  H14X20606   3.880   2.255   8.643 -1.2251 -0.0971 -3.1125
  180SOPE  H14Y20607   3.912   2.082   8.649  0.1460 -0.9510  1.7071
  180SOPE  C31520608   3.752   2.158   8.787 -0.5583  0.1488 -0.2903
  180SOPE  H15X20609   3.669   2.084   8.784 -0.0018 -0.4761 -0.3712
  180SOPE  H15Y20610   3.705   2.258   8.797 -1.4440 -0.0829 -1.7923
  180SOPE  C31620611   3.837   2.126   8.918  0.2441  0.3141 -0.1690
  180SOPE  H16X20612   3.913   2.206   8.932  0.8201 -0.4205  1.0042
  180SOPE  H16Y20613   3.895   2.031   8.921 -1.4676 -0.8669 -1.7363
  180SOPE  C31720614   3.752   2.131   9.046  0.6954  0.7423 -0.6785
  180SOPE  H17X20615   3.683   2.045   9.034  0.3699  0.7904  0.6559
  180SOPE  H17Y20616   3.682   2.217   9.042  0.9186  1.0710  1.3162
  180SOPE  C31820617   3.827   2.126   9.177 -0.3284  0.0336 -0.2412
  180SOPE  H18X20618   3.882   2.031   9.157 -2.4029 -0.9381 -1.7167
  180SOPE  H18Y20619   3.769   2.121   9.272 -0.3859 -0.8813 -0.3186
  180SOPE  H18Z20620   3.898   2.211   9.184 -0.3713  0.0699 -0.2410
  181SOPE     N20621   3.865   1.414   6.373 -0.1668 -0.6303  0.7668
  181SOPE   HN120622   3.876   1.316   6.406 -4.9192 -1.6133  0.2427
  181SOPE   HN220623   3.915   1.467   6.447  0.4133 -1.5885  1.0925
  181SOPE   HN320624   3.763   1.435   6.369 -0.2799 -1.2244  0.3432
  181SOPE   C1220625   3.916   1.425   6.237 -0.1813 -0.0898 -0.6330
  181SOPE  H12A20626   4.023   1.393   6.240 -0.3536 -0.7986  2.7549
  181SOPE  H12B20627   3.904   1.533   6.213 -0.8628  0.1643  0.7384
  181SOPE   C1120628   3.834   1.354   6.131 -0.3631  0.6579  0.1683
  181SOPE  H11A20629   3.882   1.354   6.031  0.0935 -1.1403  0.3538
  181SOPE  H11B20630   3.734   1.398   6.114 -0.0917  0.6311 -1.6456
  181SOPE     P20631   3.909   1.100   6.133 -0.6736 -0.2500 -0.0016
  181SOPE   O1320632   4.037   1.154   6.088 -0.2715  0.5449 -0.3046
  181SOPE   O1420633   3.841   1.003   6.048 -0.2444  0.0599  0.3352
  181SOPE   O1220634   3.813   1.222   6.174 -0.0523  0.8852  0.1005
  181SOPE   O1120635   3.933   1.038   6.274  0.0710  0.7804  0.2286
  181SOPE    C120636   3.859   0.936   6.335 -0.5813 -0.3798 -0.6036
  181SOPE    HA20637   3.920   0.845   6.315  1.0238  0.3928  0.5100
  181SOPE    HB20638   3.754   0.926   6.300 -0.1815 -1.3139 -1.6167
  181SOPE    C220639   3.858   0.952   6.487  0.2347  0.7832  0.5587
  181SOPE    HS20640   3.783   1.025   6.522 -3.1827 -2.0792 -0.1890
  181SOPE   O2120641   3.995   0.977   6.535  0.4617  0.0245  0.6143
  181SOPE   C2120642   4.039   1.103   6.528  0.0117 -0.3699 -0.4421
  181SOPE   O2220643   3.967   1.205   6.505 -0.2197  0.2647 -0.6460
  181SOPE   C2220644   4.183   1.118   6.556  0.4062  0.6742  0.3659
  181SOPE   H2R20645   4.213   1.223   6.536  1.1857  0.3577 -0.1515
  181SOPE   H2S20646   4.242   1.058   6.483 -2.8809 -1.4860 -0.7869
  181SOPE    C320647   3.807   0.814   6.543 -0.4335  0.3298 -0.5465
  181SOPE    HX20648   3.871   0.735   6.498  2.0188  1.3838  0.8620
  181SOPE    HY20649   3.704   0.794   6.508  0.0390 -2.0013 -0.7502
  181SOPE   O3120650   3.804   0.811   6.691 -0.1356  0.0715 -0.0227
  181SOPE   C3120651   3.905   0.742   6.740 -0.3810 -0.0438  0.3434
  181SOPE   O3220652   4.002   0.703   6.673 -0.0442  0.1438  0.2205
  181SOPE   C3220653   3.894   0.750   6.892  0.4864 -0.1987  0.3545
  181SOPE   H2X20654   3.889   0.858   6.916  3.4736 -0.0382  0.6024
  181SOPE   H2Y20655   3.991   0.707   6.922  0.9741  0.8276  0.2836
  181SOPE   C2320656   4.227   1.086   6.700  0.5960  0.5053  0.6034
  181SOPE   H3R20657   4.335   1.114   6.708  0.9193 -0.8832  1.6123
  181SOPE   H3S20658   4.209   0.980   6.727 -0.0226  0.2028 -0.9369
  181SOPE   C2420659   4.139   1.162   6.799 -0.6142  0.1698  0.4996
  181SOPE   H4R20660   4.135   1.271   6.774  1.8885  0.3775  0.7443
  181SOPE   H4S20661   4.050   1.100   6.776 -0.1165 -0.3145 -0.1618
  181SOPE   C2520662   4.184   1.140   6.942 -0.5601 -0.2404  0.2543
  181SOPE   H5R20663   4.294   1.140   6.958 -0.4250 -0.0791 -0.6570
  181SOPE   H5S20664   4.138   1.217   7.007  1.1447  1.2761 -0.2533
  181SOPE   C2620665   4.132   1.005   7.002  0.4997 -0.1548 -0.1137
  181SOPE   H6R20666   4.026   1.017   7.032  0.1900  0.1661 -1.2706
  181SOPE   H6S20667   4.131   0.926   6.923 -0.3727  0.6805 -0.9621
  181SOPE   C2720668   4.215   0.957   7.119 -0.3501  0.1113 -0.1194
  181SOPE   H7R20669   4.175   0.864   7.164  0.1094 -1.3943 -2.6820
  181SOPE   H7S20670   4.321   0.953   7.086 -0.2643  1.3418 -0.0365
  181SOPE   C2820671   4.223   1.068   7.234 -0.5835  0.1763  0.5942
  181SOPE   H8R20672   4.259   1.166   7.197 -0.5307  0.0714  0.3671
  181SOPE   H8S20673   4.115   1.086   7.252 -1.1671 -1.2220 -1.2023
  181SOPE   C2920674   4.314   1.026   7.345  0.1226 -0.4289  0.2845
  181SOPE   H9120675   4.422   1.026   7.322 -0.4474 -1.7906 -2.9800
  181SOPE  C21020676   4.282   0.987   7.468  0.4580 -0.0185  0.3716
  181SOPE  H10120677   4.356   0.969   7.547  1.0159 -0.8402 -0.3270
  181SOPE  C21120678   4.142   0.969   7.514  0.1949  0.2907  0.1397
  181SOPE  H11R20679   4.093   0.907   7.436  3.5432  0.9239 -2.7319
  181SOPE  H11S20680   4.091   1.068   7.520 -1.1251 -0.3530 -0.0510
  181SOPE  C21220681   4.117   0.915   7.658 -0.6698 -0.1052 -1.0972
  181SOPE  H12R20682   4.174   0.820   7.658 -0.9329 -0.2685 -1.9751
  181SOPE  H12S20683   4.009   0.899   7.673 -1.0387  1.0792 -2.3204
  181SOPE  C21320684   4.168   1.014   7.779  0.0109 -0.1705  0.7053
  181SOPE  H13R20685   4.123   1.115   7.764 -0.9398 -0.5866  0.6815
  181SOPE  H13S20686   4.277   1.025   7.761 -0.2056  1.0821  0.0371
  181SOPE  C21420687   4.133   0.961   7.923 -0.5197 -0.3969 -0.3570
  181SOPE  H14R20688   4.156   0.853   7.928 -2.6482 -0.8553  0.6941
  181SOPE  H14S20689   4.024   0.957   7.945 -0.5126  0.6625 -0.0657
  181SOPE  C21520690   4.209   1.045   8.032  0.4888  0.5560  0.2529
  181SOPE  H15R20691   4.163   1.145   8.048 -0.6405 -0.0956  1.2834
  181SOPE  H15S20692   4.312   1.058   7.993 -0.5144 -0.6410 -3.0955
  181SOPE  C21620693   4.220   0.962   8.161  0.2802  0.3287 -0.8514
  181SOPE  H16R20694   4.242   0.856   8.137 -0.2383  0.3405 -1.3644
  181SOPE  H16S20695   4.115   0.966   8.195  0.2179  0.6852 -1.0856
  181SOPE  C21720696   4.293   1.026   8.286 -0.3918  0.4576 -0.4092
  181SOPE  H17R20697   4.260   1.132   8.283 -2.5528 -0.1662 -3.0129
  181SOPE  H17S20698   4.402   1.028   8.266 -0.2478  0.1628  0.3251
  181SOPE  C21820699   4.250   0.958   8.419  0.8223  0.9055  0.0970
  181SOPE  H18R20700   4.277   0.854   8.447 -2.8104  0.0883  1.1158
  181SOPE  H18S20701   4.140   0.964   8.437  0.8009 -0.8793  0.7829
  181SOPE  H18T20702   4.301   1.011   8.503 -0.1903  0.5282  0.9813
  181SOPE   C3320703   3.765   0.688   6.951 -0.7557  0.2607  0.5286
  181SOPE   H3X20704   3.772   0.577   6.943  0.6720  0.3250  0.6160
  181SOPE   H3Y20705   3.675   0.733   6.904 -0.5578 -0.3226 -0.4249
  181SOPE   C3420706   3.753   0.728   7.102  0.2113 -0.0565  0.2131
  181SOPE   H4X20707   3.648   0.731   7.138  0.0073 -1.0726 -0.2562
  181SOPE   H4Y20708   3.805   0.826   7.108  0.6063 -0.0495 -2.1508
  181SOPE   C3520709   3.832   0.625   7.195 -0.4453 -0.0760 -0.0216
  181SOPE   H5X20710   3.937   0.616   7.160 -0.1896  0.3279  0.6092
  181SOPE   H5Y20711   3.778   0.528   7.195 -1.6520  0.5364 -2.1458
  181SOPE   C3620712   3.840   0.680   7.341  0.8319 -0.0069 -0.1390
  181SOPE   H6X20713   3.909   0.766   7.349 -0.3888  0.8987  1.0832
  181SOPE   H6Y20714   3.885   0.603   7.407  1.2578 -0.9135 -1.4629
  181SOPE   C3720715   3.702   0.739   7.393 -0.0279 -0.1251 -0.6901
  181SOPE   H7X20716   3.611   0.674   7.390 -0.3804  0.1799  1.6732
  181SOPE   H7Y20717   3.670   0.823   7.327 -1.0976  0.2007  0.2165
  181SOPE   C3820718   3.709   0.807   7.530  0.1127  0.4038  0.1372
  181SOPE   H8X20719   3.634   0.886   7.550 -1.7506 -1.5165  1.1112
  181SOPE   H8Y20720   3.810   0.854   7.534  0.3745 -0.1265 -0.0301
  181SOPE   C3920721   3.710   0.698   7.637 -0.1314 -0.2527  0.0581
  181SOPE   H9X20722   3.790   0.621   7.629 -1.6271 -2.3649  3.3694
  181SOPE   H9Y20723   3.611   0.648   7.625 -0.6456  0.4916  1.0490
  181SOPE  C31020724   3.717   0.766   7.776 -0.2336  1.1343 -1.0213
  181SOPE  H10X20725   3.623   0.823   7.792 -2.4314 -1.8456 -2.4839
  181SOPE  H10Y20726   3.800   0.841   7.783 -0.6472  1.4966  0.4401
  181SOPE  C31120727   3.724   0.663   7.893 -0.4583 -0.3794 -0.3045
  181SOPE  H11X20728   3.728   0.563   7.845 -2.1162  0.3722 -2.1773
  181SOPE  H11Y20729   3.634   0.676   7.957  1.3514 -0.4757  2.4429
  181SOPE  C31220730   3.846   0.699   7.984  0.7633  0.2252 -0.6758
  181SOPE  H12X20731   3.837   0.799   8.031  0.9435 -0.1990  0.2855
  181SOPE  H12Y20732   3.938   0.699   7.921 -0.5370 -1.2540 -2.6622
  181SOPE  C31320733   3.861   0.595   8.101 -0.4009 -0.5078  0.6843
  181SOPE  H13X20734   3.900   0.499   8.061 -1.2182 -0.7522  0.4600
  181SOPE  H13Y20735   3.760   0.574   8.142 -0.6136 -0.6306  0.0985
  181SOPE  C31420736   3.956   0.633   8.213 -0.5066 -0.1853  0.4699
  181SOPE  H14X20737   3.914   0.725   8.258 -0.3955  1.8964 -3.2689
  181SOPE  H14Y20738   4.049   0.671   8.165  0.1743 -2.6487 -0.3368
  181SOPE  C31520739   3.991   0.520   8.306  0.2866  0.3033  0.4881
  181SOPE  H15X20740   4.037   0.434   8.252 -0.7749  1.3456 -2.2048
  181SOPE  H15Y20741   3.899   0.477   8.352  1.8814 -1.2078  2.5510
  181SOPE  C31620742   4.094   0.560   8.416  0.9487  0.1520 -0.7821
  181SOPE  H16X20743   4.042   0.645   8.465  0.6312 -0.4302 -0.1060
  181SOPE  H16Y20744   4.183   0.600   8.363  2.6448 -0.9778  1.0671
  181SOPE  C31720745   4.137   0.440   8.499 -0.2977 -0.4143 -0.0150
  181SOPE  H17X20746   4.161   0.358   8.428 -0.2697 -0.9112  0.5543
  181SOPE  H17Y20747   4.054   0.398   8.560  1.6414 -3.0816  1.0030
  181SOPE  C31820748   4.265   0.470   8.583  0.1668  0.5623  0.0335
  181SOPE  H18X20749   4.354   0.501   8.525  0.7058  0.6796  0.8984
  181SOPE  H18Y20750   4.295   0.378   8.639 -0.4544  0.3687  0.0509
  181SOPE  H18Z20751   4.253   0.561   8.645 -0.0469  3.0222 -3.3459
  182SOPE     N20752   5.283   2.049   6.441  0.1763  0.2161 -0.0252
  182SOPE   HN120753   5.253   2.085   6.349  1.4061 -1.3530 -1.0853
  182SOPE   HN220754   5.375   2.093   6.462 -0.0876 -0.2446  2.4836
  182SOPE   HN320755   5.293   1.946   6.439 -0.9675  0.1085 -0.4313
  182SOPE   C1220756   5.178   2.075   6.538 -0.3844  1.2269 -0.4078
  182SOPE  H12A20757   5.217   2.046   6.638 -0.4738 -1.7368 -1.1199
  182SOPE  H12B20758   5.093   2.006   6.518 -1.1927  1.8453  0.7401
  182SOPE   C1120759   5.126   2.217   6.541  0.1863  0.2693 -0.4763
  182SOPE  H11A20760   5.210   2.284   6.569 -0.1254  1.4949 -2.3264
  182SOPE  H11B20761   5.048   2.220   6.620  2.3086  2.0140  1.6903
  182SOPE     P20762   5.039   2.396   6.375 -0.0575  0.2976 -0.1331
  182SOPE   O1320763   4.987   2.401   6.236  0.5865 -0.1135  0.5097
  182SOPE   O1420764   5.161   2.482   6.402 -0.1397 -0.0565  0.0288
  182SOPE   O1220765   5.067   2.246   6.414 -0.1287 -0.5118 -0.1685
  182SOPE   O1120766   4.929   2.448   6.476  0.4793  1.1706 -0.1386
  182SOPE    C120767   4.825   2.360   6.523  0.0590  0.1434  0.1520
  182SOPE    HA20768   4.841   2.250   6.522 -2.4387 -0.2872  0.6713
  182SOPE    HB20769   4.741   2.374   6.451  1.9950 -1.2067 -2.5685
  182SOPE    C220770   4.787   2.393   6.672  0.5854  0.3722 -0.5101
  182SOPE    HS20771   4.743   2.493   6.654  1.0642  0.4702 -1.1806
  182SOPE   O2120772   4.903   2.392   6.759 -0.1515 -0.0220  0.8460
  182SOPE   C2120773   4.936   2.513   6.798 -0.1358  0.4727  0.4352
  182SOPE   O2220774   4.872   2.618   6.774  0.1602  0.3241 -0.0194
  182SOPE   C2220775   5.070   2.494   6.877  0.1575 -0.3170  0.9551
  182SOPE   H2R20776   5.154   2.522   6.809 -1.6647  3.4721 -0.0030
  182SOPE   H2S20777   5.096   2.397   6.923  2.5365 -1.0556 -1.7010
  182SOPE    C320778   4.663   2.311   6.731 -0.2526 -0.0526  0.4667
  182SOPE    HX20779   4.679   2.201   6.731 -1.2362 -0.2105 -0.7358
  182SOPE    HY20780   4.581   2.332   6.659 -0.0875 -0.8500  0.0379
  182SOPE   O3120781   4.635   2.339   6.871 -1.2210 -0.0342 -0.3624
  182SOPE   C3120782   4.564   2.451   6.899 -0.4297 -0.0641  0.6500
  182SOPE   O3220783   4.533   2.532   6.817  0.0858 -0.1361  0.4800
  182SOPE   C3220784   4.542   2.462   7.055  0.6080 -0.5037  0.6279
  182SOPE   H2X20785   4.642   2.488   7.097  0.2406  1.2151  0.5101
  182SOPE   H2Y20786   4.501   2.363   7.083 -1.6021  0.6360  1.6327
  182SOPE   C2320787   5.078   2.598   6.989 -0.1946  0.1764  0.1558
  182SOPE   H3R20788   5.085   2.694   6.933 -1.0386  0.5736  0.7285
  182SOPE   H3S20789   5.175   2.590   7.043 -0.0079  1.6106  0.0626
  182SOPE   C2420790   4.963   2.594   7.086  0.3398  0.0759  1.0286
  182SOPE   H4R20791   4.879   2.653   7.044  0.4698  0.1439  0.8643
  182SOPE   H4S20792   4.936   2.491   7.117  0.2778 -0.8097 -1.7777
  182SOPE   C2520793   4.996   2.664   7.219  0.4569  0.2804 -0.1523
  182SOPE   H5R20794   5.097   2.635   7.255  1.1379  0.0541 -2.1262
  182SOPE   H5S20795   4.999   2.771   7.188 -1.5762  0.4840  0.2490
  182SOPE   C2620796   4.890   2.653   7.327  0.5782 -0.1313  0.5413
  182SOPE   H6R20797   4.784   2.642   7.293  0.6827  0.7474 -0.0936
  182SOPE   H6S20798   4.899   2.551   7.371 -2.6987 -1.4800 -1.4795
  182SOPE   C2720799   4.889   2.776   7.420 -0.6983  0.0534  0.6529
  182SOPE   H7R20800   4.884   2.870   7.362 -2.0457 -0.8929 -0.8418
  182SOPE   H7S20801   4.793   2.780   7.477 -0.6652  2.9842  0.6359
  182SOPE   C2820802   4.999   2.800   7.532  0.6577 -0.3624  0.4655
  182SOPE   H8R20803   5.102   2.800   7.490  0.6274 -0.7418  0.3888
  182SOPE   H8S20804   4.980   2.903   7.570 -2.0490 -0.2691 -0.8897
  182SOPE   C2920805   4.982   2.698   7.641 -0.5334  0.9392  0.2739
  182SOPE   H9120806   4.998   2.591   7.621  1.5352  0.7532  2.4071
  182SOPE  C21020807   4.953   2.729   7.769 -0.0128 -0.2952 -0.0622
  182SOPE  H10120808   4.941   2.645   7.838  0.6559 -1.3874 -1.2443
  182SOPE  C21120809   4.949   2.856   7.840  0.6800 -0.5867  0.0990
  182SOPE  H11R20810   4.891   2.929   7.780  1.2473  0.1356  0.3967
  182SOPE  H11S20811   5.055   2.892   7.843  0.8771 -1.1213 -0.4051
  182SOPE  C21220812   4.878   2.858   7.978 -0.5067 -0.6695 -0.3839
  182SOPE  H12R20813   4.897   2.949   8.039 -0.7658 -2.2157  2.1497
  182SOPE  H12S20814   4.913   2.772   8.039  1.7818  0.5420  0.0798
  182SOPE  C21320815   4.726   2.843   7.963  0.2948 -0.8078 -0.6499
  182SOPE  H13R20816   4.730   2.759   7.891  0.0846 -0.6420 -0.8565
  182SOPE  H13S20817   4.679   2.927   7.907  1.5806 -0.7457 -1.6761
  182SOPE  C21420818   4.651   2.808   8.093  0.9696 -0.4837 -0.3503
  182SOPE  H14R20819   4.686   2.887   8.163 -1.8587  0.5516  0.0411
  182SOPE  H14S20820   4.679   2.711   8.139  0.6211  0.4123  1.8781
  182SOPE  C21520821   4.497   2.827   8.080  0.4100  0.3607 -0.1626
  182SOPE  H15R20822   4.471   2.742   8.014  0.4469 -0.1834  0.5222
  182SOPE  H15S20823   4.468   2.921   8.027 -0.6492 -0.1313 -0.4802
  182SOPE  C21620824   4.423   2.802   8.214  0.2384 -0.8656 -0.3855
  182SOPE  H16R20825   4.477   2.728   8.276  0.1077 -0.9178 -0.3341
  182SOPE  H16S20826   4.328   2.748   8.196  0.0724 -0.8207  0.3344
  182SOPE  C21720827   4.395   2.931   8.298 -0.1527 -0.0765 -0.2419
  182SOPE  H17R20828   4.349   3.009   8.234 -0.0162  1.8570  1.8555
  182SOPE  H17S20829   4.487   2.976   8.341  0.5183  1.2367 -2.8712
  182SOPE  C21820830   4.310   2.902   8.428  0.0420 -0.0948  0.2957
  182SOPE  H18R20831   4.269   2.998   8.468 -0.6930  0.0009 -0.6572
  182SOPE  H18S20832   4.376   2.873   8.512  1.0174  2.2784  0.4557
  182SOPE  H18T20833   4.234   2.823   8.413 -0.4318  0.8476 -3.3504
  182SOPE   C3320834   4.451   2.588   7.091  0.1831  0.8932  0.3261
  182SOPE   H3X20835   4.346   2.566   7.062  0.3984  0.2123  0.0592
  182SOPE   H3Y20836   4.493   2.674   7.035 -0.7714  0.0492 -1.8257
  182SOPE   C3420837   4.458   2.619   7.244  0.5409  0.2904  0.1039
  182SOPE   H4X20838   4.414   2.720   7.251 -0.0087  0.2534 -2.0594
  182SOPE   H4Y20839   4.565   2.632   7.270  0.7195  0.1317 -0.5325
  182SOPE   C3520840   4.386   2.520   7.331  0.4213  1.1269 -0.5133
  182SOPE   H5X20841   4.420   2.417   7.306 -0.4025  0.5447  0.6482
  182SOPE   H5Y20842   4.275   2.514   7.321  0.2314 -0.7622  1.6132
  182SOPE   C3620843   4.422   2.531   7.477 -0.2952  0.9689 -0.7996
  182SOPE   H6X20844   4.385   2.628   7.517  0.5365  0.1966  2.0450
  182SOPE   H6Y20845   4.533   2.528   7.491 -0.5800  0.2356  1.7042
  182SOPE   C3720846   4.363   2.420   7.563  0.9166  0.5972  0.4107
  182SOPE   H7X20847   4.400   2.406   7.666 -2.1106 -1.2684  1.3936
  182SOPE   H7Y20848   4.361   2.323   7.509 -3.3589  0.6175  0.1862
  182SOPE   C3820849   4.214   2.455   7.594  0.7364  0.3240 -0.2514
  182SOPE   H8X20850   4.146   2.441   7.507 -2.1203 -0.7575  1.9756
  182SOPE   H8Y20851   4.212   2.566   7.607 -0.1713  0.5008 -1.6874
  182SOPE   C3920852   4.153   2.385   7.721  0.8279 -0.2058  0.2669
  182SOPE   H9X20853   4.167   2.275   7.712  2.5026 -0.0638  0.8196
  182SOPE   H9Y20854   4.043   2.396   7.724  0.8444 -0.2867  2.3610
  182SOPE  C31020855   4.196   2.449   7.853 -0.1791  0.7251  0.8061
  182SOPE  H10X20856   4.177   2.558   7.851 -1.1970  0.5560 -1.8677
  182SOPE  H10Y20857   4.304   2.427   7.868  0.0464  0.7404 -0.6513
  182SOPE  C31120858   4.111   2.395   7.967 -0.9361 -0.7119 -0.4848
  182SOPE  H11X20859   4.120   2.286   7.987 -4.5159 -1.3570 -1.6008
  182SOPE  H11Y20860   4.005   2.394   7.934 -1.4220  0.0862  0.9400
  182SOPE  C31220861   4.109   2.492   8.091 -0.1032 -0.3832 -0.4255
  182SOPE  H12X20862   4.057   2.586   8.062  0.1984  0.2738  1.0908
  182SOPE  H12Y20863   4.215   2.522   8.108  0.6563 -2.9624 -0.2349
  182SOPE  C31320864   4.046   2.426   8.216  0.9129 -0.0057  0.2729
  182SOPE  H13X20865   4.124   2.364   8.264  1.2179 -0.2004 -0.4634
  182SOPE  H13Y20866   3.960   2.362   8.189  0.5112 -0.0932  1.6772
  182SOPE  C31420867   3.996   2.529   8.317  0.2452  0.2308  0.3327
  182SOPE  H14X20868   3.911   2.590   8.279 -1.7969 -1.3280  2.1427
  182SOPE  H14Y20869   4.085   2.589   8.344 -0.0507  1.1279 -0.5991
  182SOPE  C31520870   3.930   2.475   8.445  0.4347 -0.1383 -0.9936
  182SOPE  H15X20871   4.011   2.414   8.488 -0.2358  0.1606  0.7687
  182SOPE  H15Y20872   3.846   2.408   8.417 -2.2138  1.6901  1.9468
  182SOPE  C31620873   3.877   2.579   8.545  0.6101  0.4512  0.3457
  182SOPE  H16X20874   3.800   2.639   8.491 -0.4314  0.1633  1.4647
  182SOPE  H16Y20875   3.960   2.648   8.573  1.7982 -0.4032 -0.9178
  182SOPE  C31720876   3.809   2.522   8.670  0.5340 -0.5438 -0.4609
  182SOPE  H17X20877   3.882   2.479   8.742  0.4166 -0.2650 -0.1733
  182SOPE  H17Y20878   3.731   2.446   8.645 -0.2904 -0.3005  1.2635
  182SOPE  C31820879   3.755   2.638   8.752 -0.1334 -0.1176 -0.1611
  182SOPE  H18X20880   3.736   2.600   8.855  1.2336  0.7408  0.4303
  182SOPE  H18Y20881   3.660   2.677   8.709  0.3098  0.8426 -0.2995
  182SOPE  H18Z20882   3.840   2.709   8.762  2.0055 -2.8480  3.4286
  183SOPE     N20883   0.102   6.322   6.557  0.1856 -0.4099  0.5446
  183SOPE   HN120884   0.087   6.275   6.648  0.0019  0.1678  0.8204
  183SOPE   HN220885   0.189   6.285   6.513  0.7908 -2.4910  3.2351
  183SOPE   HN320886   0.119   6.421   6.586  1.9661 -0.5053 -0.0493
  183SOPE   C1220887  -0.029   6.295   6.490 -0.6800 -0.9071  0.6407
  183SOPE  H12A20888  -0.114   6.325   6.555 -1.3069  0.7964 -0.8767
  183SOPE  H12B20889  -0.034   6.186   6.472  0.7254 -0.6659 -1.5729
  183SOPE   C1120890  -0.033   6.379   6.366  0.3817  0.1782  0.9040
  183SOPE  H11A20891  -0.124   6.345   6.313  0.1746 -0.1254  1.4532
  183SOPE  H11B20892   0.054   6.353   6.301  0.8531 -0.8897  1.9264
  183SOPE     P20893  -0.140   6.618   6.429 -0.1983  0.0395  0.2256
  183SOPE   O1320894  -0.200   6.677   6.307  0.1911  0.4599 -0.1987
  183SOPE   O1420895  -0.088   6.716   6.526 -0.2232 -0.4300  0.0853
  183SOPE   O1220896  -0.032   6.518   6.385  0.2184 -0.0652 -0.4112
  183SOPE   O1120897  -0.244   6.529   6.507  0.7365  0.0525 -0.2966
  183SOPE    C120898  -0.368   6.588   6.548 -0.0523 -0.7745  0.3974
  183SOPE    HA20899  -0.438   6.616   6.466  1.8681  2.6739 -0.2741
  183SOPE    HB20900  -0.351   6.687   6.596  1.0236 -0.4700 -0.5762
  183SOPE    C220901  -0.438   6.491   6.641  0.4354 -0.7277 -0.1708
  183SOPE    HS20902  -0.519   6.552   6.686  0.5797 -1.1913  0.7563
  183SOPE   O2120903  -0.357   6.447   6.750 -0.0646 -0.2757  0.0187
  183SOPE   C2120904  -0.274   6.535   6.811  0.3945  0.1939 -0.4076
  183SOPE   O2220905  -0.300   6.653   6.830 -0.8456  0.5499 -0.8287
  183SOPE   C2220906  -0.140   6.468   6.839 -0.3799 -0.2346  0.5452
  183SOPE   H2R20907  -0.078   6.513   6.759 -2.8146  1.2637 -0.6128
  183SOPE   H2S20908  -0.153   6.362   6.811 -1.1377 -0.1067  0.4029
  183SOPE    C320909  -0.504   6.367   6.574  0.3760  0.4020 -0.2786
  183SOPE    HX20910  -0.426   6.290   6.552  1.2227  1.5727 -1.5306
  183SOPE    HY20911  -0.561   6.407   6.487 -1.1422 -1.4059 -0.1718
  183SOPE   O3120912  -0.594   6.306   6.677  0.2530  0.1621 -0.7362
  183SOPE   C3120913  -0.694   6.234   6.636  0.4568  0.4509  0.2669
  183SOPE   O3220914  -0.729   6.211   6.520  0.0983 -0.1102 -0.2479
  183SOPE   C3220915  -0.761   6.175   6.763  0.3138  0.2325  0.6086
  183SOPE   H2X20916  -0.774   6.253   6.841  1.1698 -0.8352  1.8759
  183SOPE   H2Y20917  -0.686   6.096   6.788 -1.4804 -0.9849  2.4505
  183SOPE   C2320918  -0.072   6.489   6.973  0.4945  0.5738 -0.4116
  183SOPE   H3R20919  -0.058   6.599   6.980 -2.2480  0.8774  1.8589
  183SOPE   H3S20920   0.029   6.443   6.964 -0.5537 -1.6440 -2.0309
  183SOPE   C2420921  -0.154   6.433   7.097 -0.1225 -0.1218  0.1815
  183SOPE   H4R20922  -0.254   6.480   7.106  0.3233  1.0414 -0.6249
  183SOPE   H4S20923  -0.181   6.326   7.084  1.8573 -0.4896 -1.3428
  183SOPE   C2520924  -0.064   6.430   7.222 -0.1592 -0.4668 -0.5161
  183SOPE   H5R20925   0.042   6.407   7.197  0.0530 -1.0592  0.8479
  183SOPE   H5S20926  -0.069   6.537   7.253 -2.6877  0.6648 -4.1924
  183SOPE   C2620927  -0.096   6.335   7.336  0.3307 -0.0510 -0.5084
  183SOPE   H6R20928  -0.105   6.231   7.298 -1.2772  0.1623 -0.7708
  183SOPE   H6S20929  -0.008   6.341   7.404  0.3015 -1.1567 -0.3509
  183SOPE   C2720930  -0.220   6.368   7.414  0.1938 -0.3023 -0.5014
  183SOPE   H7R20931  -0.208   6.458   7.477 -0.7072 -1.0729  0.8115
  183SOPE   H7S20932  -0.301   6.402   7.346 -0.2727  1.7568  1.0097
  183SOPE   C2820933  -0.271   6.253   7.506  0.4937  0.1397 -0.1215
  183SOPE   H8R20934  -0.283   6.162   7.443 -3.3563  0.6473 -0.4089
  183SOPE   H8S20935  -0.192   6.221   7.576 -0.2468  0.2766  0.7908
  183SOPE   C2920936  -0.406   6.288   7.567 -0.5784  0.2829 -1.4515
  183SOPE   H9120937  -0.497   6.282   7.505  0.0766 -1.6105 -2.3052
  183SOPE  C21020938  -0.418   6.303   7.701  1.2207 -0.7496 -0.6121
  183SOPE  H10120939  -0.521   6.311   7.741  1.1433 -0.2580 -0.9040
  183SOPE  C21120940  -0.314   6.304   7.812  0.0239 -0.4219  0.3787
  183SOPE  H11R20941  -0.265   6.403   7.827 -0.7212 -0.0668  0.5125
  183SOPE  H11S20942  -0.230   6.233   7.798  1.0138  0.3428  2.0968
  183SOPE  C21220943  -0.381   6.277   7.953  0.2249  0.3634  1.2907
  183SOPE  H12R20944  -0.385   6.166   7.962 -1.1209  0.2522 -0.3052
  183SOPE  H12S20945  -0.479   6.329   7.945 -0.5518 -1.2909 -4.0380
  183SOPE  C21320946  -0.309   6.336   8.072 -0.3548  0.2367  0.9022
  183SOPE  H13R20947  -0.306   6.446   8.055  1.3918 -0.0375 -1.0025
  183SOPE  H13S20948  -0.211   6.285   8.069 -0.1260  0.5368  2.4130
  183SOPE  C21420949  -0.382   6.302   8.200 -0.4686 -0.0642 -0.6045
  183SOPE  H14R20950  -0.403   6.193   8.200  3.2066 -0.9177  0.3132
  183SOPE  H14S20951  -0.474   6.360   8.219 -0.4340 -0.3835  0.5911
  183SOPE  C21520952  -0.292   6.323   8.324  0.1495  0.7058 -0.0211
  183SOPE  H15R20953  -0.225   6.409   8.300 -0.6586  0.9336 -1.5578
  183SOPE  H15S20954  -0.224   6.237   8.346 -0.5286  0.1266 -0.1588
  183SOPE  C21620955  -0.357   6.353   8.454 -0.3347 -0.4810  0.2700
  183SOPE  H16R20956  -0.413   6.444   8.423  1.6411 -0.1714 -2.8106
  183SOPE  H16S20957  -0.293   6.366   8.543 -0.4916 -1.4946  0.5357
  183SOPE  C21720958  -0.449   6.238   8.485 -0.8031 -0.5908  0.0508
  183SOPE  H17R20959  -0.394   6.151   8.527 -2.7609 -1.4702  0.9505
  183SOPE  H17S20960  -0.502   6.195   8.397 -1.2512 -0.9343  0.4827
  183SOPE  C21820961  -0.557   6.284   8.583  0.8667 -0.3759 -0.4906
  183SOPE  H18R20962  -0.630   6.358   8.544  2.4520  0.9855 -1.0088
  183SOPE  H18S20963  -0.509   6.325   8.675 -0.0409 -0.4009  0.0049
  183SOPE  H18T20964  -0.631   6.210   8.621  0.0323  0.7251  0.0864
  183SOPE   C3320965  -0.896   6.105   6.733 -0.2054 -0.3624  0.0317
  183SOPE   H3X20966  -0.876   6.009   6.682 -0.6664 -1.0474  1.1141
  183SOPE   H3Y20967  -0.958   6.176   6.673 -1.3196  0.5719  2.1827
  183SOPE   C3420968  -0.981   6.067   6.852 -0.0351 -0.6914 -0.1659
  183SOPE   H4X20969  -1.054   5.991   6.819 -0.4353 -0.0057 -0.8889
  183SOPE   H4Y20970  -1.039   6.159   6.877  0.5825  0.0822 -1.4754
  183SOPE   C3520971  -0.889   6.018   6.974 -0.2042  0.3923  0.7672
  183SOPE   H5X20972  -0.809   6.093   6.994 -0.8625  0.7733  2.1062
  183SOPE   H5Y20973  -0.847   5.918   6.951  0.9593  1.0121  0.0887
  183SOPE   C3620974  -0.967   6.008   7.108 -1.1867 -0.0669 -0.0494
  183SOPE   H6X20975  -0.937   5.919   7.167 -0.9679 -0.6190 -0.9795
  183SOPE   H6Y20976  -1.076   6.001   7.091 -1.3774  2.7379 -0.4920
  183SOPE   C3720977  -0.947   6.131   7.201  0.2917 -0.3311  0.7458
  183SOPE   H7X20978  -0.977   6.228   7.155  3.3734  0.5830  0.4168
  183SOPE   H7Y20979  -0.837   6.136   7.220  0.4714  0.3366 -0.3485
  183SOPE   C3820980  -1.000   6.111   7.345  0.2342  0.8528  0.5095
  183SOPE   H8X20981  -0.961   6.015   7.384 -3.0940  0.2861  2.9022
  183SOPE   H8Y20982  -1.110   6.110   7.358  0.0797  0.8305 -0.6258
  183SOPE   C3920983  -0.952   6.210   7.454  0.8101 -0.4400  0.1305
  183SOPE   H9X20984  -0.956   6.315   7.417  0.6505 -0.3692  0.3506
  183SOPE   H9Y20985  -0.847   6.172   7.457  0.5702 -1.0729  0.6673
  183SOPE  C31020986  -1.015   6.183   7.597  0.0583  0.7272  0.3774
  183SOPE  H10X20987  -0.984   6.088   7.646 -2.0853  0.6415  1.6944
  183SOPE  H10Y20988  -1.121   6.160   7.575  0.3865 -0.9218  0.3496
  183SOPE  C31120989  -1.003   6.300   7.694 -0.3019 -0.0109  0.3484
  183SOPE  H11X20990  -1.079   6.278   7.772 -0.4657  2.2661  0.8965
  183SOPE  H11Y20991  -1.030   6.390   7.636  2.5028  2.0471  2.0128
  183SOPE  C31220992  -0.873   6.323   7.773 -0.3791  0.2007  0.4288
  183SOPE  H12X20993  -0.792   6.339   7.699 -0.8480 -0.2859 -0.1953
  183SOPE  H12Y20994  -0.855   6.232   7.833  1.9059  0.2021 -0.1525
  183SOPE  C31320995  -0.879   6.440   7.875 -0.1908  0.4351  0.1917
  183SOPE  H13X20996  -0.962   6.409   7.941 -0.3646 -2.6346 -1.2680
  183SOPE  H13Y20997  -0.920   6.533   7.830  0.5646  1.2578  1.1694
  183SOPE  C31420998  -0.751   6.455   7.965 -0.0371 -0.2169  0.3720
  183SOPE  H14X20999  -0.684   6.536   7.928 -0.2315 -0.4536 -0.5201
  183SOPE  H14Y21000  -0.708   6.358   7.932 -0.1412 -0.7318  1.6618
  183SOPE  C31521001  -0.782   6.446   8.112 -0.8432 -0.1506  0.9119
  183SOPE  H15X21002  -0.693   6.415   8.171 -0.1243  3.1162  1.7614
  183SOPE  H15Y21003  -0.849   6.361   8.133  0.6692 -1.0840  2.1928
  183SOPE  C31621004  -0.830   6.578   8.172 -0.2007 -0.2398  0.9027
  183SOPE  H16X21005  -0.917   6.609   8.111 -0.6068 -2.3749  0.2984
  183SOPE  H16Y21006  -0.753   6.658   8.167  0.5979 -1.0548 -1.0268
  183SOPE  C31721007  -0.890   6.562   8.310 -0.7173 -0.3447 -0.1545
  183SOPE  H17X21008  -0.820   6.502   8.372 -0.3054 -1.5705 -1.7247
  183SOPE  H17Y21009  -0.980   6.500   8.288 -0.3562 -0.6545 -0.8008
  183SOPE  C31821010  -0.932   6.695   8.377  0.0267  0.3604  0.4109
  183SOPE  H18X21011  -0.975   6.667   8.475 -0.1624 -0.9757 -0.0343
  183SOPE  H18Y21012  -1.007   6.762   8.329  0.5908  0.3396 -0.5243
  183SOPE  H18Z21013  -0.840   6.754   8.401 -1.0075  2.4998 -0.5746
  184SOPE     N21014   5.333   6.023   6.624 -0.3829 -0.2935  0.5372
  184SOPE   HN121015   5.380   5.930   6.618  1.4267  0.6478 -1.9627
  184SOPE   HN221016   5.267   6.015   6.703  0.3172  2.0920  1.4443
  184SOPE   HN321017   5.284   6.044   6.535 -0.2022  1.8968  0.9063
  184SOPE   C1221018   5.436   6.133   6.649  1.2387 -0.2436 -0.0901
  184SOPE  H12A21019   5.461   6.116   6.756 -3.0153  0.4372  1.1979
  184SOPE  H12B21020   5.379   6.227   6.663  3.7059  1.1056  1.5396
  184SOPE   C1121021   5.545   6.154   6.542  0.1707 -0.3901  0.0382
  184SOPE  H11A21022   5.616   6.068   6.539 -0.2096 -0.6884 -1.3651
  184SOPE  H11B21023   5.598   6.244   6.579 -2.4557  0.7894  1.1983
  184SOPE     P21024   5.551   6.286   6.326  0.2939 -0.1948  0.1292
  184SOPE   O1321025   5.480   6.298   6.196  0.1675  0.6000 -0.4572
  184SOPE   O1421026   5.696   6.264   6.320  0.2438  0.2204  0.0206
  184SOPE   O1221027   5.489   6.162   6.406  0.1328  0.1863 -0.3430
  184SOPE   O1121028   5.522   6.414   6.416 -0.2633  0.0532 -0.3396
  184SOPE    C121029   5.395   6.455   6.466 -0.1887 -0.8010 -0.2733
  184SOPE    HA21030   5.324   6.373   6.493  2.8393 -2.9171  2.0429
  184SOPE    HB21031   5.339   6.514   6.391  1.3496  1.9078  0.5918
  184SOPE    C221032   5.420   6.560   6.587 -0.2542  0.6971  0.2276
  184SOPE    HS21033   5.456   6.509   6.679 -1.0475  1.1098  0.7751
  184SOPE   O2121034   5.297   6.633   6.611  0.3912 -0.4391 -0.3691
  184SOPE   C2121035   5.220   6.590   6.714 -0.7608  0.4112  0.3792
  184SOPE   O2221036   5.236   6.498   6.786 -0.4213  0.8723  0.3385
  184SOPE   C2221037   5.108   6.694   6.736 -0.3268 -0.3791  0.4868
  184SOPE   H2R21038   5.036   6.649   6.808 -0.3673 -1.4429 -0.1970
  184SOPE   H2S21039   5.057   6.724   6.642 -1.8398  0.2306  1.4792
  184SOPE    C321040   5.529   6.668   6.551  0.0132  0.6579  0.0116
  184SOPE    HX21041   5.519   6.699   6.444 -0.8340 -0.7302 -0.3455
  184SOPE    HY21042   5.628   6.620   6.567  0.0649  1.3345  1.8980
  184SOPE   O3121043   5.518   6.787   6.634 -0.5094  1.0458  0.6853
  184SOPE   C3121044   5.561   6.769   6.760  0.2328 -0.2451  0.7870
  184SOPE   O3221045   5.595   6.664   6.805  0.9172  0.1407  0.0667
  184SOPE   C3221046   5.576   6.908   6.829 -0.4888  0.0252  0.2971
  184SOPE   H2X21047   5.484   6.966   6.808 -1.1294 -0.7582  0.8942
  184SOPE   H2Y21048   5.666   6.949   6.777  0.0582  0.6973  1.7114
  184SOPE   C2321049   5.166   6.821   6.797 -0.4490 -0.1751  0.4460
  184SOPE   H3R21050   5.094   6.905   6.796 -0.7804 -0.4365  1.2484
  184SOPE   H3S21051   5.240   6.871   6.731 -0.5502  0.1955  0.6155
  184SOPE   C2421052   5.211   6.814   6.945  0.0144  0.5310  0.0138
  184SOPE   H4R21053   5.127   6.760   6.994  1.2894  1.6807  3.8201
  184SOPE   H4S21054   5.308   6.761   6.961 -1.1794 -1.2660  1.9378
  184SOPE   C2521055   5.210   6.948   7.011 -0.2362  0.4686  0.0696
  184SOPE   H5R21056   5.299   6.999   6.969  0.3802 -1.7772 -1.5741
  184SOPE   H5S21057   5.123   7.010   6.980  0.3029  1.3621  0.3346
  184SOPE   C2621058   5.235   6.935   7.165 -0.1693 -0.6664 -0.2159
  184SOPE   H6R21059   5.169   6.865   7.220  1.0621 -0.6320  1.3662
  184SOPE   H6S21060   5.340   6.905   7.185  1.2455  2.6312 -1.8312
  184SOPE   C2721061   5.215   7.066   7.235 -0.2466  0.3955 -0.8805
  184SOPE   H7R21062   5.271   7.139   7.173 -0.5446 -0.5201 -2.2621
  184SOPE   H7S21063   5.112   7.105   7.217 -0.3266  0.4523 -0.3377
  184SOPE   C2821064   5.263   7.065   7.383  0.0875 -0.7291 -0.3283
  184SOPE   H8R21065   5.371   7.043   7.373  0.1058  0.0238 -2.0502
  184SOPE   H8S21066   5.254   7.166   7.427  1.4465  0.1526 -1.9694
  184SOPE   C2921067   5.186   6.974   7.478  0.1245  0.7423 -0.5360
  184SOPE   H9121068   5.090   6.932   7.445  0.2040 -1.0218  1.3037
  184SOPE  C21021069   5.231   6.936   7.601  0.0429 -0.2202 -0.4208
  184SOPE  H10121070   5.163   6.887   7.671  2.1119 -0.0376  1.8366
  184SOPE  C21121071   5.360   6.981   7.660  0.1630 -0.0385 -0.4337
  184SOPE  H11R21072   5.377   7.084   7.621  0.0888 -0.0897 -0.5999
  184SOPE  H11S21073   5.447   6.917   7.635 -0.3157 -0.9290  0.1093
  184SOPE  C21221074   5.355   6.975   7.813  0.0155  0.4113  0.1470
  184SOPE  H12R21075   5.459   6.967   7.852  0.5232  0.5458 -1.1610
  184SOPE  H12S21076   5.307   6.879   7.840 -0.1251 -0.0121 -1.5415
  184SOPE  C21321077   5.291   7.104   7.872 -0.4021 -0.4701  0.0565
  184SOPE  H13R21078   5.187   7.126   7.838 -0.2557 -2.1126 -1.6314
  184SOPE  H13S21079   5.358   7.185   7.836 -0.0349 -0.5047  0.6520
  184SOPE  C21421080   5.292   7.120   8.022  0.4138  0.7387  0.1043
  184SOPE  H14R21081   5.219   7.051   8.069  0.6470 -0.6691 -1.4949
  184SOPE  H14S21082   5.265   7.224   8.050 -1.1249  0.6305 -0.8929
  184SOPE  C21521083   5.430   7.090   8.088  0.2864  0.1377 -0.5503
  184SOPE  H15R21084   5.511   7.153   8.045 -1.9565  2.2426 -1.9910
  184SOPE  H15S21085   5.453   6.982   8.076  0.2148  0.2213 -1.5165
  184SOPE  C21621086   5.423   7.125   8.240 -0.2955  0.2014 -0.4188
  184SOPE  H16R21087   5.351   7.059   8.292 -1.3720  1.8330  0.2338
  184SOPE  H16S21088   5.377   7.225   8.250  1.0655  0.8334 -0.2633
  184SOPE  C21721089   5.553   7.132   8.311  0.1080  0.1335  0.1939
  184SOPE  H17R21090   5.618   7.221   8.294  0.4874  0.4117  2.6641
  184SOPE  H17S21091   5.602   7.033   8.295 -1.6729 -0.5139 -1.5807
  184SOPE  C21821092   5.523   7.145   8.453 -0.1250 -0.6616 -0.4181
  184SOPE  H18R21093   5.615   7.141   8.515  0.9281  0.2859 -1.8595
  184SOPE  H18S21094   5.445   7.073   8.486  0.4696 -0.3739  1.8051
  184SOPE  H18T21095   5.485   7.247   8.474 -0.6980 -1.0867  0.7239
  184SOPE   C3321096   5.620   6.902   6.980  1.1163  0.3042 -0.0653
  184SOPE   H3X21097   5.698   6.825   6.993  0.6042  0.1036  2.2681
  184SOPE   H3Y21098   5.538   6.870   7.047 -0.8171  4.1229 -0.3175
  184SOPE   C3421099   5.677   7.034   7.029 -0.3554 -0.4971  0.1692
  184SOPE   H4X21100   5.602   7.110   7.059 -0.8744 -0.5431 -0.9594
  184SOPE   H4Y21101   5.735   7.078   6.944 -1.0415 -0.6622 -0.3918
  184SOPE   C3521102   5.775   7.016   7.145 -0.2421  0.6243 -0.4888
  184SOPE   H5X21103   5.845   6.935   7.116 -0.6369  0.5810 -1.3459
  184SOPE   H5Y21104   5.720   6.979   7.234 -0.6239 -1.2091 -1.4530
  184SOPE   C3621105   5.862   7.140   7.170 -0.6359  0.3544  0.6238
  184SOPE   H6X21106   5.914   7.166   7.076  0.6860  1.2634  1.5524
  184SOPE   H6Y21107   5.942   7.115   7.244  0.6746 -0.5011 -1.0275
  184SOPE   C3721108   5.779   7.262   7.222  0.3974  0.1875  0.0554
  184SOPE   H7X21109   5.722   7.310   7.140 -0.9408  0.1701  0.9358
  184SOPE   H7Y21110   5.858   7.328   7.264  1.4614 -0.1546 -1.3580
  184SOPE   C3821111   5.674   7.239   7.336  0.0349  0.5214 -0.6456
  184SOPE   H8X21112   5.732   7.170   7.401 -2.2767 -0.1420  0.8346
  184SOPE   H8Y21113   5.581   7.182   7.315  0.7049 -0.6620 -0.5042
  184SOPE   C3921114   5.635   7.366   7.407 -0.4136  0.5212 -0.2915
  184SOPE   H9X21115   5.576   7.424   7.333 -0.3645  0.7386 -0.1610
  184SOPE   H9Y21116   5.732   7.413   7.436  0.5070 -0.7594 -1.1974
  184SOPE  C31021117   5.536   7.355   7.524 -0.0340 -0.4808 -0.2206
  184SOPE  H10X21118   5.558   7.263   7.582 -0.8164  0.4260  1.5951
  184SOPE  H10Y21119   5.431   7.345   7.488  0.3848 -1.0600 -1.3291
  184SOPE  C31121120   5.539   7.479   7.624 -0.6287 -0.3968 -0.4861
  184SOPE  H11X21121   5.502   7.573   7.577  0.0362 -0.4327 -1.0884
  184SOPE  H11Y21122   5.643   7.486   7.662 -1.7933  0.6795  2.9228
  184SOPE  C31221123   5.465   7.443   7.755 -0.2116 -0.3916  0.3193
  184SOPE  H12X21124   5.490   7.344   7.800  1.2527  0.3215  1.1387
  184SOPE  H12Y21125   5.358   7.431   7.728 -0.2922 -0.0019  0.4706
  184SOPE  C31321126   5.486   7.551   7.864 -0.6351 -1.5499  0.0289
  184SOPE  H13X21127   5.447   7.651   7.836 -1.7106 -2.0825 -0.4117
  184SOPE  H13Y21128   5.593   7.579   7.869 -0.1044 -3.2813 -0.8912
  184SOPE  C31421129   5.417   7.504   7.992 -0.2867  0.2991 -0.0047
  184SOPE  H14X21130   5.442   7.401   8.023 -1.3592 -0.4266 -1.4341
  184SOPE  H14Y21131   5.310   7.496   7.964 -0.2812 -0.2823  0.1371
  184SOPE  C31521132   5.455   7.594   8.111 -0.1851 -0.0670  0.2441
  184SOPE  H15X21133   5.421   7.699   8.106 -0.0529  0.0843  1.9888
  184SOPE  H15Y21134   5.566   7.601   8.105 -0.3347  1.4229 -3.7696
  184SOPE  C31621135   5.419   7.530   8.247  1.0046 -0.5533 -0.4616
  184SOPE  H16X21136   5.474   7.434   8.263  0.7353 -0.8412 -1.1980
  184SOPE  H16Y21137   5.310   7.509   8.246  1.4067 -3.1147  0.7367
  184SOPE  C31721138   5.448   7.622   8.366 -0.1281  0.8231  0.5075
  184SOPE  H17X21139   5.372   7.701   8.344 -1.2880 -0.4583 -0.2160
  184SOPE  H17Y21140   5.557   7.642   8.378  0.0608  0.0533  0.1482
  184SOPE  C31821141   5.393   7.553   8.490  1.0543  0.0607 -0.0922
  184SOPE  H18X21142   5.292   7.511   8.471  0.9907  0.3568 -0.4202
  184SOPE  H18Y21143   5.389   7.635   8.565 -0.4705  0.0044 -0.0842
  184SOPE  H18Z21144   5.456   7.469   8.528 -1.9154 -2.1381  0.3390
  185SAPI   C1221145   0.100   4.263  10.771  0.1917 -0.3950  0.8296
  185SAPI    H221146   0.204   4.287  10.742 -0.6248 -0.3705 -2.3781
  185SAPI    O221147   0.017   4.372  10.722 -0.4639 -0.6552 -0.0520
  185SAPI   HO221148   0.015   4.442  10.788  1.2251  0.0082 -0.6576
  185SAPI   C1321149   0.053   4.139  10.696 -0.3934 -0.4085 -0.5457
  185SAPI    H321150   0.113   4.055  10.736  0.0625  0.4115  0.5691
  185SAPI    O321151   0.082   4.155  10.553  0.3216 -0.1952 -0.1874
  185SAPI   HO321152   0.052   4.244  10.531  0.6513  0.6021  2.2583
  185SAPI   C1421153  -0.096   4.098  10.730 -0.4441 -0.3907  0.4240
  185SAPI    H421154  -0.159   4.184  10.698 -1.3746 -0.7583  1.2128
  185SAPI    O421155  -0.132   3.981  10.649  1.0814  0.3459 -0.1160
  185SAPI   HO421156  -0.196   3.933  10.703  0.8320  0.5461 -0.2300
  185SAPI   C1521157  -0.106   4.072  10.879 -0.1159 -0.8748  0.0782
  185SAPI    H521158  -0.029   3.994  10.900  0.4482 -0.1560  0.7690
  185SAPI    O521159  -0.232   4.012  10.916 -0.2382  0.2588 -0.0929
  185SAPI   HO521160  -0.304   4.070  10.893 -1.0075  0.9595  3.4893
  185SAPI   C1621161  -0.065   4.197  10.962  0.3611  0.5725 -0.5187
  185SAPI    H621162  -0.134   4.279  10.933 -0.1691  0.2778 -0.1133
  185SAPI    O621163  -0.076   4.171  11.101 -0.1773 -0.1608 -0.6382
  185SAPI   HO621164  -0.080   4.255  11.148 -1.0775  0.4334 -1.7182
  185SAPI   C1121165   0.075   4.245  10.924  0.2525  0.4442 -0.3257
  185SAPI    H121166   0.148   4.175  10.970  0.6852  2.1957  1.7930
  185SAPI     P21167   0.226   4.422  11.054  0.7394 -0.0363 -0.0924
  185SAPI   O1321168   0.292   4.319  11.129 -0.3238  0.0976 -0.5634
  185SAPI   O1421169   0.217   4.551  11.129  0.6424  0.1710 -0.2315
  185SAPI   O1221170   0.081   4.371  11.000  0.3458  0.4661 -0.2782
  185SAPI   O1121171   0.301   4.454  10.915 -0.0783  0.1611 -0.0729
  185SAPI    C121172   0.442   4.471  10.918  0.2733 -0.8897  0.1138
  185SAPI    HA21173   0.468   4.571  10.958 -0.8804 -0.4215 -0.2761
  185SAPI    HB21174   0.503   4.399  10.978  2.1418 -2.4719 -3.3573
  185SAPI    C221175   0.507   4.464  10.777  0.0947 -0.7051  0.0952
  185SAPI    HS21176   0.576   4.546  10.751 -1.2418  0.7775  1.0618
  185SAPI   O2121177   0.404   4.448  10.679 -0.4551 -0.3358 -0.1734
  185SAPI   C2121178   0.352   4.571  10.645 -0.5701  0.6927  0.3448
  185SAPI   O2221179   0.371   4.678  10.705 -0.1043  0.1140 -0.3374
  185SAPI   C2221180   0.263   4.555  10.524 -0.4003  0.2166  0.0453
  185SAPI   H2R21181   0.158   4.549  10.559 -1.0173 -0.6868 -1.7924
  185SAPI   H2S21182   0.271   4.648  10.464  0.4458 -0.5650 -1.1078
  185SAPI    C321183   0.602   4.334  10.786 -0.3355  0.1818  0.4863
  185SAPI    HX21184   0.534   4.246  10.794 -1.7389  0.7662 -3.0668
  185SAPI    HY21185   0.668   4.340  10.875  0.6033 -2.7678  0.0885
  185SAPI   O3121186   0.691   4.317  10.681 -0.3778 -0.3587  0.3084
  185SAPI   C3121187   0.646   4.248  10.572 -0.9747  0.4112 -0.1167
  185SAPI   O3221188   0.540   4.188  10.566 -0.9529  0.0419  0.3474
  185SAPI   C3221189   0.755   4.248  10.466 -0.1179 -0.4299 -0.1387
  185SAPI   H2X21190   0.778   4.143  10.438 -0.0653 -0.7071  0.9018
  185SAPI   H2Y21191   0.846   4.287  10.515 -1.3909  0.3779  1.6595
  185SAPI   C2321192   0.301   4.429  10.434 -0.5857  0.0499 -0.0482
  185SAPI   H3R21193   0.251   4.350  10.494 -1.7281  1.0079  0.3057
  185SAPI   H3S21194   0.412   4.420  10.436 -0.5075  1.0417  1.4044
  185SAPI   C2421195   0.257   4.441  10.289  0.1042  0.1106  0.3423
  185SAPI   H4R21196   0.326   4.513  10.242  0.9943 -1.6203 -1.1195
  185SAPI   H4S21197   0.153   4.480  10.281 -0.0201 -0.4225 -0.7351
  185SAPI   C2521198   0.286   4.305  10.231 -0.4623 -0.1256 -0.2467
  185SAPI   H5R21199   0.286   4.220  10.300 -2.5877  0.8900  1.0938
  185SAPI   C2621200   0.286   4.284  10.100  0.1063 -0.1430  0.4418
  185SAPI   H6R21201   0.298   4.181  10.062 -0.4018  0.0072 -0.1417
  185SAPI   C2721202   0.268   4.387   9.992  0.1635  0.1498  0.1798
  185SAPI   H7R21203   0.371   4.426   9.973  1.0901 -1.7266  1.1071
  185SAPI   H7S21204   0.211   4.471  10.036  0.2914 -0.2246  1.0754
  185SAPI   C2821205   0.197   4.335   9.870 -0.3072 -0.5090 -0.5781
  185SAPI   H8R21206   0.091   4.314   9.887 -0.4509  1.1395  0.8915
  185SAPI   C2921207   0.245   4.315   9.745 -0.3216 -0.4709 -0.1781
  185SAPI   H9R21208   0.177   4.273   9.669 -1.1448  1.4020 -0.5337
  185SAPI  C21021209   0.392   4.333   9.702 -0.1711  0.7820 -0.5886
  185SAPI  H10R21210   0.443   4.375   9.792  3.6830 -1.4394 -1.4695
  185SAPI  H10S21211   0.401   4.406   9.619 -0.5800  1.0992 -0.3530
  185SAPI  C21121212   0.478   4.210   9.665  0.4874 -0.0535  0.5336
  185SAPI  H11R21213   0.487   4.132   9.742 -2.6996 -0.6322  0.4415
  185SAPI  C21221214   0.546   4.188   9.550 -0.4274  0.2302  0.6064
  185SAPI  H12R21215   0.597   4.092   9.534  0.5673  0.9153 -0.5037
  185SAPI  C21321216   0.550   4.284   9.433 -0.3317  0.1043  0.4630
  185SAPI  H13R21217   0.634   4.253   9.367 -0.7344  0.8495 -0.4103
  185SAPI  H13S21218   0.579   4.388   9.460  0.8294 -0.2665  0.7218
  185SAPI  C21421219   0.427   4.288   9.348 -0.1211 -0.2987 -0.0040
  185SAPI  H14R21220   0.333   4.248   9.388  0.4465 -1.8642 -0.1476
  185SAPI  C21521221   0.429   4.318   9.218  0.1676 -0.7435 -1.2537
  185SAPI  H15R21222   0.335   4.313   9.161 -0.7102  0.4415  0.0077
  185SAPI  C21621223   0.548   4.359   9.138 -0.2944  0.0126  0.4781
  185SAPI  H16R21224   0.634   4.292   9.159  1.7638  1.9469 -1.2826
  185SAPI  H16S21225   0.577   4.462   9.166  0.7283 -0.8321  2.6996
  185SAPI  C21721226   0.523   4.363   8.986 -0.2117 -0.1797  0.0003
  185SAPI  H17R21227   0.443   4.438   8.965  0.1440  0.1522 -0.1821
  185SAPI  H17S21228   0.481   4.265   8.954 -0.3776  0.5557 -2.2415
  185SAPI  C21821229   0.645   4.392   8.895  0.4394 -0.2709  0.3470
  185SAPI  H18R21230   0.736   4.336   8.926  0.5439  0.3209  1.1478
  185SAPI  H18S21231   0.664   4.501   8.905  0.5935 -0.3163  0.5634
  185SAPI  C21921232   0.617   4.351   8.745  0.4671 -0.2321 -0.3317
  185SAPI  H19R21233   0.528   4.410   8.714 -1.4118 -1.7756  1.8324
  185SAPI  H19S21234   0.595   4.245   8.721 -0.6550  0.2567 -1.6085
  185SAPI  C22021235   0.739   4.391   8.663  0.1263 -0.0765  0.5567
  185SAPI  H20R21236   0.731   4.341   8.565  1.8105  0.8275 -0.0766
  185SAPI  H20S21237   0.835   4.368   8.714  1.2136 -1.6458 -2.0092
  185SAPI  H20T21238   0.733   4.496   8.628 -1.5999  0.2487  1.6627
  185SAPI   C3321239   0.710   4.336  10.351  0.3129  0.1730 -0.4051
  185SAPI   H3X21240   0.665   4.433  10.381 -1.5774 -0.3106 -1.5129
  185SAPI   H3Y21241   0.625   4.291  10.296  0.2921 -0.3311  0.0258
  185SAPI   C3421242   0.819   4.366  10.247  1.0738 -0.8734  0.4019
  185SAPI   H4X21243   0.839   4.267  10.201  1.4168 -1.1337  1.0998
  185SAPI   H4Y21244   0.913   4.412  10.286  2.4310 -0.7206 -2.7233
  185SAPI   C3521245   0.755   4.464  10.145 -1.0774 -0.5213  0.6342
  185SAPI   H5X21246   0.778   4.569  10.170 -2.9847  0.5004 -1.5629
  185SAPI   H5Y21247   0.646   4.458  10.124 -1.1780  3.3079 -0.6239
  185SAPI   C3621248   0.829   4.440  10.012 -0.3320  0.3725 -0.8310
  185SAPI   H6X21249   0.804   4.338   9.975 -0.7181  0.4163 -0.6952
  185SAPI   H6Y21250   0.936   4.456  10.033  0.4494 -3.3990 -1.1231
  185SAPI   C3721251   0.778   4.543   9.908 -0.3528  0.2568  0.2419
  185SAPI   H7X21252   0.788   4.645   9.949 -2.6831  0.6254  0.0271
  185SAPI   H7Y21253   0.669   4.528   9.892 -0.6996  1.1587  1.6057
  185SAPI   C3821254   0.846   4.519   9.774  0.6922 -0.2850 -0.2997
  185SAPI   H8X21255   0.950   4.487   9.797 -0.8486 -3.0310  4.2789
  185SAPI   H8Y21256   0.851   4.619   9.726  0.0729  0.2657  0.7515
  185SAPI   C3921257   0.767   4.418   9.685  0.2768  0.0361 -0.4214
  185SAPI   H9X21258   0.663   4.458   9.675  1.0549  2.4881  0.5134
  185SAPI   H9Y21259   0.759   4.322   9.740 -2.0223  0.8609  0.8347
  185SAPI  C31021260   0.845   4.400   9.557  0.0736 -0.7830  0.6987
  185SAPI  H10X21261   0.800   4.307   9.515 -1.5232 -0.7646  2.2496
  185SAPI  H10Y21262   0.950   4.375   9.583 -0.5566 -1.6314  2.7229
  185SAPI  C31121263   0.829   4.528   9.466 -0.3978 -0.2931 -0.5529
  185SAPI  H11X21264   0.887   4.613   9.509  1.1467 -0.4426 -2.2158
  185SAPI  H11Y21265   0.719   4.547   9.467 -0.8280 -2.5160 -0.9099
  185SAPI  C31221266   0.892   4.512   9.329 -0.2058  0.0772  0.7399
  185SAPI  H12X21267   0.851   4.421   9.279 -2.2487  0.5169  1.5128
  185SAPI  H12Y21268   1.003   4.518   9.337  0.0424  3.0848 -2.6043
  185SAPI  C31321269   0.856   4.622   9.221  0.3859  0.2738 -0.4449
  185SAPI  H13X21270   0.894   4.716   9.267  1.8666 -1.3257  1.8445
  185SAPI  H13Y21271   0.747   4.638   9.204  0.6609  1.4562 -1.1957
  185SAPI  C31421272   0.916   4.601   9.083  0.1103  0.1800  0.2355
  185SAPI  H14X21273   0.887   4.497   9.055 -0.6571  1.2929 -3.7427
  185SAPI  H14Y21274   1.026   4.599   9.099 -0.2774 -0.0556  3.5083
  185SAPI  C31521275   0.870   4.710   8.980 -0.1773  0.2827 -0.0603
  185SAPI  H15X21276   0.918   4.805   9.009  0.8903 -0.0359 -0.7451
  185SAPI  H15Y21277   0.761   4.727   8.969 -0.1325  1.5927  1.1335
  185SAPI  C31621278   0.935   4.669   8.850  1.0093 -0.1322  0.0281
  185SAPI  H16X21279   0.891   4.568   8.833 -2.5040  1.1615  0.6818
  185SAPI  H16Y21280   1.045   4.666   8.865  0.9346  1.9614  1.3982
  185SAPI  C31721281   0.876   4.762   8.743 -0.5512  0.3358  0.1192
  185SAPI  H17X21282   0.901   4.866   8.771 -0.1107  0.2266  0.1341
  185SAPI  H17Y21283   0.766   4.744   8.739 -0.6584 -0.0565  2.9966
  185SAPI  C31821284   0.951   4.732   8.610 -0.2400 -0.4983  0.0861
  185SAPI  H18X21285   1.055   4.710   8.641 -0.3281 -1.2445 -0.1413
  185SAPI  H18Y21286   0.955   4.826   8.551  1.6664 -0.3648  0.3604
  185SAPI  H18Z21287   0.907   4.653   8.546  0.3620 -1.2860  0.6254
  186SAPI   C1221288   0.649   2.230  10.828  0.0400 -0.2012 -0.1987
  186SAPI    H221289   0.647   2.336  10.863  1.1059 -0.2837  0.1530
  186SAPI    O221290   0.714   2.153  10.932 -0.7409  0.2636 -0.6067
  186SAPI   HO221291   0.745   2.220  10.993  1.4719 -0.2359 -1.1150
  186SAPI   C1321292   0.502   2.189  10.813 -0.7884  0.0488  0.7342
  186SAPI    H321293   0.464   2.261  10.738  2.0761  1.1965  0.2656
  186SAPI    O321294   0.430   2.207  10.939  0.4321 -0.5661  0.0572
  186SAPI   HO321295   0.460   2.135  10.994  3.2092  2.0327  2.2706
  186SAPI   C1421296   0.487   2.045  10.758  0.1086  0.4657  0.7313
  186SAPI    H421297   0.536   1.973  10.827 -1.8297 -1.5096  0.1645
  186SAPI    O421298   0.356   2.016  10.742  0.0361  0.1542 -0.1748
  186SAPI   HO421299   0.347   1.921  10.750  0.5125  0.2209  1.5297
  186SAPI   C1521300   0.559   2.033  10.626 -0.2254 -0.4447 -0.2051
  186SAPI    H521301   0.518   2.111  10.558 -1.3561  1.0654  2.0782
  186SAPI    O521302   0.543   1.913  10.560 -0.1691  0.5044 -0.6428
  186SAPI   HO521303   0.539   1.938  10.468 -0.8002  1.3294 -0.4062
  186SAPI   C1621304   0.705   2.079  10.630 -0.6014 -0.1830  0.0049
  186SAPI    H621305   0.759   2.008  10.697 -0.2464  1.1185  1.1449
  186SAPI    O621306   0.775   2.065  10.506 -0.0518  0.5117 -0.3530
  186SAPI   HO621307   0.851   2.124  10.504 -0.9798  1.9753  2.2370
  186SAPI   C1121308   0.725   2.217  10.691 -0.2225 -0.1073  0.0953
  186SAPI    H121309   0.681   2.287  10.616  0.5637 -0.0082 -0.2851
  186SAPI     P21310   0.932   2.395  10.708 -0.0590  0.5531  0.3532
  186SAPI   O1321311   1.044   2.390  10.802  0.1237  1.0158  0.1143
  186SAPI   O1421312   0.819   2.480  10.746  0.7149  0.2562 -0.4473
  186SAPI   O1221313   0.869   2.242  10.702  0.2825 -0.4258  0.5583
  186SAPI   O1121314   0.975   2.430  10.564 -0.5113 -0.0415  0.4496
  186SAPI    C121315   0.897   2.409  10.447 -0.1199  0.0919  0.0270
  186SAPI    HA21316   0.855   2.307  10.437 -1.1200  0.5289 -0.3938
  186SAPI    HB21317   0.809   2.475  10.433 -0.2086  0.0742  0.5002
  186SAPI    C221318   0.982   2.414  10.316  0.0474  0.0267 -0.3989
  186SAPI    HS21319   1.030   2.514  10.320  0.1917 -0.0703  0.9055
  186SAPI   O2121320   0.893   2.412  10.205  0.1465  0.3636 -0.4060
  186SAPI   C2121321   0.948   2.443  10.089 -0.4577  0.0863 -0.1877
  186SAPI   O2221322   1.060   2.488  10.072  0.3097  0.5965 -0.1129
  186SAPI   C2221323   0.862   2.408   9.967 -0.8740 -0.4756 -0.7553
  186SAPI   H2R21324   0.821   2.308   9.993 -0.2862 -0.2881  0.9950
  186SAPI   H2S21325   0.779   2.483   9.964 -1.4874 -1.1113  0.0503
  186SAPI    C321326   1.087   2.307  10.303 -0.7529 -0.3509  0.4862
  186SAPI    HX21327   1.155   2.320  10.389 -2.5091  0.3746  1.8333
  186SAPI    HY21328   1.161   2.329  10.224 -0.8965 -1.3859  0.0382
  186SAPI   O3121329   1.023   2.171  10.296  0.3719 -0.2642  0.1872
  186SAPI   C3121330   1.027   2.110  10.181  0.2604 -0.1152 -0.1517
  186SAPI   O3221331   1.078   2.154  10.079 -0.1000  0.2496 -0.7214
  186SAPI   C3221332   0.940   1.982  10.200  0.2372 -0.0314  0.1761
  186SAPI   H2X21333   0.834   2.014  10.214 -0.1514 -0.5246 -1.4485
  186SAPI   H2Y21334   0.973   1.931  10.293  0.3563 -0.3630 -0.0465
  186SAPI   C2321335   0.952   2.391   9.843 -0.0774  0.8210  0.4394
  186SAPI   H3R21336   1.034   2.321   9.871 -0.1921  0.5283  0.0604
  186SAPI   H3S21337   1.010   2.485   9.832  0.5647  0.4825  0.8573
  186SAPI   C2421338   0.874   2.355   9.712  0.3428  0.1452  0.2733
  186SAPI   H4R21339   0.825   2.450   9.682 -0.8931 -0.3176  0.7464
  186SAPI   H4S21340   0.796   2.282   9.745 -0.0869 -0.1157 -1.2496
  186SAPI   C2521341   0.971   2.267   9.632  0.6028 -0.0690  0.0843
  186SAPI   H5R21342   1.037   2.194   9.680  0.5381  0.9492  1.8311
  186SAPI   C2621343   0.968   2.261   9.505 -0.1308 -0.4634  0.1370
  186SAPI   H6R21344   1.024   2.189   9.444  1.0335  1.9645 -1.8486
  186SAPI   C2721345   0.873   2.339   9.414  0.0013  0.5259  0.3489
  186SAPI   H7R21346   0.797   2.383   9.481 -2.1986 -0.9437 -1.0616
  186SAPI   H7S21347   0.816   2.264   9.355  0.2099  0.2615  0.4836
  186SAPI   C2821348   0.941   2.447   9.338 -0.2239  0.0236 -0.5451
  186SAPI   H8R21349   1.039   2.472   9.382  0.0048 -0.6161 -0.6821
  186SAPI   C2921350   0.886   2.536   9.253  0.3812 -0.9792  0.6749
  186SAPI   H9R21351   0.950   2.619   9.222  0.3202 -1.5737 -1.1379
  186SAPI  C21021352   0.740   2.547   9.200  0.3577 -0.6649  0.8122
  186SAPI  H10R21353   0.729   2.655   9.178 -1.0414 -0.6561  1.4461
  186SAPI  H10S21354   0.663   2.532   9.279 -0.8475  0.6254 -0.0801
  186SAPI  C21121355   0.712   2.457   9.088 -0.1040 -0.1354  0.2702
  186SAPI  H11R21356   0.719   2.354   9.125 -0.5211  0.1198  1.0941
  186SAPI  C21221357   0.672   2.472   8.959 -0.2462 -0.2614  0.3621
  186SAPI  H12R21358   0.659   2.373   8.912 -0.4501 -1.2775  2.4568
  186SAPI  C21321359   0.657   2.598   8.881  0.4130 -0.7344  0.1067
  186SAPI  H13R21360   0.709   2.683   8.932 -1.8845 -0.0028  1.3656
  186SAPI  H13S21361   0.547   2.609   8.875  0.3998 -0.5221  0.6347
  186SAPI  C21421362   0.709   2.584   8.737 -0.0701 -0.7308  0.2180
  186SAPI  H14R21363   0.810   2.541   8.734  0.3649 -0.0368  2.4455
  186SAPI  C21521364   0.646   2.598   8.616 -0.1877 -0.5965 -0.6825
  186SAPI  H15R21365   0.714   2.589   8.530 -0.1588 -2.3184 -0.5208
  186SAPI  C21621366   0.501   2.635   8.587  0.0258 -0.6280  0.0954
  186SAPI  H16R21367   0.451   2.659   8.684 -0.8031  0.3605 -0.5551
  186SAPI  H16S21368   0.454   2.551   8.532  0.3664 -1.6002  1.2547
  186SAPI  C21721369   0.494   2.764   8.503  0.5083 -0.3577 -0.4543
  186SAPI  H17R21370   0.540   2.750   8.403  0.7914  0.5408 -0.4534
  186SAPI  H17S21371   0.542   2.843   8.565 -0.9401 -1.4330  2.2095
  186SAPI  C21821372   0.350   2.798   8.476 -0.0069 -0.0818 -0.4580
  186SAPI  H18R21373   0.301   2.850   8.562  0.4654  1.8420 -1.3049
  186SAPI  H18S21374   0.293   2.705   8.457  0.4255 -0.2304 -1.0567
  186SAPI  C21921375   0.329   2.900   8.360 -1.0143 -0.3987  0.1306
  186SAPI  H19R21376   0.354   2.854   8.262 -0.1502 -0.8271  0.5387
  186SAPI  H19S21377   0.392   2.988   8.381 -1.9998  0.0057  1.5622
  186SAPI  C22021378   0.183   2.952   8.358 -0.0247 -0.8467  0.0018
  186SAPI  H20R21379   0.170   3.018   8.269  0.2101  0.1118  0.6610
  186SAPI  H20S21380   0.159   3.013   8.448 -0.2612 -0.4437 -0.3235
  186SAPI  H20T21381   0.103   2.876   8.351  0.1833 -1.0419 -0.2870
  186SAPI   C3321382   0.937   1.892  10.074  0.2385  0.7011 -0.3959
  186SAPI   H3X21383   0.880   1.802  10.106 -0.0588 -0.0821 -2.8688
  186SAPI   H3Y21384   1.038   1.853  10.046 -0.2517 -1.4711  0.6100
  186SAPI   C3421385   0.859   1.945   9.951 -0.8916  1.1842 -0.5665
  186SAPI   H4X21386   0.919   2.030   9.912 -0.8979  0.4918 -2.1322
  186SAPI   H4Y21387   0.751   1.967   9.963 -1.2803  0.0447 -1.7507
  186SAPI   C3521388   0.853   1.842   9.835 -0.5584  0.2087 -0.2651
  186SAPI   H5X21389   0.801   1.752   9.873  0.2367 -0.5336 -0.9040
  186SAPI   H5Y21390   0.956   1.812   9.806 -1.1102 -0.5065 -1.5635
  186SAPI   C3621391   0.777   1.883   9.706 -0.4686 -0.3730 -0.4716
  186SAPI   H6X21392   0.818   1.985   9.691  0.3669 -0.7286 -0.6708
  186SAPI   H6Y21393   0.669   1.890   9.732 -0.4831  1.7264 -0.9162
  186SAPI   C3721394   0.804   1.806   9.580  0.2064 -0.1391  0.5039
  186SAPI   H7X21395   0.810   1.697   9.599 -0.6590 -0.5665 -1.3890
  186SAPI   H7Y21396   0.911   1.820   9.554  0.6289 -0.4851  1.9631
  186SAPI   C3821397   0.712   1.841   9.468  0.5081  0.0476  1.9811
  186SAPI   H8X21398   0.727   1.949   9.446  1.1866 -0.5201 -0.6556
  186SAPI   H8Y21399   0.605   1.821   9.492 -0.4936  0.2007 -1.7646
  186SAPI   C3921400   0.731   1.790   9.327 -0.6173  0.1543 -0.0594
  186SAPI   H9X21401   0.735   1.679   9.330 -0.6014  0.1099 -1.3117
  186SAPI   H9Y21402   0.834   1.818   9.295 -1.0561  1.8672 -0.0366
  186SAPI  C31021403   0.612   1.834   9.236 -0.6465  0.3897 -0.6539
  186SAPI  H10X21404   0.604   1.945   9.248  1.8946  0.5095  0.4931
  186SAPI  H10Y21405   0.520   1.793   9.282  0.0659 -0.9414 -0.3906
  186SAPI  C31121406   0.642   1.796   9.090 -0.1372  0.4151 -0.6450
  186SAPI  H11X21407   0.614   1.689   9.078 -1.0365  0.4602  0.7780
  186SAPI  H11Y21408   0.753   1.806   9.087 -0.1086  0.5888  0.4021
  186SAPI  C31221409   0.569   1.885   8.992 -0.6050  0.1327  0.4529
  186SAPI  H12X21410   0.623   1.875   8.896 -1.3589 -5.1281  0.2587
  186SAPI  H12Y21411   0.578   1.993   9.018 -0.4623  0.0756  0.6452
  186SAPI  C31321412   0.423   1.858   8.963 -0.0682  0.4144  0.0212
  186SAPI  H13X21413   0.390   1.917   8.875 -0.1392 -0.5404 -0.6131
  186SAPI  H13Y21414   0.360   1.867   9.054  1.2912 -0.0774  1.0482
  186SAPI  C31421415   0.410   1.710   8.916 -0.2137  0.1128  0.9793
  186SAPI  H14X21416   0.300   1.702   8.903 -0.2489 -1.4629  1.9489
  186SAPI  H14Y21417   0.442   1.641   8.997 -0.0059  0.3269  1.0778
  186SAPI  C31521418   0.489   1.675   8.787 -0.5784  0.5376  0.1167
  186SAPI  H15X21419   0.597   1.659   8.810 -0.5534  1.3295  0.5996
  186SAPI  H15Y21420   0.474   1.764   8.721 -2.0310  1.7837  2.0115
  186SAPI  C31621421   0.427   1.559   8.710 -0.1898 -0.2248 -0.7100
  186SAPI  H16X21422   0.334   1.597   8.663  1.0081  0.9552 -2.2537
  186SAPI  H16Y21423   0.404   1.479   8.784  2.0645  3.0423  4.0573
  186SAPI  C31721424   0.522   1.497   8.600  0.2859  0.1911 -0.3347
  186SAPI  H17X21425   0.627   1.520   8.629 -0.4823  1.1381  1.9790
  186SAPI  H17Y21426   0.495   1.557   8.510 -0.9171  2.3336  1.3356
  186SAPI  C31821427   0.504   1.343   8.594  0.2855  0.6646  0.1010
  186SAPI  H18X21428   0.560   1.290   8.674 -1.3629 -0.0228  0.8489
  186SAPI  H18Y21429   0.564   1.311   8.506 -1.2110 -0.2748 -0.6368
  186SAPI  H18Z21430   0.399   1.306   8.590  1.1489 -2.7097  3.2051
  187SAPI   C1221431   0.852   2.937   6.174 -0.0716 -0.3993  0.3006
  187SAPI    H221432   0.954   2.940   6.218  0.5444  0.1306 -1.0858
  187SAPI    O221433   0.838   3.035   6.073 -0.2091  0.1681  0.5908
  187SAPI   HO221434   0.916   3.091   6.071  2.3367 -3.0487 -2.3152
  187SAPI   C1321435   0.827   2.799   6.124 -0.2122  0.4812  0.0480
  187SAPI    H321436   0.842   2.733   6.212  1.2919 -0.1472 -0.6518
  187SAPI    O321437   0.926   2.760   6.027  0.1633  0.3523 -0.1364
  187SAPI   HO321438   0.934   2.831   5.964 -1.1301  1.5367  0.9880
  187SAPI   C1421439   0.681   2.782   6.072 -0.6569 -0.3888  0.1264
  187SAPI    H421440   0.660   2.857   5.993 -3.0627 -1.4302 -0.3008
  187SAPI    O421441   0.666   2.649   6.007  0.3102 -0.1451 -0.3564
  187SAPI   HO421442   0.631   2.655   5.918 -0.5049 -1.3338 -0.1425
  187SAPI   C1521443   0.583   2.812   6.186  0.2476 -0.5619 -0.0537
  187SAPI    H521444   0.603   2.743   6.270 -1.0052 -1.2183 -0.2699
  187SAPI    O521445   0.437   2.802   6.149 -0.0387 -0.6630 -0.3858
  187SAPI   HO521446   0.392   2.786   6.232  1.7154 -1.0423  0.5453
  187SAPI   C1621447   0.609   2.952   6.244  0.4539 -0.0688 -0.3333
  187SAPI    H621448   0.585   3.027   6.166  1.1640 -1.2117 -1.6950
  187SAPI    O621449   0.524   2.977   6.353  0.1516 -0.2322 -0.3387
  187SAPI   HO621450   0.567   3.054   6.391 -2.7700  0.5550  1.7249
  187SAPI   C1121451   0.755   2.975   6.287  0.4661 -0.8272 -0.1285
  187SAPI    H121452   0.769   2.899   6.367 -0.4601  1.1384  2.0588
  187SAPI     P21453   0.882   3.130   6.451 -0.3184 -0.3771 -0.0153
  187SAPI   O1321454   0.897   3.278   6.463  0.2572  0.3128 -0.0891
  187SAPI   O1421455   1.005   3.053   6.428  0.1375  0.2187 -0.3245
  187SAPI   O1221456   0.769   3.108   6.339 -0.1663  0.3291  0.2100
  187SAPI   O1121457   0.823   3.073   6.584  0.1323 -0.4224  0.1098
  187SAPI    C121458   0.692   3.120   6.625  0.3107 -0.5874  0.3595
  187SAPI    HA21459   0.656   3.211   6.572  1.0328  1.6260  3.3750
  187SAPI    HB21460   0.626   3.035   6.598 -0.4671  0.6646 -2.0139
  187SAPI    C221461   0.694   3.157   6.778 -0.3856  0.7572 -0.1787
  187SAPI    HS21462   0.780   3.227   6.787  0.9214 -0.7151 -0.8145
  187SAPI   O2121463   0.726   3.040   6.860  0.0477  0.6445 -0.8523
  187SAPI   C2121464   0.787   3.071   6.970  0.9843  1.3449  0.5387
  187SAPI   O2221465   0.814   3.177   7.008 -0.1513 -0.3657  0.2641
  187SAPI   C2221466   0.808   2.944   7.067 -0.5376  0.2328  0.0046
  187SAPI   H2R21467   0.845   2.861   7.002 -0.3238 -1.2857  1.9889
  187SAPI   H2S21468   0.873   2.971   7.153 -0.2723 -2.0980  0.5904
  187SAPI    C321469   0.552   3.204   6.822  0.4992  0.0075 -0.1413
  187SAPI    HX21470   0.483   3.119   6.838 -1.7347  1.5592 -1.1256
  187SAPI    HY21471   0.506   3.263   6.740 -0.6056  1.0484  1.1771
  187SAPI   O3121472   0.560   3.289   6.936  0.0824 -0.0625  0.4816
  187SAPI   C3121473   0.448   3.338   6.977 -0.2347  0.1713  0.8624
  187SAPI   O3221474   0.342   3.322   6.921  0.4267 -0.4949 -0.3770
  187SAPI   C3221475   0.485   3.417   7.097 -0.4257 -0.0976 -0.5882
  187SAPI   H2X21476   0.552   3.494   7.053  0.9733 -0.3405  1.0521
  187SAPI   H2Y21477   0.538   3.353   7.170 -0.4351 -0.4076 -0.8498
  187SAPI   C2321478   0.670   2.891   7.119  0.0274  0.1152 -0.6140
  187SAPI   H3R21479   0.595   2.899   7.038 -0.7427 -1.3753 -0.0783
  187SAPI   H3S21480   0.651   2.968   7.196 -1.3399  0.1928 -1.0037
  187SAPI   C2421481   0.660   2.753   7.169 -0.2837  0.1461  0.0719
  187SAPI   H4R21482   0.716   2.689   7.098  2.1539  2.9212 -0.6952
  187SAPI   H4S21483   0.552   2.725   7.166 -0.0459 -0.7438 -0.5680
  187SAPI   C2521484   0.710   2.738   7.306  0.0984  0.2632  0.5680
  187SAPI   H5R21485   0.696   2.830   7.364 -2.1676 -0.0720  0.6520
  187SAPI   C2621486   0.757   2.623   7.359 -0.1928  0.6795 -0.8306
  187SAPI   H6R21487   0.801   2.628   7.459  0.0978  2.5999 -1.0187
  187SAPI   C2721488   0.774   2.489   7.291 -0.3695  0.2551 -0.1655
  187SAPI   H7R21489   0.883   2.485   7.270 -0.2651  1.7241 -0.0375
  187SAPI   H7S21490   0.737   2.487   7.187 -2.2080 -1.3772  0.4576
  187SAPI   C2821491   0.716   2.375   7.366 -0.2426 -0.2179  0.0249
  187SAPI   H8R21492   0.606   2.368   7.364 -0.2420 -0.2540 -1.9777
  187SAPI   C2921493   0.787   2.282   7.433 -0.2678 -0.1326  0.5515
  187SAPI   H9R21494   0.738   2.196   7.482  0.1980 -0.1875  0.9386
  187SAPI  C21021495   0.941   2.282   7.438 -1.1508 -0.8998 -0.5587
  187SAPI  H10R21496   0.975   2.214   7.519  0.5048  0.2803 -0.2183
  187SAPI  H10S21497   0.993   2.376   7.466  0.3104 -1.4657 -1.2681
  187SAPI  C21121498   1.016   2.231   7.316  0.6976  0.4418 -0.4384
  187SAPI  H11R21499   0.949   2.180   7.246  0.8167  1.9179 -1.6851
  187SAPI  C21221500   1.136   2.271   7.273  0.2406  0.3057 -0.2802
  187SAPI  H12R21501   1.177   2.236   7.178  1.0057 -0.0534  0.1809
  187SAPI  C21321502   1.212   2.382   7.333  0.1679  0.1635  0.1810
  187SAPI  H13R21503   1.315   2.344   7.352 -0.0996 -1.0762 -0.7184
  187SAPI  H13S21504   1.188   2.422   7.433  0.8116 -0.7801  0.7225
  187SAPI  C21421505   1.230   2.494   7.235 -0.7993 -0.5549  0.3986
  187SAPI  H14R21506   1.212   2.471   7.129  2.1915 -0.9311 -0.1084
  187SAPI  C21521507   1.241   2.630   7.263  0.6514 -0.2003  0.3495
  187SAPI  H15R21508   1.224   2.701   7.181 -1.8039  0.1636  1.1058
  187SAPI  C21621509   1.256   2.708   7.393  0.1593  0.2609 -0.3174
  187SAPI  H16R21510   1.328   2.791   7.381  2.6397 -1.6442  0.5831
  187SAPI  H16S21511   1.306   2.645   7.469  0.2428  0.2651 -0.3693
  187SAPI  C21721512   1.135   2.777   7.468 -0.7681  0.0356 -0.1434
  187SAPI  H17R21513   1.177   2.799   7.568  1.6679 -1.7782 -0.6836
  187SAPI  H17S21514   1.047   2.709   7.476 -0.6446 -0.1704 -0.5283
  187SAPI  C21821515   1.084   2.910   7.400  0.1151 -0.3348  0.0629
  187SAPI  H18R21516   1.016   2.887   7.315 -0.6987 -2.2770  1.1724
  187SAPI  H18S21517   1.177   2.951   7.354  0.4244 -2.3127 -1.1990
  187SAPI  C21921518   1.026   3.018   7.490 -0.0113 -0.2359 -0.2237
  187SAPI  H19R21519   1.013   3.111   7.431  1.8019 -0.5927 -1.2380
  187SAPI  H19S21520   1.103   3.036   7.569 -0.2821 -0.1484  0.0234
  187SAPI  C22021521   0.899   2.970   7.568 -0.1527  0.0977 -0.2163
  187SAPI  H20R21522   0.907   2.860   7.581 -0.4193 -0.3982 -3.4380
  187SAPI  H20S21523   0.815   2.975   7.496  0.0646 -1.8298 -0.6614
  187SAPI  H20T21524   0.872   3.019   7.664  1.0308  1.2261 -0.4318
  187SAPI   C3321525   0.355   3.473   7.163  0.6919  0.9705  0.2527
  187SAPI   H3X21526   0.270   3.402   7.158  1.0409  0.2907  2.6197
  187SAPI   H3Y21527   0.339   3.567   7.106 -1.7322  1.4721  1.6128
  187SAPI   C3421528   0.382   3.503   7.318 -0.5606  0.2596  0.2686
  187SAPI   H4X21529   0.464   3.577   7.313 -1.7983  1.6051 -3.9575
  187SAPI   H4Y21530   0.411   3.406   7.365  0.7842  1.1677  1.3678
  187SAPI   C3521531   0.271   3.578   7.384  0.3939  0.0586 -0.8760
  187SAPI   H5X21532   0.185   3.513   7.358 -0.8119  1.5665 -0.8191
  187SAPI   H5Y21533   0.257   3.682   7.348  0.2858  0.0219 -0.9389
  187SAPI   C3621534   0.293   3.593   7.542 -0.2738  0.3210  0.7250
  187SAPI   H6X21535   0.343   3.690   7.560 -0.4969  0.2135  1.9817
  187SAPI   H6Y21536   0.357   3.505   7.564  1.2412  1.0171 -0.7089
  187SAPI   C3721537   0.163   3.572   7.627 -0.3573  0.5643  0.6097
  187SAPI   H7X21538   0.121   3.479   7.584 -0.1230  1.0288 -0.6566
  187SAPI   H7Y21539   0.084   3.644   7.598 -0.2233  0.3375 -0.3504
  187SAPI   C3821540   0.191   3.569   7.778  0.6247  0.7032  0.7853
  187SAPI   H8X21541   0.235   3.663   7.818  3.4235 -0.2547  0.1540
  187SAPI   H8Y21542   0.262   3.487   7.801 -0.1741 -0.2320  0.0263
  187SAPI   C3921543   0.064   3.527   7.864 -0.2291  0.1158 -0.0615
  187SAPI   H9X21544   0.025   3.437   7.813 -1.6555  0.9150 -0.4478
  187SAPI   H9Y21545  -0.025   3.593   7.871 -0.5806 -0.2165 -1.1636
  187SAPI  C31021546   0.102   3.474   8.006  1.0639  0.5870 -0.5789
  187SAPI  H10X21547   0.163   3.382   8.001 -2.1042 -1.6274 -2.1053
  187SAPI  H10Y21548   0.001   3.452   8.046  0.8880  1.3666 -0.5804
  187SAPI  C31121549   0.174   3.585   8.088 -0.0678 -0.6687  0.2525
  187SAPI  H11X21550   0.106   3.672   8.071 -1.1015 -1.6153 -0.6653
  187SAPI  H11Y21551   0.274   3.601   8.043  0.2035 -0.4298  0.9243
  187SAPI  C31221552   0.177   3.562   8.247 -0.0625  0.6173 -0.1380
  187SAPI  H12X21553   0.209   3.457   8.261 -1.0016  0.5860  2.3501
  187SAPI  H12Y21554   0.074   3.568   8.288  0.3130  2.2803  0.6464
  187SAPI  C31321555   0.265   3.649   8.323 -0.1918  0.1911 -0.5490
  187SAPI  H13X21556   0.240   3.756   8.311  0.6228  0.7441  2.0669
  187SAPI  H13Y21557   0.366   3.636   8.278 -0.3243  1.2286 -1.1717
  187SAPI  C31421558   0.276   3.634   8.480 -0.5438  0.8306  0.3487
  187SAPI  H14X21559   0.355   3.696   8.527  1.8283 -1.5244 -0.2434
  187SAPI  H14Y21560   0.291   3.526   8.503 -0.2194  0.7190 -0.3442
  187SAPI  C31521561   0.141   3.660   8.552  0.8395 -0.9016 -1.0501
  187SAPI  H15X21562   0.049   3.627   8.499 -1.7634  2.2409  1.0718
  187SAPI  H15Y21563   0.126   3.770   8.563 -1.3544 -1.3839  2.0323
  187SAPI  C31621564   0.142   3.603   8.695 -0.1527  0.3527  0.0423
  187SAPI  H16X21565   0.220   3.642   8.763  0.3316  1.4128 -1.0852
  187SAPI  H16Y21566   0.151   3.492   8.695  0.6068  0.3798  1.9078
  187SAPI  C31721567   0.018   3.634   8.773 -0.3587 -1.1035  1.1162
  187SAPI  H17X21568  -0.067   3.614   8.704  2.0726  0.7405 -2.7512
  187SAPI  H17Y21569   0.015   3.743   8.795 -0.2378 -0.9597  0.4318
  187SAPI  C31821570   0.009   3.553   8.906  0.1827  0.2216  0.3071
  187SAPI  H18X21571  -0.080   3.593   8.958 -1.0881 -1.5427 -0.3863
  187SAPI  H18Y21572   0.095   3.583   8.969  0.3400 -1.4071  0.9132
  187SAPI  H18Z21573  -0.010   3.444   8.889 -0.8857  0.0933  2.0679
  188SAPI   C1221574   1.380   0.236   6.304  0.4421 -0.2109 -0.5536
  188SAPI    H221575   1.322   0.321   6.346  1.8907  0.2671  0.5522
  188SAPI    O221576   1.348   0.246   6.172  0.8610  0.1128  0.0661
  188SAPI   HO221577   1.256   0.271   6.155  0.1174 -2.5767 -0.3425
  188SAPI   C1321578   1.536   0.247   6.332  0.0134 -0.2097  0.6133
  188SAPI    H321579   1.556   0.258   6.441  2.8580 -2.2774  0.3898
  188SAPI    O321580   1.585   0.370   6.269 -0.3048 -0.3130  0.1217
  188SAPI   HO321581   1.542   0.377   6.184 -1.4542  0.1942  0.7258
  188SAPI   C1421582   1.611   0.125   6.294  0.0353  0.1178  0.2455
  188SAPI    H421583   1.612   0.125   6.183 -2.4047  1.8370  0.1187
  188SAPI    O421584   1.747   0.127   6.338 -0.0025 -0.4577  0.1494
  188SAPI   HO421585   1.770   0.036   6.356 -0.7234 -0.8691 -0.8876
  188SAPI   C1521586   1.544   0.001   6.350 -0.7156  0.8250  0.3789
  188SAPI    H521587   1.548   0.005   6.461 -0.5200 -1.0915  0.4696
  188SAPI    O521588   1.623  -0.112   6.311  0.1609 -0.0634 -0.0537
  188SAPI   HO521589   1.645  -0.173   6.382  1.3850 -0.8334 -1.0586
  188SAPI   C1621590   1.401  -0.009   6.307  0.4345  0.2159  0.5128
  188SAPI    H621591   1.384  -0.012   6.197 -1.2819  0.9547  0.7362
  188SAPI    O621592   1.342  -0.125   6.363 -0.0262 -0.5134  0.0243
  188SAPI   HO621593   1.252  -0.126   6.330 -0.8992 -1.8833  2.1644
  188SAPI   C1121594   1.325   0.105   6.361  0.4706  0.7278 -0.1771
  188SAPI    H121595   1.343   0.102   6.471  0.8829  0.4078 -0.2502
  188SAPI     P21596   1.080   0.130   6.476  0.2767 -0.0710  0.5914
  188SAPI   O1321597   1.140   0.049   6.586  0.7553 -0.4906 -0.5362
  188SAPI   O1421598   0.939   0.101   6.444  0.0707 -0.2817  0.4243
  188SAPI   O1221599   1.182   0.105   6.349  0.7403  0.1287  0.5187
  188SAPI   O1121600   1.108   0.285   6.504  0.1082 -0.1319 -0.0126
  188SAPI    C121601   1.047   0.356   6.614  0.3422 -0.1952 -0.1114
  188SAPI    HA21602   0.984   0.435   6.567  1.4120  0.3405 -0.6946
  188SAPI    HB21603   0.980   0.295   6.678 -1.3979  1.3893 -0.3294
  188SAPI    C221604   1.154   0.426   6.702  0.1152  0.2776 -0.3693
  188SAPI    HS21605   1.220   0.484   6.635 -1.3515 -2.2666 -4.4100
  188SAPI   O2121606   1.214   0.317   6.783 -0.1256 -0.3192 -0.1982
  188SAPI   C2121607   1.328   0.266   6.750 -0.6970  0.3840 -0.1758
  188SAPI   O2221608   1.390   0.306   6.652  0.5397 -0.8604 -0.2959
  188SAPI   C2221609   1.382   0.168   6.850  0.3614 -0.4430 -0.2159
  188SAPI   H2R21610   1.425   0.234   6.928 -0.7585 -0.2558  0.2617
  188SAPI   H2S21611   1.304   0.109   6.901  0.8583  0.1383  1.2790
  188SAPI    C321612   1.086   0.522   6.798  0.1715 -0.7059 -0.3932
  188SAPI    HX21613   1.050   0.608   6.738 -1.1483  1.2640  2.9560
  188SAPI    HY21614   1.164   0.569   6.861 -0.2165 -0.3993 -0.1382
  188SAPI   O3121615   0.974   0.462   6.874  0.2998 -0.4533 -0.8617
  188SAPI   C3121616   0.957   0.522   6.999 -0.1960  0.1041 -0.0583
  188SAPI   O3221617   1.023   0.612   7.039  0.3340 -0.0892  0.3892
  188SAPI   C3221618   0.844   0.444   7.077 -0.4304 -0.0950  0.0526
  188SAPI   H2X21619   0.879   0.338   7.084 -0.5649 -0.2787 -1.6958
  188SAPI   H2Y21620   0.747   0.455   7.023 -0.9993 -2.4227  0.4758
  188SAPI   C2321621   1.492   0.078   6.782  0.2789  0.0775  0.0083
  188SAPI   H3R21622   1.566   0.143   6.731  1.2950 -0.3894  0.8635
  188SAPI   H3S21623   1.446   0.008   6.709 -0.2441 -0.0787  0.4792
  188SAPI   C2421624   1.572  -0.017   6.877 -1.0966 -0.0189  0.7491
  188SAPI   H4R21625   1.500  -0.069   6.943 -1.0669 -1.7151 -0.5020
  188SAPI   H4S21626   1.640   0.039   6.946  0.2822 -0.5273 -0.1496
  188SAPI   C2521627   1.662  -0.112   6.793 -0.1095 -0.1203  0.4127
  188SAPI   H5R21628   1.619  -0.211   6.771  3.8127 -1.7523 -0.8405
  188SAPI   C2621629   1.781  -0.082   6.742 -0.7962 -0.0422 -0.1411
  188SAPI   H6R21630   1.829  -0.162   6.683 -2.3636 -1.8612  0.9041
  188SAPI   C2721631   1.857   0.044   6.770 -0.1663 -0.1611  0.4731
  188SAPI   H7R21632   1.839   0.074   6.875  0.0479 -0.1912  0.5197
  188SAPI   H7S21633   1.831   0.133   6.709  1.9121  1.3050  1.6053
  188SAPI   C2821634   2.003   0.019   6.740  0.2553  0.0047 -0.6620
  188SAPI   H8R21635   2.043   0.029   6.638 -1.0207  1.9935 -1.0317
  188SAPI   C2921636   2.089  -0.025   6.836 -0.0130  0.8386  0.4078
  188SAPI   H9R21637   2.196  -0.032   6.812 -0.0071  1.9910  0.0224
  188SAPI  C21021638   2.058  -0.059   6.978 -0.8579  0.1496 -0.4365
  188SAPI  H10R21639   1.987   0.015   7.021 -2.8722 -0.3384 -2.7202
  188SAPI  H10S21640   2.156  -0.058   7.031 -0.1347 -0.1872 -1.7095
  188SAPI  C21121641   2.005  -0.200   6.995 -0.0930 -0.0706 -0.0922
  188SAPI  H11R21642   1.980  -0.254   6.903 -1.4146  0.9406 -0.3547
  188SAPI  C21221643   1.972  -0.258   7.111 -0.1900 -0.6709  0.7216
  188SAPI  H12R21644   1.936  -0.362   7.105 -2.3714 -0.0535  2.1692
  188SAPI  C21321645   1.978  -0.197   7.247  0.1406  1.0993  0.3324
  188SAPI  H13R21646   1.931  -0.273   7.313  1.3417 -0.0345 -0.0783
  188SAPI  H13S21647   1.921  -0.102   7.241 -0.0372  1.0287  0.8793
  188SAPI  C21421648   2.119  -0.174   7.298 -0.3147  0.3983 -0.0279
  188SAPI  H14R21649   2.186  -0.127   7.224 -2.8967  2.8638 -0.9638
  188SAPI  C21521650   2.163  -0.210   7.424  0.4976 -0.1868 -0.3555
  188SAPI  H15R21651   2.269  -0.189   7.447  0.5348  0.3800 -1.0246
  188SAPI  C21621652   2.083  -0.282   7.524  0.0664 -0.1565  0.2983
  188SAPI  H16R21653   2.082  -0.388   7.491  2.1931 -0.1547  0.1057
  188SAPI  H16S21654   1.979  -0.242   7.529  0.0429  0.0428 -1.2328
  188SAPI  C21721655   2.146  -0.295   7.661 -0.0186  0.0470 -0.0742
  188SAPI  H17R21656   2.189  -0.196   7.686  0.6583 -0.4326  0.6843
  188SAPI  H17S21657   2.235  -0.360   7.648  0.3012  0.8420 -2.4709
  188SAPI  C21821658   2.060  -0.344   7.773  0.7371  0.5503 -1.1252
  188SAPI  H18R21659   2.019  -0.445   7.751  1.5333  0.3404 -1.7215
  188SAPI  H18S21660   1.981  -0.267   7.778  0.2820  0.0144  0.4328
  188SAPI  C21921661   2.126  -0.346   7.912 -0.7582 -0.3457  0.4581
  188SAPI  H19R21662   2.155  -0.241   7.934  1.1001 -1.1097  2.0350
  188SAPI  H19S21663   2.222  -0.400   7.898  0.2267  1.4057  0.0939
  188SAPI  C22021664   2.041  -0.403   8.028  0.6784 -0.0183 -0.2896
  188SAPI  H20R21665   1.935  -0.418   7.998  0.1155  2.1173  0.4564
  188SAPI  H20S21666   2.045  -0.349   8.125 -0.1570 -0.3778 -0.0504
  188SAPI  H20T21667   2.086  -0.503   8.049  1.8565  0.2686 -1.2912
  188SAPI   C3321668   0.818   0.499   7.213  0.1351  0.4680 -0.4081
  188SAPI   H3X21669   0.721   0.470   7.259 -0.3543 -2.6521 -3.0042
  188SAPI   H3Y21670   0.816   0.609   7.207  2.1212  0.4987 -1.7621
  188SAPI   C3421671   0.927   0.459   7.313 -0.5571 -0.1037  0.6240
  188SAPI   H4X21672   1.014   0.516   7.275 -0.5301 -0.4266  0.1958
  188SAPI   H4Y21673   0.947   0.350   7.305 -1.8189 -0.3141  0.0968
  188SAPI   C3521674   0.891   0.496   7.459  0.3461  0.2198 -0.0410
  188SAPI   H5X21675   0.815   0.422   7.491  0.5756  0.5920  1.4500
  188SAPI   H5Y21676   0.840   0.593   7.440 -1.6234 -0.6709  0.3420
  188SAPI   C3621677   1.000   0.498   7.556 -0.4043  0.7486  1.0501
  188SAPI   H6X21678   1.071   0.579   7.529  2.6556 -1.7497  0.9520
  188SAPI   H6Y21679   1.070   0.412   7.555  1.1064  1.9237  0.9077
  188SAPI   C3721680   0.960   0.518   7.705  0.2373  0.2339 -0.5073
  188SAPI   H7X21681   0.885   0.596   7.727 -0.6041 -0.8245  0.5446
  188SAPI   H7Y21682   1.049   0.534   7.770 -1.2310  0.1963  1.6116
  188SAPI   C3821683   0.902   0.389   7.763 -0.0926  0.1796  0.1209
  188SAPI   H8X21684   0.976   0.306   7.763 -0.8982 -0.5685 -0.3111
  188SAPI   H8Y21685   0.819   0.357   7.695 -0.5570 -0.1603  0.8311
  188SAPI   C3921686   0.837   0.401   7.907 -0.3323  0.1191  0.1546
  188SAPI   H9X21687   0.780   0.308   7.926 -0.5225  0.1959 -0.0296
  188SAPI   H9Y21688   0.767   0.487   7.895 -1.2050 -0.7474 -1.3644
  188SAPI  C31021689   0.927   0.426   8.026 -1.1569  0.1195 -0.1200
  188SAPI  H10X21690   0.869   0.442   8.120 -0.3548  0.1039  0.3902
  188SAPI  H10Y21691   0.996   0.509   7.998  1.3434 -2.0158 -0.6837
  188SAPI  C31121692   1.021   0.308   8.048  0.1236  0.3281  0.2789
  188SAPI  H11X21693   1.085   0.298   7.958 -0.2946 -2.2058  0.2098
  188SAPI  H11Y21694   0.965   0.213   8.036 -0.6799  1.0606 -2.6528
  188SAPI  C31221695   1.096   0.308   8.181 -0.3318  0.6799  0.0620
  188SAPI  H12X21696   1.039   0.273   8.270 -0.6794 -0.3758 -0.5608
  188SAPI  H12Y21697   1.139   0.407   8.208  1.3702  0.2939 -1.0907
  188SAPI  C31321698   1.220   0.211   8.176  0.3406 -0.0387 -0.3006
  188SAPI  H13X21699   1.262   0.223   8.074  3.4677  0.5482  0.9530
  188SAPI  H13Y21700   1.196   0.103   8.187  0.7266  0.1120  2.6282
  188SAPI  C31421701   1.321   0.243   8.276  0.2233 -0.3708  0.8917
  188SAPI  H14X21702   1.322   0.353   8.295 -1.1186 -0.4178  1.3626
  188SAPI  H14Y21703   1.420   0.206   8.242  0.8633  1.5480  0.5323
  188SAPI  C31521704   1.314   0.161   8.405  0.3051  1.0903 -0.9166
  188SAPI  H15X21705   1.342   0.057   8.378 -2.3306  0.3119 -0.9322
  188SAPI  H15Y21706   1.211   0.148   8.445  2.1414 -2.0826  3.5901
  188SAPI  C31621707   1.403   0.214   8.518  0.2144  0.0382  0.6817
  188SAPI  H16X21708   1.353   0.304   8.560 -0.8016 -0.2626  0.1600
  188SAPI  H16Y21709   1.501   0.252   8.483  0.0588 -0.3480 -0.1909
  188SAPI  C31721710   1.429   0.105   8.617 -0.3194 -0.2007 -0.7761
  188SAPI  H17X21711   1.475   0.020   8.562 -0.2923 -0.5423 -0.2306
  188SAPI  H17Y21712   1.328   0.077   8.653 -1.0797  2.4115 -0.6321
  188SAPI  C31821713   1.509   0.160   8.740  0.4547 -0.3889 -0.3424
  188SAPI  H18X21714   1.440   0.233   8.787  1.1487  1.3836 -1.9437
  188SAPI  H18Y21715   1.606   0.208   8.715  0.0770  0.2456 -0.6068
  188SAPI  H18Z21716   1.530   0.073   8.806 -0.1454 -0.8577 -0.7549
  189POPC     N21717   5.990   0.005  11.305 -0.1836  0.2494 -0.1608
  189POPC   C1221718   6.114   0.090  11.270 -0.5808  0.0510 -0.3533
  189POPC  H12A21719   6.200   0.028  11.287  1.7655  3.3830  1.0549
  189POPC  H12B21720   6.115   0.172  11.340 -0.5701 -2.0603  2.2459
  189POPC   C1321721   5.978  -0.109  11.208 -0.8925 -0.5221 -0.6039
  189POPC  H13A21722   5.888  -0.166  11.226 -1.3646  0.5548  0.5639
  189POPC  H13B21723   5.981  -0.082  11.104 -1.7329  2.4337  0.0436
  189POPC  H13C21724   6.066  -0.168  11.230  0.8422  1.7251 -1.2173
  189POPC   C1421725   6.004  -0.038  11.446 -0.0454  0.5051 -0.0958
  189POPC  H14A21726   5.978   0.044  11.513 -0.3906 -0.2784  0.7482
  189POPC  H14B21727   5.926  -0.112  11.459 -1.3169  2.1964  3.3732
  189POPC  H14C21728   6.095  -0.094  11.459 -0.3757 -0.1304 -0.5242
  189POPC   C1521729   5.873   0.101  11.293 -0.1868  0.3301 -0.3890
  189POPC  H15A21730   5.884   0.192  11.350 -1.0760  0.6911 -0.7698
  189POPC  H15B21731   5.785   0.047  11.325  0.0786  0.3422  0.3760
  189POPC  H15C21732   5.853   0.134  11.192 -1.4389 -1.7943 -0.8984
  189POPC   C1121733   6.127   0.140  11.119  0.1665 -0.8325 -1.2821
  189POPC  H11A21734   6.201   0.222  11.106  1.9247 -1.7431  1.8090
  189POPC  H11B21735   6.029   0.184  11.094 -0.5918 -0.3204  2.1132
  189POPC     P21736   6.302  -0.030  11.037 -0.1103 -0.1104  0.1759
  189POPC   O1321737   6.294  -0.164  10.965 -0.4297 -0.2054  0.0928
  189POPC   O1421738   6.351  -0.032  11.177  0.5795  0.5756  0.7168
  189POPC   O1221739   6.156   0.027  11.034  0.1562  0.0526  0.2456
  189POPC   O1121740   6.378   0.082  10.952 -0.2711 -0.1695 -0.0976
  189POPC    C121741   6.504   0.049  10.891  0.6554  0.3733 -0.0718
  189POPC    HA21742   6.541  -0.055  10.905  2.8341  0.4267 -3.9255
  189POPC    HB21743   6.575   0.135  10.891  1.0351  0.0606 -0.0392
  189POPC    C221744   6.474   0.040  10.745  0.3704 -0.2252  0.2700
  189POPC    HS21745   6.392  -0.033  10.732 -2.2085  2.3674  0.8183
  189POPC   O2121746   6.596   0.001  10.674 -0.2167 -0.8092  0.2022
  189POPC   C2121747   6.592  -0.118  10.620  0.1767 -0.3430  0.5685
  189POPC   O2221748   6.511  -0.206  10.643 -0.7747 -0.8129 -0.0003
  189POPC   C2221749   6.703  -0.121  10.513  0.3684 -0.5228 -0.7665
  189POPC   H2R21750   6.695  -0.221  10.465 -1.1196 -0.1204 -1.3993
  189POPC   H2S21751   6.806  -0.109  10.555 -0.4945  3.1141  0.6971
  189POPC    C321752   6.429   0.173  10.679 -0.0925  0.3491  0.2237
  189POPC    HX21753   6.518   0.238  10.668  1.4691 -1.9839 -2.1673
  189POPC    HY21754   6.351   0.219  10.743 -0.4238  2.4489 -1.5680
  189POPC   O3121755   6.387   0.156  10.533  0.2629  0.5901 -0.6571
  189POPC   C3121756   6.250   0.136  10.527  0.2105  0.2693 -0.3806
  189POPC   O3221757   6.173   0.127  10.618  0.2364 -0.2601 -0.3452
  189POPC   C3221758   6.201   0.151  10.379 -0.1040  0.4887  0.9244
  189POPC   H2X21759   6.251   0.079  10.311  1.4027  0.5177  1.9496
  189POPC   H2Y21760   6.240   0.250  10.344  1.0602 -1.1060 -2.8332
  189POPC   C2321761   6.680  -0.008  10.406  0.0393 -0.2319  0.0659
  189POPC   H3R21762   6.771  -0.005  10.344  0.1944  1.1510  0.3304
  189POPC   H3S21763   6.663   0.094  10.447 -0.9967  0.2542 -1.4882
  189POPC   C2421764   6.560  -0.040  10.322 -0.7093  0.4643 -0.2782
  189POPC   H4R21765   6.471   0.003  10.373 -1.9748  1.6249 -3.2504
  189POPC   H4S21766   6.545  -0.150  10.324  0.8635  0.2291  0.0937
  189POPC   C2521767   6.588  -0.005  10.175 -0.3609 -0.5370 -0.1799
  189POPC   H5R21768   6.687  -0.049  10.152  0.2737  0.8362 -0.2023
  189POPC   H5S21769   6.590   0.106  10.174  2.0542 -0.5364 -1.3368
  189POPC   C2621770   6.477  -0.056  10.088 -0.1777 -0.3345  0.7324
  189POPC   H6R21771   6.374  -0.027  10.116  0.0258  1.1787  0.0329
  189POPC   H6S21772   6.481  -0.167  10.088 -0.7110 -0.3746 -0.6533
  189POPC   C2721773   6.502  -0.007   9.943 -0.4787 -0.4304 -0.3950
  189POPC   H7R21774   6.575   0.076   9.927  0.6702 -1.6372 -1.7009
  189POPC   H7S21775   6.403   0.029   9.907 -0.7375 -2.7687 -2.3275
  189POPC   C2821776   6.534  -0.117   9.834  0.1872 -0.7393 -0.2590
  189POPC   H8R21777   6.506  -0.079   9.734  2.5457 -1.1808 -1.1443
  189POPC   H8S21778   6.470  -0.205   9.856 -3.9588  1.6600 -1.7126
  189POPC   C2921779   6.680  -0.139   9.830  0.6303  0.5665  0.4938
  189POPC   H9121780   6.731  -0.063   9.891 -0.4649  1.0037  0.8868
  189POPC  C21021781   6.747  -0.221   9.741 -0.2027  0.6984 -0.5183
  189POPC  H10121782   6.856  -0.225   9.755 -0.3979  2.4371  2.5822
  189POPC  C21121783   6.683  -0.312   9.638  0.0130  0.5230 -0.7403
  189POPC  H11R21784   6.576  -0.282   9.629  0.2681  1.2965 -1.2419
  189POPC  H11S21785   6.688  -0.420   9.664 -0.8569  0.6824  0.1645
  189POPC  C21221786   6.755  -0.292   9.502 -0.1810  0.4860  0.2076
  189POPC  H12R21787   6.862  -0.318   9.521 -1.3306 -4.0168  1.5991
  189POPC  H12S21788   6.753  -0.187   9.464 -3.0306  1.0812  1.7355
  189POPC  C21321789   6.705  -0.391   9.389 -0.5064  0.4477 -0.3229
  189POPC  H13R21790   6.595  -0.393   9.397 -0.4160 -0.7640  0.8720
  189POPC  H13S21791   6.739  -0.493   9.415 -0.7233  0.5414  0.3433
  189POPC  C21421792   6.775  -0.354   9.259  0.4306 -0.6805 -0.5684
  189POPC  H14R21793   6.880  -0.327   9.286  0.4535 -0.1281 -1.1632
  189POPC  H14S21794   6.721  -0.264   9.222  1.3382  0.5407  0.9224
  189POPC  C21521795   6.790  -0.461   9.157  0.9326  1.0836 -0.3909
  189POPC  H15R21796   6.690  -0.506   9.141  0.2769  1.8775  1.2570
  189POPC  H15S21797   6.848  -0.549   9.191 -0.4997 -0.9924 -2.9047
  189POPC  C21621798   6.858  -0.418   9.030  0.8405  0.7111 -0.0570
  189POPC  H16R21799   6.947  -0.358   9.057  0.1095  0.7896  2.3771
  189POPC  H16S21800   6.783  -0.345   8.993 -0.1469  0.9281  2.1823
  189POPC  C21721801   6.882  -0.525   8.928 -0.2215  0.1133 -0.5777
  189POPC  H17R21802   6.961  -0.591   8.969 -0.1696  1.3732  1.4760
  189POPC  H17S21803   6.940  -0.478   8.845 -0.7840  2.3081  0.2053
  189POPC  C21821804   6.769  -0.611   8.887  0.6307 -0.0395 -0.0080
  189POPC  H18R21805   6.743  -0.690   8.960 -0.8604 -0.4581 -0.9358
  189POPC  H18S21806   6.778  -0.656   8.786  2.2495 -0.8050  0.4553
  189POPC  H18T21807   6.673  -0.555   8.891  0.1439 -0.9501  2.2696
  189POPC   C3321808   6.047   0.138  10.363 -0.2947 -0.2556 -0.2690
  189POPC   H3X21809   6.016   0.183  10.266  0.3809  0.9227  0.0388
  189POPC   H3Y21810   5.992   0.197  10.440  1.3048 -0.3150  0.9703
  189POPC   C3421811   5.999  -0.010  10.385 -0.2660  0.6748 -0.8525
  189POPC   H4X21812   5.888  -0.014  10.383 -0.4279  0.3928  2.5749
  189POPC   H4Y21813   6.028  -0.035  10.490  0.2022  0.5399 -1.0120
  189POPC   C3521814   6.053  -0.116  10.288 -0.2875  0.6958  0.3389
  189POPC   H5X21815   6.006  -0.216  10.302  1.4854 -0.1682  0.4400
  189POPC   H5Y21816   6.160  -0.141  10.307 -0.2499  0.2407 -0.4596
  189POPC   C3621817   6.021  -0.083  10.135  0.2916  0.0172 -0.0904
  189POPC   H6X21818   6.063   0.018  10.115  1.0662  0.1168  1.7964
  189POPC   H6Y21819   5.912  -0.080  10.116  0.1462 -0.4853  0.6374
  189POPC   C3721820   6.092  -0.181  10.040  0.1521 -0.2009  0.7599
  189POPC   H7X21821   6.051  -0.284  10.049  0.8690 -0.4933  0.7863
  189POPC   H7Y21822   6.198  -0.183  10.073 -0.2704 -0.2174  2.2064
  189POPC   C3821823   6.082  -0.135   9.890 -0.5377  0.5751  0.3326
  189POPC   H8X21824   6.127  -0.034   9.874 -0.6989  0.5278 -0.4540
  189POPC   H8Y21825   5.972  -0.130   9.873 -0.4844  0.5670 -0.0193
  189POPC   C3921826   6.144  -0.230   9.793  0.0063  0.6542  0.4456
  189POPC   H9X21827   6.124  -0.338   9.809  1.5320  0.4960  1.5439
  189POPC   H9Y21828   6.252  -0.232   9.819  0.4266 -3.2785 -1.0085
  189POPC  C31021829   6.129  -0.191   9.644 -0.9900  0.8024  0.1479
  189POPC  H10X21830   6.157  -0.084   9.645 -1.0530  0.8570 -1.7702
  189POPC  H10Y21831   6.026  -0.195   9.603 -0.2383 -1.0851 -1.7349
  189POPC  C31121832   6.233  -0.261   9.550  0.2603 -0.4197  0.4440
  189POPC  H11X21833   6.231  -0.372   9.559  1.9418 -0.6134 -1.0166
  189POPC  H11Y21834   6.330  -0.224   9.590 -0.3539  0.6529  0.9812
  189POPC  C31221835   6.214  -0.217   9.402 -0.4490  0.3645  0.3647
  189POPC  H12X21836   6.214  -0.106   9.397 -1.3989  0.3395 -0.9193
  189POPC  H12Y21837   6.112  -0.248   9.371 -0.6485  1.5224 -0.2060
  189POPC  C31321838   6.317  -0.276   9.302  0.1010 -0.2349  1.1688
  189POPC  H13X21839   6.301  -0.386   9.300  0.7953 -0.3366 -0.8687
  189POPC  H13Y21840   6.418  -0.260   9.346  0.2542  1.5492  0.2711
  189POPC  C31421841   6.292  -0.215   9.164  0.2606  0.6742  0.4939
  189POPC  H14X21842   6.316  -0.107   9.176 -1.1232  0.8043  2.5292
  189POPC  H14Y21843   6.183  -0.221   9.142  0.4640  0.7248 -0.6160
  189POPC  C31521844   6.392  -0.277   9.057  0.5716 -0.3662  0.3956
  189POPC  H15X21845   6.375  -0.387   9.056 -1.6894 -0.0755 -0.7488
  189POPC  H15Y21846   6.493  -0.250   9.094  0.4577 -1.0108  1.2114
  189POPC  C31621847   6.372  -0.227   8.910  0.0543 -0.3667  0.0752
  189POPC  H16X21848   6.262  -0.222   8.900  0.2375  1.0370 -1.7797
  189POPC  H16Y21849   6.415  -0.297   8.836 -0.6878 -0.7501  0.0005
  189POPC  H16Z21850   6.417  -0.126   8.896 -1.9328  0.3312 -1.9500
  190POPC     N21851   2.074   5.730  11.219 -0.9382  0.2780  0.0287
  190POPC   C1221852   1.943   5.762  11.152  0.2074  0.3064  0.0904
  190POPC  H12A21853   1.884   5.827  11.214 -0.0204  0.0564  0.1356
  190POPC  H12B21854   1.874   5.679  11.153 -0.7843  0.9686 -3.0015
  190POPC   C1321855   2.159   5.643  11.132  0.7029 -0.7012  0.4094
  190POPC  H13A21856   2.192   5.700  11.047 -1.5769  1.4219  0.8205
  190POPC  H13B21857   2.238   5.604  11.195 -0.9811  1.2353  4.0533
  190POPC  H13C21858   2.102   5.557  11.101 -0.7128  0.7518 -1.1685
  190POPC   C1421859   2.156   5.857  11.249  0.5084  0.6819 -0.0915
  190POPC  H14A21860   2.175   5.917  11.161 -0.4752 -0.0385 -0.8155
  190POPC  H14B21861   2.098   5.915  11.319  0.9691  0.0070  0.8602
  190POPC  H14C21862   2.251   5.838  11.297 -0.1756 -2.5090  0.1980
  190POPC   C1521863   2.052   5.650  11.341  0.0478  0.6652 -0.4226
  190POPC  H15A21864   1.980   5.700  11.404  0.5341  1.4402 -0.4587
  190POPC  H15B21865   2.136   5.650  11.410 -2.3488 -0.2021  2.7331
  190POPC  H15C21866   2.028   5.548  11.318  2.0028 -0.0693  0.5071
  190POPC   C1121867   1.937   5.831  11.013 -0.0541  0.5594  1.0499
  190POPC  H11A21868   1.834   5.819  10.974  0.5137 -0.5372 -0.1978
  190POPC  H11B21869   2.004   5.779  10.942  0.9499  1.3947  1.3564
  190POPC     P21870   1.888   6.083  11.042  0.0964 -0.1906 -0.4429
  190POPC   O1321871   1.970   6.210  11.056  0.2447 -0.1758 -0.0326
  190POPC   O1421872   1.787   6.043  11.151  0.6582 -0.1806 -0.3515
  190POPC   O1221873   1.983   5.964  11.014  0.4812 -0.3999  0.7618
  190POPC   O1121874   1.798   6.079  10.913 -0.7905 -0.6841  0.1485
  190POPC    C121875   1.848   6.156  10.801 -0.1608  0.2366  0.5050
  190POPC    HA21876   1.959   6.168  10.797 -0.2915  2.3689  1.6983
  190POPC    HB21877   1.791   6.251  10.791 -1.4848 -0.5150  0.6950
  190POPC    C221878   1.812   6.072  10.678  0.2723 -0.7492  0.5636
  190POPC    HS21879   1.704   6.047  10.674  0.1407 -0.0779 -1.4981
  190POPC   O2121880   1.890   5.951  10.674 -0.0994  0.0196 -0.2713
  190POPC   C2121881   1.822   5.848  10.614 -0.4972 -0.0738 -0.3819
  190POPC   O2221882   1.709   5.853  10.576  0.4037 -0.2656  0.0040
  190POPC   C2221883   1.918   5.726  10.607 -0.2332  0.0779 -0.1496
  190POPC   H2R21884   1.897   5.685  10.708  0.4350 -0.0031 -0.0386
  190POPC   H2S21885   2.023   5.763  10.607 -0.0847 -0.3322  0.5500
  190POPC    C321886   1.839   6.154  10.547  0.3281 -0.1511 -0.6050
  190POPC    HX21887   1.948   6.148  10.531  0.6969  2.0564  0.6939
  190POPC    HY21888   1.800   6.256  10.567  1.3853  0.2448 -0.5251
  190POPC   O3121889   1.784   6.092  10.425  0.5332 -0.3235 -0.4799
  190POPC   C3121890   1.655   6.120  10.397 -0.5931  0.0665 -0.4958
  190POPC   O3221891   1.571   6.160  10.478 -0.4997 -0.5999  0.0082
  190POPC   C3221892   1.634   6.080  10.248 -0.5341  0.0767 -0.7758
  190POPC   H2X21893   1.720   6.117  10.189  0.0298 -0.1842 -0.1364
  190POPC   H2Y21894   1.539   6.127  10.216 -0.9307 -1.2890 -1.6883
  190POPC   C2321895   1.877   5.617  10.504 -0.5300 -0.0681 -0.5192
  190POPC   H3R21896   1.775   5.580  10.524 -0.7291  0.4674 -0.5191
  190POPC   H3S21897   1.936   5.527  10.531 -1.2577  0.0420  1.6117
  190POPC   C2421898   1.905   5.654  10.356  0.3991  0.1184 -0.6190
  190POPC   H4R21899   2.016   5.661  10.347  0.3516 -0.0079 -1.4450
  190POPC   H4S21900   1.866   5.757  10.341 -0.8424 -0.0566  1.2117
  190POPC   C2521901   1.843   5.557  10.256 -0.1327  0.3566  0.1859
  190POPC   H5R21902   1.732   5.571  10.257 -0.2604 -0.5762  0.5456
  190POPC   H5S21903   1.868   5.449  10.265 -2.6588 -0.4710 -1.3929
  190POPC   C2621904   1.899   5.595  10.119  0.9635  0.1204 -0.5433
  190POPC   H6R21905   1.998   5.544  10.121  0.1028 -1.6898  2.3888
  190POPC   H6S21906   1.922   5.703  10.103  0.8389  0.5873  1.9401
  190POPC   C2721907   1.819   5.545  10.003  0.9070  0.4249  0.0203
  190POPC   H7R21908   1.712   5.566  10.024  0.7127 -1.2085  0.8293
  190POPC   H7S21909   1.802   5.436   9.999 -3.5437  0.9553 -0.7478
  190POPC   C2821910   1.855   5.602   9.863  0.5679  0.4669  0.7552
  190POPC   H8R21911   1.855   5.713   9.873 -2.0629  0.5885  0.1087
  190POPC   H8S21912   1.767   5.564   9.807  1.9079 -1.7014  0.0383
  190POPC   C2921913   1.983   5.548   9.797 -0.0377 -0.4334 -0.3699
  190POPC   H9121914   2.055   5.520   9.875 -1.6885 -0.4563  1.2269
  190POPC  C21021915   2.024   5.532   9.670 -0.0273 -0.3776 -0.6509
  190POPC  H10121916   2.111   5.474   9.635 -1.9419 -2.2297 -2.5922
  190POPC  C21121917   1.928   5.572   9.560 -0.9404 -0.0862 -0.1868
  190POPC  H11R21918   1.981   5.647   9.497  1.2030 -1.4475 -0.1288
  190POPC  H11S21919   1.827   5.607   9.589 -0.2763  1.1414  0.7199
  190POPC  C21221920   1.906   5.465   9.451 -0.0551  0.1294 -0.6205
  190POPC  H12R21921   1.834   5.513   9.381 -0.6863  0.6607  0.3721
  190POPC  H12S21922   1.869   5.376   9.505  0.0312  0.6504  0.3238
  190POPC  C21321923   2.026   5.408   9.369  0.0219 -0.0269  0.0253
  190POPC  H13R21924   2.081   5.333   9.429 -1.0079  1.2930  2.7846
  190POPC  H13S21925   2.099   5.487   9.342 -0.9241  1.1408  0.7647
  190POPC  C21421926   1.965   5.344   9.236  0.3077  0.1445 -0.0953
  190POPC  H14R21927   1.897   5.259   9.259  0.3817  0.1995  0.3410
  190POPC  H14S21928   2.043   5.298   9.171  0.6124  3.2174 -2.1239
  190POPC  C21521929   1.919   5.461   9.145 -0.0033  1.0027 -0.0219
  190POPC  H15R21930   1.938   5.554   9.202 -0.5644  0.6522  0.7740
  190POPC  H15S21931   1.813   5.431   9.128  0.7791 -1.9941 -0.2765
  190POPC  C21621932   1.993   5.469   9.009 -0.1858 -0.5005  0.4728
  190POPC  H16R21933   1.947   5.537   8.935  1.5572 -0.7228 -0.8927
  190POPC  H16S21934   1.992   5.371   8.956  1.1944  0.2304 -0.9678
  190POPC  C21721935   2.151   5.500   9.007 -0.7869  0.6975 -0.4782
  190POPC  H17R21936   2.174   5.504   8.898 -0.4969  2.1841 -0.3936
  190POPC  H17S21937   2.209   5.415   9.048  0.1218  0.3375 -2.3766
  190POPC  C21821938   2.195   5.618   9.084 -0.0897  0.0624 -0.3174
  190POPC  H18R21939   2.143   5.712   9.053 -2.5979 -0.1658  2.6285
  190POPC  H18S21940   2.305   5.623   9.093 -0.1336  0.5989 -0.0332
  190POPC  H18T21941   2.158   5.612   9.189  1.8083  0.5689  0.4343
  190POPC   C3321942   1.597   5.928  10.248 -0.1241 -0.0225 -0.3590
  190POPC   H3X21943   1.511   5.922  10.318  1.0291 -0.1530  1.0954
  190POPC   H3Y21944   1.677   5.860  10.283 -0.7251 -0.6682 -0.2103
  190POPC   C3421945   1.547   5.883  10.107  0.0441  0.0413 -0.0637
  190POPC   H4X21946   1.449   5.933  10.089  1.3941  3.2510  0.8677
  190POPC   H4Y21947   1.528   5.774  10.094  2.0262 -0.1495 -1.9033
  190POPC   C3521948   1.631   5.921   9.986 -0.4405 -0.0207 -0.7972
  190POPC   H5X21949   1.739   5.900  10.006 -0.3754  0.9064 -0.1133
  190POPC   H5Y21950   1.629   6.028   9.959  0.6950  0.2890  0.2345
  190POPC   C3621951   1.573   5.856   9.858 -0.1134  0.0069  0.7546
  190POPC   H6X21952   1.465   5.883   9.859 -0.7790 -2.3668  3.5478
  190POPC   H6Y21953   1.579   5.746   9.867 -0.3621 -0.0687  0.1044
  190POPC   C3721954   1.644   5.898   9.723  0.2336 -0.3334  0.4691
  190POPC   H7X21955   1.741   5.843   9.722  0.2513 -0.3311  1.2163
  190POPC   H7Y21956   1.658   6.008   9.723 -1.0944 -0.1479  0.4185
  190POPC   C3821957   1.572   5.866   9.589  0.0114  0.1772  0.2371
  190POPC   H8X21958   1.474   5.917   9.581 -0.6019 -0.8304  1.1295
  190POPC   H8Y21959   1.558   5.756   9.581 -1.8060  0.4709 -1.2083
  190POPC   C3921960   1.657   5.913   9.472 -0.3152  0.8896 -0.1050
  190POPC   H9X21961   1.754   5.861   9.479 -0.4931  0.6719  0.8771
  190POPC   H9Y21962   1.675   6.022   9.486  0.8552  0.4694  1.9812
  190POPC  C31021963   1.585   5.889   9.339  0.2075  0.1845  0.2165
  190POPC  H10X21964   1.484   5.934   9.332  0.1167 -0.2682 -3.4291
  190POPC  H10Y21965   1.556   5.783   9.325  0.7619  0.2474 -1.7095
  190POPC  C31121966   1.678   5.927   9.219  0.2604 -1.0522 -0.4232
  190POPC  H11X21967   1.765   5.859   9.212 -0.4365 -1.8356 -2.1274
  190POPC  H11Y21968   1.715   6.030   9.234  0.2450 -1.3695  2.3870
  190POPC  C31221969   1.613   5.906   9.088 -0.3281  0.9119  0.4845
  190POPC  H12X21970   1.517   5.962   9.085 -0.8649 -0.0328 -1.6560
  190POPC  H12Y21971   1.587   5.801   9.063 -2.9908  1.4622  0.6653
  190POPC  C31321972   1.708   5.935   8.972 -0.1183 -0.2219  0.2660
  190POPC  H13X21973   1.803   5.879   8.985  0.4294  0.4945 -0.5460
  190POPC  H13Y21974   1.742   6.040   8.963 -1.2935  0.1073 -0.5825
  190POPC  C31421975   1.652   5.908   8.829  0.0390  0.9864 -0.5724
  190POPC  H14X21976   1.556   5.963   8.835  0.1085  1.0181  0.4479
  190POPC  H14Y21977   1.641   5.797   8.825 -2.1917  1.1219  0.4964
  190POPC  C31521978   1.736   5.945   8.707 -0.3273  0.0534  0.3420
  190POPC  H15X21979   1.701   5.899   8.612  1.8948 -0.3512 -0.3541
  190POPC  H15Y21980   1.842   5.917   8.724 -0.7737 -1.0046  1.5038
  190POPC  C31621981   1.740   6.093   8.670 -0.0118  0.5182 -0.0897
  190POPC  H16X21982   1.761   6.146   8.766  2.9534 -0.7025  0.0264
  190POPC  H16Y21983   1.647   6.137   8.627  0.5818  1.2941 -0.6005
  190POPC  H16Z21984   1.816   6.113   8.592 -1.3673 -2.1385 -2.2403
  191POPC     N21985   2.568   5.666   6.323  0.5426 -0.5423 -0.0497
  191POPC   C1221986   2.665   5.648   6.441  0.3852  0.0943 -0.5910
  191POPC  H12A21987   2.654   5.722   6.519  0.9520 -1.7666  1.3360
  191POPC  H12B21988   2.762   5.679   6.405  1.0704 -1.8409 -0.4863
  191POPC   C1321989   2.425   5.640   6.361 -0.1015 -0.2282 -0.2132
  191POPC  H13A21990   2.404   5.707   6.444  0.9831 -0.6046  0.3877
  191POPC  H13B21991   2.363   5.656   6.274 -1.0829 -1.2401  0.2821
  191POPC  H13C21992   2.423   5.535   6.385 -0.2585  0.2428  2.1542
  191POPC   C1421993   2.562   5.817   6.291  0.3979  0.0366 -0.1765
  191POPC  H14A21994   2.642   5.843   6.223 -1.4963  4.3780 -1.0653
  191POPC  H14B21995   2.471   5.850   6.244  0.0732 -0.8555 -0.1932
  191POPC  H14C21996   2.568   5.878   6.380 -0.6206  2.9628 -1.9971
  191POPC   C1521997   2.601   5.593   6.200 -0.7711  0.0523  0.7507
  191POPC  H15A21998   2.593   5.489   6.226  0.3809  0.4007  2.7340
  191POPC  H15B21999   2.697   5.619   6.156 -0.2673 -1.8531  0.6338
  191POPC  H15C22000   2.539   5.611   6.114 -0.8429  3.3061  1.3450
  191POPC   C1122001   2.661   5.510   6.504 -0.6368 -0.3376 -0.3977
  191POPC  H11A22002   2.562   5.491   6.551 -0.5093 -0.0109  0.0134
  191POPC  H11B22003   2.727   5.519   6.593 -0.0533 -0.5200 -0.8090
  191POPC     P22004   2.864   5.405   6.386  0.0194 -0.2037  0.4471
  191POPC   O1322005   2.929   5.538   6.372 -0.0367  0.2504 -0.6488
  191POPC   O1422006   2.883   5.318   6.270 -0.3317 -0.2857 -0.2322
  191POPC   O1222007   2.708   5.414   6.406  0.1712 -0.8681  0.6235
  191POPC   O1122008   2.926   5.330   6.508 -0.1301  0.3433 -0.5459
  191POPC    C122009   2.842   5.228   6.570  0.6601 -0.8430  0.0496
  191POPC    HA22010   2.897   5.135   6.547  2.1703  0.3863 -1.6690
  191POPC    HB22011   2.736   5.230   6.537  1.0134  1.8451 -1.1987
  191POPC    C222012   2.848   5.226   6.729 -0.3005  0.0836  0.0092
  191POPC    HS22013   2.812   5.323   6.768  2.5648 -0.2490  4.0479
  191POPC   O2122014   2.981   5.202   6.767  0.2107 -0.3745 -0.3524
  191POPC   C2122015   3.034   5.290   6.851  0.2364 -0.2041 -0.0421
  191POPC   O2222016   2.988   5.388   6.905  0.3437 -0.4653 -0.1328
  191POPC   C2222017   3.174   5.231   6.876 -0.1719  0.2861  0.2123
  191POPC   H2R22018   3.231   5.251   6.783 -1.1798 -0.6749 -0.6559
  191POPC   H2S22019   3.166   5.121   6.890 -3.1117  0.2375 -1.0523
  191POPC    C322020   2.756   5.113   6.782  0.1321  0.1342 -0.0344
  191POPC    HX22021   2.773   5.017   6.729  5.3396  0.2138  0.9889
  191POPC    HY22022   2.654   5.148   6.756  0.5012  1.2919 -0.0085
  191POPC   O3122023   2.779   5.083   6.919  0.1415  0.1790  0.1682
  191POPC   C3122024   2.727   5.164   7.003  0.1287  0.3123  1.1461
  191POPC   O3222025   2.650   5.256   6.979  0.2165  0.0330  0.1047
  191POPC   C3222026   2.783   5.140   7.144  0.1712  0.2240 -0.0521
  191POPC   H2X22027   2.864   5.213   7.166 -0.9501  1.1317  1.2264
  191POPC   H2Y22028   2.821   5.036   7.157 -0.9217 -0.3213 -0.9885
  191POPC   C2322029   3.240   5.293   7.001 -0.3687 -0.1519  0.1427
  191POPC   H3R22030   3.234   5.404   7.000  0.2675 -0.0767  2.1573
  191POPC   H3S22031   3.344   5.253   6.998 -0.7979 -1.2947 -0.1316
  191POPC   C2422032   3.179   5.234   7.132 -0.7338 -0.0002  0.5287
  191POPC   H4R22033   3.193   5.124   7.126 -1.9001 -0.2017  1.2844
  191POPC   H4S22034   3.073   5.261   7.152 -0.7007  1.4186 -0.9900
  191POPC   C2522035   3.245   5.279   7.265  0.4826 -0.1140 -0.7283
  191POPC   H5R22036   3.242   5.391   7.266 -2.6242 -0.1012  1.7697
  191POPC   H5S22037   3.351   5.250   7.250 -0.1409 -1.0597 -4.4122
  191POPC   C2622038   3.180   5.216   7.396 -0.4609 -0.2106  0.4204
  191POPC   H6R22039   3.244   5.125   7.403 -0.5051 -0.3334 -0.6633
  191POPC   H6S22040   3.073   5.194   7.373 -0.1798 -0.1011 -1.0414
  191POPC   C2722041   3.185   5.309   7.515 -0.2957 -0.4029  0.0201
  191POPC   H7R22042   3.171   5.413   7.478  0.3581 -0.3171  0.0015
  191POPC   H7S22043   3.292   5.314   7.546 -0.5471  0.8001  0.7771
  191POPC   C2822044   3.090   5.278   7.629 -0.3595  0.0639 -0.2419
  191POPC   H8R22045   2.989   5.318   7.606  0.2221  1.7144 -0.0882
  191POPC   H8S22046   3.126   5.340   7.714  1.5667  0.4472 -1.2691
  191POPC   C2922047   3.086   5.134   7.673  0.0808 -0.5391 -0.0524
  191POPC   H9122048   3.049   5.065   7.595  1.9097  0.1745 -1.6209
  191POPC  C21022049   3.118   5.086   7.793 -0.0576 -0.6320  0.5168
  191POPC  H10122050   3.112   4.976   7.800 -3.2688 -0.6508 -1.0447
  191POPC  C21122051   3.175   5.172   7.900  0.3250  0.1739  0.4944
  191POPC  H11R22052   3.255   5.240   7.863 -1.3392  0.9152 -2.0272
  191POPC  H11S22053   3.228   5.109   7.974  2.7657  1.3926 -0.1088
  191POPC  C21222054   3.076   5.259   7.977  0.4028  0.7540 -0.4707
  191POPC  H12R22055   3.007   5.192   8.032  1.7423  0.4114  0.8876
  191POPC  H12S22056   3.026   5.332   7.911  0.4726 -0.6557 -2.1646
  191POPC  C21322057   3.141   5.338   8.087 -0.0726 -0.4529  0.0416
  191POPC  H13R22058   3.247   5.370   8.070  0.3762 -1.7098  0.3912
  191POPC  H13S22059   3.159   5.271   8.173  0.3216 -0.2346  0.1321
  191POPC  C21422060   3.057   5.460   8.143  0.2875  0.3889  0.2367
  191POPC  H14R22061   2.976   5.420   8.208  1.3974  0.4070  1.6930
  191POPC  H14S22062   3.010   5.509   8.055  2.0927 -0.5881 -1.3559
  191POPC  C21522063   3.136   5.567   8.221  0.4458  0.6773  0.3152
  191POPC  H15R22064   3.216   5.608   8.155  0.9130  1.4371  1.3205
  191POPC  H15S22065   3.181   5.518   8.310  0.4370 -1.4632 -0.7915
  191POPC  C21622066   3.055   5.688   8.278 -0.3951 -0.1715  1.0068
  191POPC  H16R22067   2.978   5.655   8.350 -0.8032  0.0263  0.6610
  191POPC  H16S22068   2.998   5.733   8.194  1.5279 -0.8727 -0.7636
  191POPC  C21722069   3.145   5.804   8.338  0.6606  1.1741 -0.2416
  191POPC  H17R22070   3.208   5.848   8.258  0.3834  0.2954 -0.9669
  191POPC  H17S22071   3.208   5.755   8.415  1.4064  0.9402 -0.9777
  191POPC  C21822072   3.075   5.902   8.431  0.2585 -0.4546  0.3621
  191POPC  H18R22073   3.145   5.953   8.500 -0.2860 -0.2926  0.8096
  191POPC  H18S22074   3.013   5.854   8.510 -1.3674 -0.5148 -0.8900
  191POPC  H18T22075   3.010   5.977   8.380  0.2206 -0.0638  0.9692
  191POPC   C3322076   2.675   5.160   7.260 -0.6501  0.4117  0.5916
  191POPC   H3X22077   2.605   5.074   7.257  1.6670 -1.6637  1.9916
  191POPC   H3Y22078   2.618   5.255   7.252 -0.0884  0.9845  2.6773
  191POPC   C3422079   2.745   5.167   7.397  0.0190  0.4433  0.4487
  191POPC   H4X22080   2.811   5.256   7.401 -1.4535  1.5329  1.6684
  191POPC   H4Y22081   2.809   5.077   7.408  1.2740  1.2619  0.0391
  191POPC   C3522082   2.641   5.182   7.511 -0.1962  0.1559 -0.7709
  191POPC   H5X22083   2.580   5.091   7.493  3.1252 -2.1820 -1.0415
  191POPC   H5Y22084   2.589   5.280   7.514 -0.2110  0.1383 -0.4301
  191POPC   C3622085   2.708   5.145   7.647 -0.2248 -0.5328  0.3684
  191POPC   H6X22086   2.801   5.205   7.659 -0.4788 -0.0455 -0.0824
  191POPC   H6Y22087   2.741   5.039   7.642 -0.1137 -0.4374 -1.9476
  191POPC   C3722088   2.620   5.170   7.771 -0.2254  0.0461  0.2737
  191POPC   H7X22089   2.514   5.139   7.754  0.2152 -0.5508 -1.5666
  191POPC   H7Y22090   2.621   5.281   7.777 -3.1646  0.2486 -0.9585
  191POPC   C3822091   2.665   5.098   7.899 -0.2023  0.7711 -0.1799
  191POPC   H8X22092   2.776   5.100   7.910 -0.2425  0.6152  0.2520
  191POPC   H8Y22093   2.637   4.991   7.891  0.3764  0.4559  1.6778
  191POPC   C3922094   2.596   5.140   8.028  0.0319 -0.9085  0.6449
  191POPC   H9X22095   2.487   5.141   8.009  0.4105  1.1245 -2.0096
  191POPC   H9Y22096   2.616   5.246   8.056 -1.2540 -0.4672 -0.0187
  191POPC  C31022097   2.625   5.064   8.158  0.5573  0.2114  0.1421
  191POPC  H10X22098   2.731   5.085   8.186  0.3892  1.1704  0.0644
  191POPC  H10Y22099   2.612   4.955   8.137  3.1716 -0.2248  0.4145
  191POPC  C31122100   2.536   5.114   8.274 -0.2470  0.1222 -0.0423
  191POPC  H11X22101   2.518   5.025   8.338 -0.0481 -0.5773 -0.9291
  191POPC  H11Y22102   2.439   5.137   8.224  0.7702  1.0129 -1.7063
  191POPC  C31222103   2.576   5.242   8.356  0.3124  0.5306  0.4261
  191POPC  H12X22104   2.574   5.324   8.281 -0.3796 -1.2429 -1.6228
  191POPC  H12Y22105   2.683   5.231   8.383  0.0543 -0.3621  1.1148
  191POPC  C31322106   2.487   5.261   8.482  0.2195  0.1616 -0.0020
  191POPC  H13X22107   2.517   5.358   8.527 -0.3953  0.0191  0.7246
  191POPC  H13Y22108   2.521   5.191   8.562 -0.2046 -0.3381 -0.2522
  191POPC  C31422109   2.338   5.243   8.459 -0.0711 -0.1171  0.0820
  191POPC  H14X22110   2.318   5.139   8.424  1.6712 -0.1210 -1.0301
  191POPC  H14Y22111   2.284   5.306   8.386 -1.8124 -2.5122 -0.8386
  191POPC  C31522112   2.259   5.257   8.599 -0.6409 -0.0663  0.2662
  191POPC  H15X22113   2.284   5.359   8.636 -1.8872  1.3055 -2.4592
  191POPC  H15Y22114   2.295   5.170   8.659  2.7742 -1.0591 -2.8411
  191POPC  C31622115   2.111   5.251   8.586  0.0727  0.1575  0.6083
  191POPC  H16X22116   2.065   5.270   8.685  0.2032 -0.5190  0.8028
  191POPC  H16Y22117   2.086   5.152   8.541  2.0661 -0.3471  0.5481
  191POPC  H16Z22118   2.084   5.328   8.511  1.2531 -1.4808 -1.6408
  192POPC     N22119   0.761   1.618   6.117 -0.7183 -0.1682 -0.2291
  192POPC   C1222120   0.808   1.685   6.246 -0.5644 -0.5290 -0.5204
  192POPC  H12A22121   0.736   1.752   6.291  0.0122 -0.8830  1.0263
  192POPC  H12B22122   0.888   1.754   6.222 -0.3250 -1.2944 -1.9885
  192POPC   C1322123   0.873   1.594   6.015  0.0932  0.5125 -0.6555
  192POPC  H13A22124   0.829   1.575   5.918 -0.7637  0.1395 -0.2053
  192POPC  H13B22125   0.949   1.670   6.008  0.2528  0.8224  2.6255
  192POPC  H13C22126   0.922   1.501   6.044 -1.3128 -0.2714 -0.7101
  192POPC   C1422127   0.698   1.483   6.144  0.4707  0.3393 -0.0605
  192POPC  H14A22128   0.684   1.420   6.057 -0.3879  0.3533  0.0624
  192POPC  H14B22129   0.755   1.429   6.219 -0.0336  2.3635  1.8827
  192POPC  H14C22130   0.599   1.486   6.187  1.3615 -1.8335  2.4457
  192POPC   C1522131   0.660   1.706   6.050  0.1215 -0.1907 -0.5919
  192POPC  H15A22132   0.583   1.740   6.119  0.2951 -0.5685 -0.2049
  192POPC  H15B22133   0.599   1.643   5.986 -0.0182 -1.8537  1.0545
  192POPC  H15C22134   0.699   1.797   6.010 -0.0971  0.6787  1.0721
  192POPC   C1122135   0.862   1.610   6.370  0.2894  0.4619 -0.9497
  192POPC  H11A22136   0.776   1.563   6.422  2.3336 -2.2034  0.2616
  192POPC  H11B22137   0.913   1.674   6.446  2.5918 -0.9692 -1.1787
  192POPC     P22138   1.104   1.544   6.278  0.2337  0.2094 -0.4789
  192POPC   O1322139   1.110   1.691   6.258  0.0287  0.2016 -0.0799
  192POPC   O1422140   1.147   1.460   6.166 -0.6988  0.2866  0.0989
  192POPC   O1222141   0.958   1.509   6.326 -0.1482  0.5689  0.1079
  192POPC   O1122142   1.193   1.508   6.405  0.0362 -0.5808 -0.1108
  192POPC    C122143   1.166   1.407   6.501 -0.0718  0.7763  0.0363
  192POPC    HA22144   1.262   1.357   6.526  0.7403  2.2652  0.0768
  192POPC    HB22145   1.090   1.333   6.468 -0.0692  0.3863  0.8866
  192POPC    C222146   1.105   1.456   6.644 -0.7982  0.1763  0.1728
  192POPC    HS22147   1.009   1.508   6.623 -0.9705  0.8071  2.3500
  192POPC   O2122148   1.194   1.551   6.716 -0.2060  0.4317  0.2381
  192POPC   C2122149   1.139   1.656   6.775 -0.0727 -0.2724  0.2168
  192POPC   O2222150   1.024   1.696   6.758  1.0317  0.6679  0.6397
  192POPC   C2222151   1.246   1.723   6.870 -0.3515  0.2123 -0.1295
  192POPC   H2R22152   1.274   1.818   6.819  1.1018 -0.3790 -0.4835
  192POPC   H2S22153   1.339   1.664   6.859 -1.0803 -0.9702 -0.0371
  192POPC    C322154   1.076   1.331   6.725  0.4036  0.1561 -0.5312
  192POPC    HX22155   1.171   1.275   6.743 -1.0815 -2.4511 -0.3817
  192POPC    HY22156   1.010   1.263   6.668  2.2251 -1.1392 -1.2193
  192POPC   O3122157   1.018   1.366   6.854  0.2792  0.5190 -0.0847
  192POPC   C3122158   1.026   1.277   6.953 -0.1192 -0.3582 -0.5969
  192POPC   O3222159   1.077   1.167   6.949 -0.5722  0.2954 -0.3511
  192POPC   C3222160   0.978   1.352   7.082 -0.4390  0.0697  0.6014
  192POPC   H2X22161   0.869   1.336   7.070 -0.4051  0.8895 -1.0599
  192POPC   H2Y22162   1.007   1.459   7.067 -2.3158  0.5326 -0.0526
  192POPC   C2322163   1.195   1.736   7.017 -0.3495 -0.2090 -0.6441
  192POPC   H3R22164   1.287   1.759   7.075  0.1414 -2.7946 -0.2658
  192POPC   H3S22165   1.154   1.636   7.043 -0.7099  0.2953  0.8185
  192POPC   C2422166   1.078   1.834   7.044 -0.3726 -0.5772  0.2341
  192POPC   H4R22167   1.013   1.824   6.954  1.5985  1.1915 -1.5013
  192POPC   H4S22168   1.101   1.943   7.037  0.6885 -0.7117  1.3917
  192POPC   C2522169   1.004   1.797   7.180 -0.0156  0.2705  1.1224
  192POPC   H5R22170   0.945   1.707   7.152  0.9425  0.3797 -1.6032
  192POPC   H5S22171   0.938   1.880   7.211 -1.2616 -0.4070  0.3594
  192POPC   C2622172   1.098   1.770   7.303  0.2138  0.0452  0.1814
  192POPC   H6R22173   1.161   1.678   7.298  0.0349 -0.1441  1.1418
  192POPC   H6S22174   1.028   1.757   7.388 -0.1411 -0.5443 -0.1926
  192POPC   C2722175   1.201   1.880   7.335  0.5074  0.3707 -0.4869
  192POPC   H7R22176   1.139   1.967   7.363  1.4804  0.7108  0.6622
  192POPC   H7S22177   1.260   1.911   7.246  1.2752 -2.6608 -1.1835
  192POPC   C2822178   1.291   1.869   7.461  0.1008  0.2753 -0.3320
  192POPC   H8R22179   1.357   1.783   7.435 -2.1218 -1.4976 -0.4644
  192POPC   H8S22180   1.233   1.834   7.550 -0.2906 -1.3623 -1.1957
  192POPC   C2922181   1.371   1.993   7.486  0.3061  0.1650  0.2682
  192POPC   H9122182   1.468   2.003   7.435  0.4629 -0.8825  0.3593
  192POPC  C21022183   1.342   2.085   7.585 -0.3693 -0.3890 -0.2519
  192POPC  H10122184   1.412   2.168   7.603 -0.5475 -0.3579  0.3142
  192POPC  C21122185   1.231   2.076   7.689  0.2866  0.4324 -0.3148
  192POPC  H11R22186   1.155   2.014   7.636 -1.0693  0.7342  1.2143
  192POPC  H11S22187   1.197   2.181   7.700  0.8518  0.5868 -0.0210
  192POPC  C21222188   1.264   2.000   7.822 -0.5144 -1.0124  1.0816
  192POPC  H12R22189   1.324   1.907   7.808 -2.5000 -1.8553 -4.3581
  192POPC  H12S22190   1.163   1.975   7.861 -0.4197 -0.7078  1.5276
  192POPC  C21322191   1.338   2.076   7.928 -0.3007  0.1491  0.1923
  192POPC  H13R22192   1.293   2.177   7.939 -0.1210  0.1888  0.5868
  192POPC  H13S22193   1.443   2.094   7.898 -0.9568  0.7311 -1.9710
  192POPC  C21422194   1.341   2.019   8.070  0.5318  0.0272 -1.3053
  192POPC  H14R22195   1.239   1.982   8.095  0.3873  0.3375 -1.4238
  192POPC  H14S22196   1.392   2.080   8.147  1.8244 -1.2439 -1.1118
  192POPC  C21522197   1.427   1.900   8.056  0.0782  0.0980 -0.5406
  192POPC  H15R22198   1.523   1.922   8.004  1.1613 -3.8271 -0.5231
  192POPC  H15S22199   1.372   1.828   7.993 -1.5008  1.5353 -0.8811
  192POPC  C21622200   1.480   1.841   8.188  0.5099 -0.8215 -0.3659
  192POPC  H16R22201   1.544   1.752   8.168  3.0576  0.7033  0.6137
  192POPC  H16S22202   1.388   1.815   8.246  0.4675  0.4238  0.1515
  192POPC  C21722203   1.575   1.931   8.273  0.6285  0.1148 -0.0406
  192POPC  H17R22204   1.533   2.027   8.309  1.5831 -0.1004  1.7833
  192POPC  H17S22205   1.663   1.951   8.207  1.2128 -1.9062  0.0586
  192POPC  C21822206   1.627   1.862   8.394  0.3973 -0.3746 -0.0800
  192POPC  H18R22207   1.659   1.760   8.365  1.3113  0.2331 -1.2811
  192POPC  H18S22208   1.546   1.858   8.470 -1.1713  0.4277 -1.6331
  192POPC  H18T22209   1.712   1.920   8.436 -0.9737  1.7323 -0.0667
  192POPC   C3322210   1.023   1.289   7.213 -0.3072 -0.1497 -0.5507
  192POPC   H3X22211   1.125   1.246   7.203 -0.3946 -0.6055  0.4008
  192POPC   H3Y22212   0.959   1.203   7.242 -2.5327  1.9246  1.0427
  192POPC   C3422213   1.023   1.377   7.335  0.5133 -0.4236  0.4054
  192POPC   H4X22214   0.924   1.426   7.339  0.0916 -1.1413 -0.8335
  192POPC   H4Y22215   1.098   1.458   7.320  0.1219 -0.1298  0.0270
  192POPC   C3522216   1.041   1.303   7.463 -0.3072 -0.2482  0.0840
  192POPC   H5X22217   1.138   1.250   7.477 -0.2195  0.1194  0.9185
  192POPC   H5Y22218   0.961   1.228   7.477  0.3794 -1.3972 -1.7529
  192POPC   C3622219   1.021   1.399   7.588 -0.3210 -0.0751  0.5730
  192POPC   H6X22220   0.926   1.456   7.576 -0.4260 -0.2525  0.5631
  192POPC   H6Y22221   1.111   1.463   7.595  1.5598 -2.5606  0.5001
  192POPC   C3722222   1.013   1.305   7.713  0.1621 -0.8696 -0.0234
  192POPC   H7X22223   1.104   1.241   7.709  0.8374  0.1157 -1.2156
  192POPC   H7Y22224   0.926   1.237   7.697 -1.1820  0.9558 -0.7924
  192POPC   C3822225   1.000   1.375   7.850 -0.4535 -0.3000 -0.5542
  192POPC   H8X22226   0.895   1.411   7.855 -0.5527 -0.7556  2.0424
  192POPC   H8Y22227   1.077   1.452   7.869  0.4881 -1.2135 -0.5534
  192POPC   C3922228   1.005   1.266   7.962 -0.9989 -0.4852  0.6469
  192POPC   H9X22229   1.109   1.229   7.972 -0.4475  0.9683  0.4573
  192POPC   H9Y22230   0.938   1.186   7.922 -0.4378  0.7408 -3.2303
  192POPC  C31022231   0.953   1.314   8.097  0.0554  0.1945 -0.0242
  192POPC  H10X22232   0.842   1.319   8.095 -0.2783 -3.2901  1.8809
  192POPC  H10Y22233   1.006   1.406   8.129 -0.2872  0.0102  1.1250
  192POPC  C31122234   0.965   1.214   8.217 -0.2676 -0.0490  0.0308
  192POPC  H11X22235   1.073   1.204   8.243 -0.5266  0.8444  1.6241
  192POPC  H11Y22236   0.918   1.120   8.182 -2.4449  0.6034  1.0337
  192POPC  C31222237   0.899   1.253   8.348  0.2610 -0.4593 -0.0614
  192POPC  H12X22238   0.789   1.239   8.336  0.3132 -1.0761  0.1003
  192POPC  H12Y22239   0.931   1.352   8.386 -0.5151 -0.4395  0.5946
  192POPC  C31322240   0.931   1.150   8.460 -0.6013 -0.1406 -0.7967
  192POPC  H13X22241   1.041   1.134   8.462 -0.9765 -3.3170  1.0777
  192POPC  H13Y22242   0.890   1.049   8.442 -0.5828 -0.4574  0.7729
  192POPC  C31422243   0.892   1.186   8.607 -0.1583  0.1808  1.2271
  192POPC  H14X22244   0.814   1.265   8.600 -0.4268 -0.1575  0.3637
  192POPC  H14Y22245   0.987   1.228   8.647  1.4344 -2.2843  0.2668
  192POPC  C31522246   0.855   1.071   8.696 -0.0996 -0.0462  0.0840
  192POPC  H15X22247   0.943   1.006   8.713 -1.3532 -1.7910  0.2069
  192POPC  H15Y22248   0.770   1.013   8.653  0.6751  0.3270 -2.0567
  192POPC  C31622249   0.817   1.135   8.837  0.3081 -0.5406  0.1471
  192POPC  H16X22250   0.909   1.175   8.885  1.4546 -1.8287 -0.9071
  192POPC  H16Y22251   0.779   1.056   8.906 -0.8365  0.0071  0.1592
  192POPC  H16Z22252   0.738   1.213   8.833  0.6445 -0.1851  0.3434
  193SOD    SOD22253   2.140   2.226  12.764  0.5124 -0.2188 -0.0766
  194SOD    SOD22254   3.061   4.029   6.370 -0.1350 -0.4203 -0.5021
  195SOD    SOD22255   0.881   5.565  11.893 -0.4695  0.2305 -0.7823
  196SOD    SOD22256   4.698   4.441  15.242  0.2440  0.1745 -0.2031
  197SOD    SOD22257   4.220   2.436  10.838  0.0850 -0.1794  0.0500
  198SOD    SOD22258   2.814   4.625  11.394  0.1652 -0.1315 -0.4611
  199SOD    SOD22259   1.171   6.183  14.166  0.0754 -0.1452 -0.6927
  200SOD    SOD22260   5.393   1.077   6.270  0.0764 -0.2228  0.4159
  201SOD    SOD22261   4.129   3.854  11.865 -0.5410 -0.7818 -0.1105
  202SOD    SOD22262   3.576   3.232   5.920  0.0285  0.0222 -0.0478
  203SOD    SOD22263   4.336   5.818  10.909 -0.0450 -0.3948 -0.2203
  204SOD    SOD22264   1.046   5.691   0.334 -0.0229 -0.0883  0.3036
  205SOD    SOD22265   6.161   1.828  15.270 -0.1395  0.1135  0.4011
  206SOD    SOD22266   6.064   3.164   3.325 -0.1433 -0.7028  0.3692
  207SOD    SOD22267   2.216   1.488   5.812 -0.1770  0.4083  0.0287
  208SOD    SOD22268   3.362   4.814  15.907  0.0402  0.0512  0.2048
  209SOD    SOD22269   0.622   0.059  12.026 -0.1168  0.3972 -0.1395
  210SOD    SOD22270   3.620   1.862  16.182 -0.0830  0.2192 -0.0620
  211SOD    SOD22271   3.348   6.413   3.882  0.1383  0.1910  0.4261
  212SOD    SOD22272   1.541   2.524   6.723 -0.1943 -0.1111 -0.1691
  213SOD    SOD22273   4.902   6.118   1.001  0.3535 -0.1686 -0.0175
  214SOD    SOD22274   0.969   2.105  12.820 -0.0098 -0.0616  0.1758
  215SOD    SOD22275   0.320   1.228  15.269 -0.0484  0.4686 -0.2770
  216SOD    SOD22276   6.562   0.172   3.306  0.1546  0.3384  0.3171
  217SOD    SOD22277   6.580   4.776  14.130  0.4997  0.0897  0.1306
  218SOD    SOD22278   6.054   3.570   5.972  0.1350 -0.1192  0.1065
  219SOD    SOD22279   2.717   5.052   0.697  0.2031  0.0442 -0.1538
  220SOD    SOD22280   2.262   3.088  13.497  0.4369  0.1966  0.8520
  221SOD    SOD22281   4.815   1.487   5.379 -0.2818  0.2167 -0.0034
  222SOD    SOD22282   4.473   6.030  12.286  0.1836  0.1061 -0.6287
  223SOD    SOD22283   5.866   1.326   4.748 -0.0860  0.0199  0.7141
  224SOD    SOD22284   6.358   5.602   0.562 -0.4695  0.5607 -0.2407
  225SOD    SOD22285   5.493   1.873  16.547 -0.4987  0.2179  0.6820
  226SOD    SOD22286   5.428   2.851   6.231  0.0023  0.5737 -0.2818
  227SOD    SOD22287   5.012   0.373   5.128 -0.0623  0.4082 -0.5902
  228SOD    SOD22288   1.628   2.675  13.738 -0.5509  0.4250 -0.4622
  229SOD    SOD22289   2.468   6.345   1.212  0.5581 -0.1650  0.1440
  230SOD    SOD22290   1.660   1.288  10.885  0.3909 -0.3637  0.0435
  231SOD    SOD22291   0.921   5.809   4.781  0.6397 -0.0776  0.0147
  232SOD    SOD22292   0.099   3.049   6.531  0.8232 -0.2676  0.0069
  233SOD    SOD22293   1.064   6.602  13.476 -0.2037  0.4150  0.2036
  234SOD    SOD22294   1.067   4.221   6.187 -0.3032  0.1830 -0.0729
  235SOD    SOD22295   3.588   6.425  14.856  0.7080 -0.2349  0.2562
  236SOD    SOD22296   3.493   1.315   4.207 -0.0214 -0.0398 -0.2543
  237SOD    SOD22297   0.434   4.008  12.673  0.2618 -0.3089  0.4666
  238SOD    SOD22298   2.834   4.420   5.192  0.0304 -0.7819 -0.3413
  239SOD    SOD22299   6.273   1.396  16.907  0.0261 -0.5803  0.0031
  240SOD    SOD22300   0.782   6.574  16.024 -0.7059 -0.0633  0.4700
  241SOD    SOD22301   2.667   4.465  15.795 -0.1709 -0.1632  0.0192
  242SOD    SOD22302   2.009   0.985  12.968  0.7192  0.0877 -0.3531
  243SOD    SOD22303   0.824   1.307   0.560  0.4266  0.2222  0.3321
  244SOD    SOD22304   2.769   3.916   3.469 -0.4119 -0.2576  0.0759
  245SOD    SOD22305   4.310   0.986   3.754 -0.0642  0.1711  0.2625
  246SOD    SOD22306   4.478   2.624   6.404 -0.0036 -0.5203 -0.0511
  247SOD    SOD22307   3.950   6.478   5.475 -0.0799  0.4890 -0.5417
  248SOD    SOD22308   5.910   0.281   1.954 -0.1438  0.5071  1.0651
  249SOD    SOD22309   2.126   0.201   4.159  0.2810  0.0423  0.7578
  250SOD    SOD22310   3.156   1.813  11.726 -0.3064 -0.0328  0.0247
  251SOD    SOD22311   3.513   0.871  15.940 -0.1631  0.0625 -0.1075
  252SOD    SOD22312   0.903   6.712   1.322  0.0935 -0.1313 -0.4442
  253SOD    SOD22313   1.189   1.128   5.472  0.3708  0.4386 -0.3232
  254SOD    SOD22314   3.497   1.070  17.272  0.2295  0.3342 -0.1943
  255SOD    SOD22315   1.950   2.713   2.649 -0.2877 -0.4988  0.3932
  256SOD    SOD22316   4.450   2.990  10.727  0.2449 -0.3185 -0.1076
  257SOD    SOD22317   4.706   5.563   6.330 -0.0690  0.1368 -0.7010
  258SOD    SOD22318   4.738   0.763  15.033 -0.2956  0.3257  0.1000
  259SOD    SOD22319   5.101   4.714  12.778  0.3406  0.0214 -0.7452
  260SOD    SOD22320   2.944   4.995   3.479 -0.6430 -0.1060  0.0296
  261SOD    SOD22321   4.907   3.433   2.186  0.3197 -0.0690 -0.0749
  262SOD    SOD22322   1.201   1.650  11.292 -0.3204 -0.2929 -0.1572
  263SOD    SOD22323   6.500   3.644  12.600  0.4742 -0.1204 -0.1628
  264SOD    SOD22324   1.226   0.067  14.908 -0.0771 -0.5606  0.1894
  265SOD    SOD22325   5.763   4.474  16.853  0.4529  0.2785  0.3352
  266SOD    SOD22326   5.368   5.098   4.039  0.3055  0.1478  0.4177
  267SOD    SOD22327   4.552   6.435  11.787  0.2781 -0.0183 -0.2485
  268SOD    SOD22328   4.432   6.578   2.120  0.2791 -0.1597 -0.0069
  269SOD    SOD22329   4.049   1.402   1.428  0.0106  0.3211  0.0749
  270CLA    CLA22330   2.320   1.767  15.368 -0.4754 -0.2917  0.2704
  271CLA    CLA22331   0.034   0.887   5.533  0.0483 -0.3112  0.1340
  272CLA    CLA22332   2.312   4.439   3.896 -0.7730  0.1713 -0.2423
  273CLA    CLA22333   5.335   2.394   5.677  0.1263 -0.2924 -0.1375
  274CLA    CLA22334   2.910   0.665  14.166 -0.1392  0.1892  0.1575
  275CLA    CLA22335   4.626   6.073   1.548  0.5691 -0.6781 -0.1556
  276CLA    CLA22336   2.774   1.430   3.376  0.3137  0.4324 -0.3315
  277CLA    CLA22337   0.668   6.462   3.438 -0.4115 -0.0871 -0.3438
  278CLA    CLA22338   0.308   6.272   4.135 -0.1370 -0.2396 -0.1433
  279CLA    CLA22339   0.948   5.925  13.805 -0.0168  0.2913  0.2139
  280CLA    CLA22340   0.600   1.100   2.120  0.3797  0.0705  0.1258
  281CLA    CLA22341   4.849   3.222   2.555 -0.0658  0.7234 -0.2634
  282CLA    CLA22342   2.004   6.141  16.140  0.1212  0.4514 -0.0218
  283CLA    CLA22343   2.626   4.343   2.335  0.1187  0.0444 -0.4208
  284CLA    CLA22344   5.055   0.380   4.321  0.1366  0.2804 -0.3968
  285CLA    CLA22345   4.452   1.368   0.388  0.1336  0.4146  0.1537
  286CLA    CLA22346   4.481   3.833  16.554  0.1155  0.4236 -0.3747
  287CLA    CLA22347   1.236   1.368   5.360  0.4708  0.0571  0.3535
  288CLA    CLA22348   4.583   2.226   1.463 -0.5351  0.2210  0.2754
  289CLA    CLA22349   5.496   0.057  16.922 -0.0390  0.1318 -0.6573
  290CLA    CLA22350   1.421   1.559  14.321  0.0112 -0.1740  0.4324
  291CLA    CLA22351   5.814   4.787  15.230  0.1855 -0.1612  0.2670
  292CLA    CLA22352   5.900   3.838   4.282  0.1724  0.2963  0.0211
  293CLA    CLA22353   0.847   0.892  14.758 -0.1825  0.1104  0.2530
  294CLA    CLA22354   3.615   3.809  17.351 -0.0439 -0.0700 -0.3500
  295CLA    CLA22355   3.848   2.739   5.468 -0.3657 -0.1936  0.1965
  296CLA    CLA22356   6.250   4.541  16.685 -0.1685 -0.1751 -0.4360
  297CLA    CLA22357   4.699   6.576  12.639 -0.0783  0.2926 -0.0412
  298CLA    CLA22358   4.869   1.993   0.715 -0.2610 -0.2812 -0.0403
  299CLA    CLA22359   1.588   0.214  17.383  0.2004 -0.3826  0.3906
  300CLA    CLA22360   2.204   3.861  14.666 -0.2669 -0.2786  0.0486
  301CLA    CLA22361   4.484   3.168   0.347  0.0349  0.2051 -0.3235
  302CLA    CLA22362   1.622   1.066   0.292  0.0767 -0.0692  0.1226
  303CLA    CLA22363   6.220   4.705  13.392  0.5962 -0.3042 -0.0283
  304CLA    CLA22364   3.652   1.403   0.891  0.0152 -0.6959 -0.0417
  305CLA    CLA22365   2.547   1.795  12.265 -0.2417  0.1069 -0.6563
  306CLA    CLA22366   4.407   1.555  14.432 -0.3874  0.3089  0.5426
  307CLA    CLA22367   2.956   1.540  12.232 -0.0101 -0.3768  0.1056
  308CLA    CLA22368   2.926   1.914   4.876 -0.0739  0.1789 -0.2346
  309CLA    CLA22369   1.866   3.373   5.996 -0.3835 -0.3015 -0.5018
  310CLA    CLA22370   4.059   1.716  16.485 -0.0464 -0.0370  0.1581
  311CLA    CLA22371   0.446   2.524  15.606  0.2726  0.0642  0.1966
  312CLA    CLA22372   3.359   6.034  16.272 -0.1056 -0.0169 -0.1095
  313CLA    CLA22373   0.999   4.515   5.462 -0.1582  0.0815  0.3445
  314CLA    CLA22374   6.053   1.982  16.309  0.0688 -0.0221  0.1191
  315CLA    CLA22375   2.262   1.431   1.246 -0.0554 -0.5192  0.0865
  316CLA    CLA22376   2.800   5.455  17.239  0.0492  0.2002  0.2063
  317CLA    CLA22377   0.991   3.497  12.495  0.1150  0.1635  0.0005
  318CLA    CLA22378   5.792   3.355  12.927 -0.1218  0.1844  0.0213
  319CLA    CLA22379   0.716   6.366   1.662 -0.0818 -0.1506  0.3429
  320CLA    CLA22380   5.582   5.507  15.132  0.0546  0.0967  0.0267
  321CLA    CLA22381   4.664   6.257  16.641 -0.3049 -0.0185  0.3428
  322CLA    CLA22382   0.743   0.783  12.846  0.5599  0.1732  0.4382
  323TIP3   OH222383   2.229   3.168   5.363  0.4636  0.0472  0.0635
  323TIP3    H122384   2.216   3.094   5.422 -0.1513 -2.6773 -3.2025
  323TIP3    H222385   2.142   3.208   5.355  0.4317  0.0737  0.5140
  324TIP3   OH222386   5.559   1.454  12.669 -0.3993  0.0978 -0.3033
  324TIP3    H122387   5.607   1.372  12.682  0.8264  0.4957 -2.0164
  324TIP3    H222388   5.489   1.451  12.734 -0.1695 -2.1325 -0.0823
  325TIP3   OH222389   4.697   6.391  12.108 -0.5770  0.2992 -0.3488
  325TIP3    H122390   4.723   6.418  12.196  0.3501 -1.0777 -0.1746
  325TIP3    H222391   4.634   6.458  12.080  0.9905  2.1358  0.3605
  326TIP3   OH222392   4.761   2.682  16.364  0.1185 -0.3562 -0.0662
  326TIP3    H122393   4.852   2.704  16.343  0.5517 -1.7420  0.2468
  326TIP3    H222394   4.735   2.746  16.430 -0.2773  2.1776 -2.5105
  327TIP3   OH222395   6.010   0.362  12.696  0.0126  0.2673  0.2942
  327TIP3    H122396   5.983   0.306  12.623  0.2079 -0.2114  0.5854
  327TIP3    H222397   6.104   0.344  12.706  0.2891  1.3576 -0.2251
  328TIP3   OH222398   0.108   1.409   4.602 -0.4136  0.2673 -0.0137
  328TIP3    H122399   0.022   1.391   4.642  0.2245 -0.8762  0.9171
  328TIP3    H222400   0.136   1.324   4.568  2.1067 -0.4039  3.2681
  329TIP3   OH222401   2.509   2.973   4.850  0.2122 -0.1660  0.1323
  329TIP3    H122402   2.510   2.981   4.946 -0.4931 -1.6620  0.2800
  329TIP3    H222403   2.602   2.969   4.826  0.3920  0.0632  0.7610
  330TIP3   OH222404   4.061   4.205  16.390  0.2638 -0.0732 -0.1688
  330TIP3    H122405   4.095   4.116  16.402 -0.6567 -0.5749 -1.1952
  330TIP3    H222406   4.131   4.251  16.343  0.8635 -0.1547  0.6211
  331TIP3   OH222407   4.634   2.505   1.119 -0.1995  0.0552  0.2556
  331TIP3    H122408   4.695   2.455   1.173  0.2131  0.1411 -0.1245
  331TIP3    H222409   4.662   2.596   1.128  0.3400  0.0022 -0.6632
  332TIP3   OH222410   4.206   3.972  16.443  0.3348  0.0035  0.5138
  332TIP3    H122411   4.157   3.982  16.525 -1.8042 -0.7920 -0.5902
  332TIP3    H222412   4.289   3.932  16.470  0.0049  0.4512  2.3597
  333TIP3   OH222413   4.469   1.854   5.500  0.0290 -0.3357  0.2555
  333TIP3    H122414   4.375   1.843   5.483 -0.2552 -0.1085  1.5833
  333TIP3    H222415   4.488   1.944   5.474 -0.7500  0.5363  2.4712
  334TIP3   OH222416   4.688   5.993  12.804 -0.2015 -0.2648 -0.4397
  334TIP3    H122417   4.599   5.974  12.831 -0.1034  0.8221  0.7136
  334TIP3    H222418   4.681   6.073  12.752  0.1367 -0.0442 -0.1452
  335TIP3   OH222419   3.972   3.437  16.174 -0.5596  0.4892  0.5124
  335TIP3    H122420   4.029   3.429  16.250 -0.4726 -1.0661  0.3187
  335TIP3    H222421   3.907   3.368  16.185 -2.0805  1.8696  0.4311
  336TIP3   OH222422   1.713   4.352   4.828  0.4352 -0.1171  0.1665
  336TIP3    H122423   1.723   4.304   4.746 -0.1466 -2.2676  1.2697
  336TIP3    H222424   1.780   4.314   4.885 -0.9684 -0.6637  1.5121
  337TIP3   OH222425   2.853   2.050   0.246  0.1375 -0.0185  0.0077
  337TIP3    H122426   2.819   2.137   0.226 -0.6491 -0.3222 -0.0095
  337TIP3    H222427   2.775   1.994   0.249  0.7194 -0.9178 -1.0068
  338TIP3   OH222428   5.285   4.286   3.279 -0.0395 -0.1153 -0.5207
  338TIP3    H122429   5.276   4.230   3.202 -2.6399 -0.4106 -0.0836
  338TIP3    H222430   5.266   4.228   3.353 -1.3964  0.9872  0.0383
  339TIP3   OH222431   2.669   0.897  13.214  0.1532  0.1346 -0.6842
  339TIP3    H122432   2.721   0.879  13.135 -0.8822 -0.3497 -1.2851
  339TIP3    H222433   2.734   0.912  13.283  1.1184 -2.3386 -0.9595
  340TIP3   OH222434   3.051   1.548  16.945  0.6792 -0.3319  0.4845
  340TIP3    H122435   3.080   1.529  16.855 -0.6406  2.0273 -0.5178
  340TIP3    H222436   3.128   1.582  16.989  0.4513  2.3605 -1.0345
  341TIP3   OH222437   1.987   1.948  13.178  0.2542  0.4557  0.5875
  341TIP3    H122438   1.931   1.935  13.102  2.4342  3.0872 -1.6903
  341TIP3    H222439   2.052   1.878  13.172 -1.4722 -1.4095  2.1258
  342TIP3   OH222440   5.147   6.532  17.126  0.1569  0.0248 -0.1501
  342TIP3    H122441   5.172   6.454  17.176  0.2309 -0.4315 -0.8883
  342TIP3    H222442   5.053   6.539  17.140 -0.0905 -1.0014 -1.1811
  343TIP3   OH222443   0.158   2.419   4.773  0.2851  0.6539  0.1963
  343TIP3    H122444   0.145   2.513   4.785 -1.1791  0.6140 -0.8501
  343TIP3    H222445   0.074   2.387   4.742  1.6097 -0.4553 -2.6433
  344TIP3   OH222446   5.326   3.027  12.219 -0.8058 -0.2885  0.6431
  344TIP3    H122447   5.346   2.933  12.219  0.8206  0.0289 -0.0773
  344TIP3    H222448   5.284   3.042  12.135 -1.3491 -0.3950  0.8834
  345TIP3   OH222449   2.970   3.272  14.974 -0.0355  0.2398 -0.3883
  345TIP3    H122450   2.982   3.182  15.003 -4.0940 -0.4706 -0.3651
  345TIP3    H222451   2.949   3.264  14.881 -1.5698  0.9603 -0.1388
  346TIP3   OH222452   5.574   6.609   2.345 -0.2245  0.8497 -0.5837
  346TIP3    H122453   5.652   6.628   2.396 -1.0664  1.5292  0.5045
  346TIP3    H222454   5.535   6.532   2.387  0.4179 -0.1744 -1.7995
  347TIP3   OH222455   4.018   4.481   1.106  0.1196 -0.9538  0.4098
  347TIP3    H122456   3.935   4.475   1.058 -0.3048  0.0998  0.9726
  347TIP3    H222457   4.074   4.534   1.050  0.1900 -1.1300  0.3152
  348TIP3   OH222458   3.787   3.417   3.133  0.2065  0.2361  0.1618
  348TIP3    H122459   3.807   3.444   3.044 -0.7822  0.2045 -0.0751
  348TIP3    H222460   3.695   3.392   3.131  0.2488 -0.0402  1.1249
  349TIP3   OH222461   2.139   2.002  13.702 -0.3269 -0.0809 -0.0181
  349TIP3    H122462   2.117   2.059  13.776  2.5958 -0.5201  1.3525
  349TIP3    H222463   2.205   2.051  13.653 -0.2474 -0.9200 -0.7857
  350TIP3   OH222464   6.637   2.802  16.365 -0.5714  0.7080  0.3450
  350TIP3    H122465   6.691   2.730  16.397  0.8608  0.3779 -2.5224
  350TIP3    H222466   6.547   2.768  16.369 -0.1878 -0.2427  1.4063
  351TIP3   OH222467   2.349   1.796   6.536 -0.6533 -0.0247 -0.5277
  351TIP3    H122468   2.367   1.775   6.627  1.5320  0.1394 -0.8699
  351TIP3    H222469   2.294   1.724   6.505 -1.7948  0.1393  0.9969
  352TIP3   OH222470   4.928   2.574  14.347  0.1369  0.6544 -0.3624
  352TIP3    H122471   4.873   2.578  14.269  0.1712  0.5921 -0.3891
  352TIP3    H222472   5.013   2.544  14.316 -0.4293 -1.4988 -0.0025
  353TIP3   OH222473   3.220   5.010   0.755  0.2765  0.0123  0.0100
  353TIP3    H122474   3.142   4.955   0.746  0.9188 -0.7425 -1.1309
  353TIP3    H222475   3.281   4.956   0.805 -0.2401  0.9709  1.7625
  354TIP3   OH222476   5.885   1.622  14.489  0.4672 -0.4595 -0.0479
  354TIP3    H122477   5.946   1.683  14.447  0.3704 -0.9234 -0.8685
  354TIP3    H222478   5.937   1.545  14.510 -0.1013 -1.4226 -2.0041
  355TIP3   OH222479   5.619   2.839  10.780 -0.1717  0.1614 -0.2964
  355TIP3    H122480   5.566   2.905  10.823  0.9882  0.3710  0.8619
  355TIP3    H222481   5.664   2.887  10.710 -1.1500  0.0715 -1.0043
  356TIP3   OH222482   6.692   5.414  15.857 -0.5016  0.2912  0.1139
  356TIP3    H122483   6.681   5.437  15.765  0.6525  0.9805  0.1204
  356TIP3    H222484   6.741   5.488  15.894  0.6755 -0.8153  0.8365
  357TIP3   OH222485   5.342   1.147   4.211  0.2635  0.2553 -0.0552
  357TIP3    H122486   5.293   1.176   4.288  1.2971 -0.3527  0.8750
  357TIP3    H222487   5.390   1.225   4.183  0.0672  0.4192  0.0596
  358TIP3   OH222488   2.684   2.645  14.325  0.3628  0.0019 -0.6774
  358TIP3    H122489   2.773   2.615  14.307  0.6372 -1.0866  1.9866
  358TIP3    H222490   2.690   2.689  14.409 -1.7006 -0.6821 -0.1039
  359TIP3   OH222491   5.024   4.261   2.733 -0.2493 -0.6696  0.2803
  359TIP3    H122492   5.112   4.289   2.708 -1.2068  0.9160 -1.6115
  359TIP3    H222493   4.985   4.338   2.774 -1.5365 -0.4864 -1.1774
  360TIP3   OH222494   0.209   0.510  13.536  0.2831  0.2940  0.1776
  360TIP3    H122495   0.277   0.443  13.534 -1.5736 -1.7323  0.4708
  360TIP3    H222496   0.215   0.548  13.624 -0.4295 -1.5670  1.0870
  361TIP3   OH222497   4.633   3.705  13.370 -0.0815 -0.6489  0.2583
  361TIP3    H122498   4.683   3.779  13.405 -0.1847 -1.4348  2.1599
  361TIP3    H222499   4.698   3.636  13.358 -0.0401 -0.3859 -1.2291
  362TIP3   OH222500   4.993   0.991  14.819  0.4104 -0.1695 -0.5446
  362TIP3    H122501   4.957   1.044  14.748 -1.7617  3.5954  2.9863
  362TIP3    H222502   5.088   0.994  14.805  0.1239  1.1833 -2.7053
  363TIP3   OH222503   1.810   6.206   4.292 -0.2990  0.3703  0.5311
  363TIP3    H122504   1.717   6.184   4.287 -0.5780  1.5718  0.0353
  363TIP3    H222505   1.848   6.167   4.213 -0.4293  0.0794  0.6110
  364TIP3   OH222506   2.908   5.047  16.573 -0.0820 -0.3386  0.1141
  364TIP3    H122507   2.934   5.134  16.541  0.3012 -0.1058  1.0187
  364TIP3    H222508   2.833   5.023  16.518  0.0643  0.3882 -0.4187
  365TIP3   OH222509   0.256   1.895   4.524 -0.6278  0.2427  0.1164
  365TIP3    H122510   0.166   1.866   4.507  0.5066 -2.2764 -2.4656
  365TIP3    H222511   0.282   1.942   4.445  0.6321  0.1428  0.4409
  366TIP3   OH222512   4.934   4.115  13.785 -0.0262 -0.2163  0.1696
  366TIP3    H122513   4.979   4.171  13.848  0.3138  0.7357 -0.9012
  366TIP3    H222514   4.967   4.027  13.804  2.7250  0.4767 -0.8482
  367TIP3   OH222515   3.387   1.834   1.520 -0.1857 -0.1835  0.7802
  367TIP3    H122516   3.379   1.759   1.579 -0.0489 -1.3112 -0.5769
  367TIP3    H222517   3.399   1.795   1.433  1.2295  1.4151  0.2011
  368TIP3   OH222518   4.345   0.695   2.660 -0.1343 -0.8243  0.0307
  368TIP3    H122519   4.420   0.748   2.686  0.1292 -0.4764 -1.3804
  368TIP3    H222520   4.269   0.741   2.697  0.2943 -1.0863  1.3144
  369TIP3   OH222521   4.780   3.799  12.882  0.0282 -0.2101  0.0138
  369TIP3    H122522   4.777   3.722  12.939 -0.6449 -0.7709 -0.7575
  369TIP3    H222523   4.712   3.857  12.917 -1.0581 -0.9718 -0.7779
  370TIP3   OH222524   2.029   5.516   5.695 -0.5008  0.2906 -0.7100
  370TIP3    H122525   2.006   5.598   5.651  0.4421 -0.9979 -3.8740
  370TIP3    H222526   2.111   5.536   5.740 -1.2178  1.5249  0.0976
  371TIP3   OH222527   6.036   3.338   4.646  0.6414  0.0240 -0.0366
  371TIP3    H122528   6.010   3.430   4.644 -0.0417 -0.1675 -0.2874
  371TIP3    H222529   6.030   3.309   4.555 -0.3261 -0.5775  0.2017
  372TIP3   OH222530   5.716   1.665   0.117 -0.1667  0.4771  0.1691
  372TIP3    H122531   5.679   1.588   0.160  0.9603  0.3774  0.9928
  372TIP3    H222532   5.809   1.644   0.106 -0.2067  0.9579 -1.3126
  373TIP3   OH222533   0.951   2.922  15.374 -0.1996 -0.1699  0.5160
  373TIP3    H122534   1.045   2.922  15.394  0.0067 -1.0333 -0.3640
  373TIP3    H222535   0.919   2.841  15.412 -0.0085 -1.2995 -1.5965
  374TIP3   OH222536   4.764   6.133   3.641 -0.5007  0.5689 -0.3104
  374TIP3    H122537   4.742   6.125   3.734 -1.5024  1.9720 -0.3899
  374TIP3    H222538   4.834   6.069   3.627 -1.2495 -0.6084  1.0937
  375TIP3   OH222539   5.103   3.452  14.532  0.4038 -0.4571  0.6365
  375TIP3    H122540   5.170   3.400  14.487 -0.3133 -0.8182 -0.0455
  375TIP3    H222541   5.100   3.416  14.621  0.2466 -1.2902  0.3073
  376TIP3   OH222542   3.204   5.803  13.886 -0.2356 -0.5364 -0.3204
  376TIP3    H122543   3.245   5.885  13.857 -1.6708  0.6395  0.7990
  376TIP3    H222544   3.264   5.769  13.953 -1.2451  1.4721  1.7334
  377TIP3   OH222545   1.464   2.789   4.408 -0.5665  0.1907  0.1265
  377TIP3    H122546   1.525   2.728   4.366  0.4614  1.2967 -0.0492
  377TIP3    H222547   1.449   2.752   4.495 -0.6854 -0.7781 -0.2941
  378TIP3   OH222548   6.127   2.473  14.947  0.5662 -0.0850  0.1825
  378TIP3    H122549   6.189   2.511  15.009 -1.5838  2.6338  0.8199
  378TIP3    H222550   6.123   2.536  14.875 -1.4034 -0.2011  0.1407
  379TIP3   OH222551   5.474   2.555  15.963  0.4684 -1.0666  0.0072
  379TIP3    H122552   5.488   2.552  16.058  1.6942 -0.6507 -0.1351
  379TIP3    H222553   5.562   2.563  15.927  0.0305 -1.4808 -1.1866
  380TIP3   OH222554   0.203   3.258   4.581  0.0554  0.1307  0.4068
  380TIP3    H122555   0.121   3.290   4.619 -0.3306 -1.6959  1.2338
  380TIP3    H222556   0.242   3.205   4.650  1.0450 -0.4858 -0.5964
  381TIP3   OH222557   1.875   0.564  17.217  0.0346 -0.3727  0.4305
  381TIP3    H122558   1.840   0.627  17.155 -0.1468 -0.6801  0.2212
  381TIP3    H222559   1.946   0.520  17.169  0.7192  0.2449  0.8493
  382TIP3   OH222560   6.297   6.338  16.328 -0.5909  0.2191 -0.5617
  382TIP3    H122561   6.225   6.307  16.382 -0.0056  0.2734  0.2758
  382TIP3    H222562   6.339   6.258  16.295  0.6436  0.0503  1.2322
  383TIP3   OH222563   4.501   1.118  14.066  0.2173 -0.2532 -0.4266
  383TIP3    H122564   4.494   1.190  14.129  1.0146  0.4686 -1.1447
  383TIP3    H222565   4.585   1.078  14.085 -0.5957 -1.5935  0.5494
  384TIP3   OH222566   1.972   0.242  13.135 -0.6321  0.1199  0.1378
  384TIP3    H122567   1.905   0.187  13.175 -0.5130  1.0401  1.6554
  384TIP3    H222568   2.022   0.182  13.079 -3.0224 -0.4992 -1.5219
  385TIP3   OH222569   2.190   1.945   3.804  0.5029  0.2113  0.2090
  385TIP3    H122570   2.263   2.006   3.797  1.2084 -0.3289  2.1030
  385TIP3    H222571   2.227   1.860   3.782  1.0329 -0.3772  2.9721
  386TIP3   OH222572   6.610   3.220  16.301  0.1039  0.0798 -0.1322
  386TIP3    H122573   6.664   3.172  16.364  1.2125  2.2243  0.6316
  386TIP3    H222574   6.535   3.162  16.287  0.8285 -1.4017  1.5441
  387TIP3   OH222575   4.470   4.572   1.079 -0.5865  0.3039 -0.5206
  387TIP3    H122576   4.542   4.576   1.142 -0.6720  1.8880 -0.4774
  387TIP3    H222577   4.453   4.479   1.067  0.6227 -0.0615  0.4348
  388TIP3   OH222578   4.827   2.582   0.831  0.4511  0.0171 -0.6576
  388TIP3    H122579   4.849   2.575   0.924  0.0892  0.2618 -0.5543
  388TIP3    H222580   4.797   2.495   0.806 -2.0465  0.5974  0.1158
  389TIP3   OH222581   2.716   2.257  16.113 -0.1611 -0.9034 -0.1848
  389TIP3    H122582   2.676   2.215  16.190  0.0069 -0.9143 -0.1049
  389TIP3    H222583   2.647   2.254  16.046  0.0316 -1.8016 -0.3541
  390TIP3   OH222584   1.759   3.495  15.196 -0.1226  0.1246 -0.0861
  390TIP3    H122585   1.726   3.444  15.270 -0.0142  0.2284  0.0334
  390TIP3    H222586   1.724   3.583  15.211 -2.3335 -0.4134 -1.5363
  391TIP3   OH222587   4.712   0.663  11.246 -0.0873 -0.0011  0.1497
  391TIP3    H122588   4.759   0.707  11.317 -3.4212  1.9978  1.3305
  391TIP3    H222589   4.700   0.730  11.179 -0.8308 -0.5866 -0.3160
  392TIP3   OH222590   0.639   1.977   1.565  0.2299  0.1815 -0.5054
  392TIP3    H122591   0.607   1.905   1.620  0.6809 -0.7315 -1.3988
  392TIP3    H222592   0.734   1.977   1.579  0.1779  1.0032 -0.0690
  393TIP3   OH222593   3.716   5.167  13.862  0.1772  0.3611  0.0091
  393TIP3    H122594   3.691   5.076  13.842 -0.0037  0.2525  0.7077
  393TIP3    H222595   3.635   5.217  13.850  0.0649  0.2937  0.4646
  394TIP3   OH222596   3.876   2.701   0.610 -0.0411  0.3919  0.0752
  394TIP3    H122597   3.884   2.794   0.632 -2.0559  0.4327  0.8420
  394TIP3    H222598   3.886   2.656   0.694 -1.1653  0.0730  0.0485
  395TIP3   OH222599   1.609   0.875   2.331  0.9909  0.7345  0.1202
  395TIP3    H122600   1.574   0.912   2.412  2.8128  2.2353  0.2859
  395TIP3    H222601   1.702   0.863   2.348  0.8464 -2.2911 -0.5959
  396TIP3   OH222602   0.486   4.289   5.235  0.0862  0.5788 -0.2877
  396TIP3    H122603   0.581   4.286   5.242  0.0397 -0.6813  0.0940
  396TIP3    H222604   0.458   4.348   5.305  0.4720 -0.8654  1.1392
  397TIP3   OH222605   4.886   5.733  11.529  0.1667 -0.2088  0.5225
  397TIP3    H122606   4.917   5.764  11.444 -1.7739  0.3197 -0.0412
  397TIP3    H222607   4.893   5.638  11.524 -1.1837 -0.2718 -0.7880
  398TIP3   OH222608   0.053   2.376  12.446  0.1591 -0.3466 -0.6646
  398TIP3    H122609   0.099   2.326  12.379 -0.0128 -0.0487 -1.0083
  398TIP3    H222610  -0.022   2.322  12.470  0.4515 -0.6402 -0.4123
  399TIP3   OH222611   4.252   0.779   2.957  0.1797  0.3174  0.0294
  399TIP3    H122612   4.245   0.841   2.885  0.6390 -2.3184 -2.4654
  399TIP3    H222613   4.180   0.717   2.943  0.2051 -0.2310  1.9469
  400TIP3   OH222614   6.259   3.478  16.382  0.4281  0.3169 -0.1427
  400TIP3    H122615   6.339   3.455  16.335  0.2366 -0.7952  0.0637
  400TIP3    H222616   6.286   3.485  16.473  0.1988 -0.5731  0.0014
  401TIP3   OH222617   2.443   5.874  13.272 -0.7606 -0.5104 -0.3332
  401TIP3    H122618   2.465   5.810  13.340 -0.4789  0.2523  0.3084
  401TIP3    H222619   2.387   5.938  13.317  0.8977  1.0010 -0.3313
  402TIP3   OH222620   3.390   1.426   1.063  0.2858 -0.3011 -0.2078
  402TIP3    H122621   3.480   1.434   1.032  0.4906 -1.0899  0.1483
  402TIP3    H222622   3.341   1.393   0.988  0.5663 -1.1716 -0.0161
  403TIP3   OH222623   5.854   2.626  16.266 -0.3016  0.3052  0.1951
  403TIP3    H122624   5.814   2.588  16.188 -0.7723  0.7128  0.2366
  403TIP3    H222625   5.857   2.555  16.329 -0.3634  0.1051 -0.0285
  404TIP3   OH222626   3.551   4.845   6.230  0.1295 -0.4497 -0.2768
  404TIP3    H122627   3.470   4.853   6.180 -1.3476 -1.2282  1.8065
  404TIP3    H222628   3.542   4.909   6.301  3.1182  2.2103 -2.0326
  405TIP3   OH222629   6.251   1.275  15.342  0.4529 -0.1723 -0.5198
  405TIP3    H122630   6.292   1.349  15.298  1.3991  0.1158  0.7931
  405TIP3    H222631   6.319   1.207  15.344  0.2555 -0.3618  0.0146
  406TIP3   OH222632   0.309   0.766   3.177  0.2110 -1.1321  0.1168
  406TIP3    H122633   0.381   0.828   3.167  1.0431 -1.9619  0.7904
  406TIP3    H222634   0.348   0.690   3.221 -0.6600 -2.3708 -1.1516
  407TIP3   OH222635   1.615   3.127  14.090 -0.0072  0.9486  0.3244
  407TIP3    H122636   1.538   3.073  14.112 -0.3105  0.4932 -1.6000
  407TIP3    H222637   1.666   3.131  14.171 -1.4905  0.2879  1.3364
  408TIP3   OH222638   3.153   2.363  13.955 -0.1784 -0.1264  0.0226
  408TIP3    H122639   3.065   2.385  13.923  0.4738  0.9012 -1.1750
  408TIP3    H222640   3.169   2.274  13.923 -0.9809 -0.5311  0.7157
  409TIP3   OH222641   3.185   4.051  14.374  0.1937  0.4533 -0.0693
  409TIP3    H122642   3.220   4.061  14.463  1.8318 -0.1135 -0.6241
  409TIP3    H222643   3.230   4.118  14.323 -1.3209  1.3017 -0.3509
  410TIP3   OH222644   1.533   3.730  14.030  0.2836 -0.2074 -0.2252
  410TIP3    H122645   1.489   3.754  14.112  0.3661  1.1183 -0.5436
  410TIP3    H222646   1.481   3.773  13.962  0.8580 -0.3701 -0.7783
  411TIP3   OH222647   5.473   2.384   5.296 -0.3433  0.0448  0.2484
  411TIP3    H122648   5.380   2.406   5.290 -0.4063 -0.3525 -0.3638
  411TIP3    H222649   5.475   2.300   5.343 -0.3333 -0.1702 -0.1293
  412TIP3   OH222650   0.580   4.111   3.424 -0.7078 -0.4303 -0.1310
  412TIP3    H122651   0.528   4.047   3.472 -0.5798 -0.4348  0.0050
  412TIP3    H222652   0.517   4.161   3.372 -0.9359  0.0751  0.6180
  413TIP3   OH222653   0.862   0.180  13.165  0.2345 -0.6838 -0.1285
  413TIP3    H122654   0.900   0.120  13.101 -0.9830 -1.2061 -0.3975
  413TIP3    H222655   0.819   0.247  13.111  1.6452  0.5057  0.1663
  414TIP3   OH222656   5.973   6.641  12.375 -0.1870 -0.2517  0.2790
  414TIP3    H122657   5.932   6.682  12.299 -0.1751  0.3205  0.5808
  414TIP3    H222658   5.999   6.554  12.344 -1.4072 -0.5417  0.0108
  415TIP3   OH222659   4.986   5.974   3.606 -0.3041  0.0006  0.1008
  415TIP3    H122660   5.011   5.982   3.514 -1.2471  0.4386 -0.1231
  415TIP3    H222661   5.026   5.891   3.634 -0.1977 -0.2500 -0.7635
  416TIP3   OH222662   2.717   0.312  11.999 -0.6875  0.2377 -0.5971
  416TIP3    H122663   2.809   0.333  12.015 -0.2679  0.3168 -2.8448
  416TIP3    H222664   2.719   0.224  11.961 -1.8763 -1.2317  2.3684
  417TIP3   OH222665   1.809   0.668   5.543 -0.5347 -0.3201  0.8594
  417TIP3    H122666   1.726   0.670   5.591 -0.3097 -2.9414  1.5010
  417TIP3    H222667   1.800   0.596   5.481 -0.5646  2.5219 -2.8182
  418TIP3   OH222668   5.434   0.528  16.823  0.1496 -0.0412  0.0259
  418TIP3    H122669   5.417   0.461  16.890  0.3899 -0.3880 -0.2553
  418TIP3    H222670   5.350   0.571  16.810  0.2054  0.3811  0.9256
  419TIP3   OH222671   0.680   0.143  14.099  0.4370  0.3592  1.1079
  419TIP3    H122672   0.688   0.193  14.018  0.3075 -0.3556  0.6487
  419TIP3    H222673   0.756   0.084  14.099  0.5193  0.4576  1.5829
  420TIP3   OH222674   4.725   5.572   3.962 -0.0434  0.0955  0.6086
  420TIP3    H122675   4.709   5.589   4.055 -0.1414  0.5749  0.5072
  420TIP3    H222676   4.815   5.539   3.958 -0.1332 -0.1942  0.9015
  421TIP3   OH222677   0.018   2.672  17.005 -0.2205 -0.7227  0.0070
  421TIP3    H122678   0.073   2.689  17.082 -0.1859 -0.0982 -0.1572
  421TIP3    H222679  -0.037   2.750  16.996 -0.6483 -1.0450 -0.2505
  422TIP3   OH222680   3.071   2.450   0.629 -0.1634  0.2796 -0.5124
  422TIP3    H122681   3.107   2.397   0.558  0.8805  1.5465 -0.9748
  422TIP3    H222682   3.031   2.525   0.586 -1.4515 -0.0152  0.1356
  423TIP3   OH222683   4.654   1.282   0.143 -0.2098  0.4541  0.1696
  423TIP3    H122684   4.647   1.373   0.114 -2.1603  0.7881  1.4452
  423TIP3    H222685   4.638   1.286   0.237 -0.3872 -1.2008  0.2398
  424TIP3   OH222686   3.577   0.681  15.559  0.1885 -0.0617  0.0655
  424TIP3    H122687   3.548   0.680  15.651 -2.4454 -0.4534 -0.6777
  424TIP3    H222688   3.533   0.757  15.521  1.5122  0.2858 -0.8123
  425TIP3   OH222689   4.680   3.826  15.682 -0.1700  0.0931 -0.0538
  425TIP3    H122690   4.590   3.795  15.672  0.3681 -1.7718  0.2908
  425TIP3    H222691   4.695   3.827  15.777  0.5227 -0.8421 -0.1303
  426TIP3   OH222692   2.103   3.954   6.493 -0.3152  1.0544 -0.3546
  426TIP3    H122693   2.110   3.918   6.405  0.5461 -1.2229  0.5582
  426TIP3    H222694   2.193   3.975   6.518 -0.1406 -0.9838  0.9488
  427TIP3   OH222695   2.614   3.593   3.108  0.9326  0.0404 -0.1889
  427TIP3    H122696   2.599   3.640   3.025  0.8694  0.7921  0.2431
  427TIP3    H222697   2.641   3.505   3.081 -0.2967 -0.1127 -1.0161
  428TIP3   OH222698   1.151   4.982   0.910 -0.3326  0.6234  0.0971
  428TIP3    H122699   1.148   4.893   0.946 -0.9968  0.6947  0.2286
  428TIP3    H222700   1.084   4.982   0.842 -0.4434  1.0748  0.2100
  429TIP3   OH222701   2.236   4.711   0.417 -0.0121  0.0948 -0.3352
  429TIP3    H122702   2.241   4.805   0.436  1.4048 -0.0954  0.3739
  429TIP3    H222703   2.238   4.707   0.322 -0.5910  0.8023 -0.3903
  430TIP3   OH222704   2.784   6.246   3.557  0.6232  0.2173 -0.6998
  430TIP3    H122705   2.724   6.235   3.631  1.5862  0.4957  0.1386
  430TIP3    H222706   2.736   6.302   3.496 -1.4013 -2.4344 -1.7192
  431TIP3   OH222707   3.631   4.899   2.897 -0.3105 -0.7082 -0.5051
  431TIP3    H122708   3.658   4.906   2.988  0.2548 -2.1357 -0.5388
  431TIP3    H222709   3.632   4.805   2.878 -0.4817 -0.4469 -1.9630
  432TIP3   OH222710   2.403   2.074  17.005  0.0288 -0.4145 -0.0730
  432TIP3    H122711   2.466   2.014  17.045  0.4966 -0.6468 -1.1142
  432TIP3    H222712   2.442   2.097  16.921  1.2590  3.5483  1.3546
  433TIP3   OH222713   3.312   1.757   5.803  0.2885 -0.0278  0.1206
  433TIP3    H122714   3.246   1.826   5.799  0.7599  0.4335  0.2086
  433TIP3    H222715   3.272   1.683   5.758 -0.2982  0.2400  0.1982
  434TIP3   OH222716   3.111   1.416   2.345  0.1346 -0.5042  0.5475
  434TIP3    H122717   3.049   1.349   2.317 -0.1192  0.1338 -0.4583
  434TIP3    H222718   3.151   1.448   2.264  0.4304  0.3921  1.0294
  435TIP3   OH222719   1.349   1.726   3.057  0.0102  0.7770 -0.3953
  435TIP3    H122720   1.369   1.763   2.971 -1.7795  0.9128 -0.7805
  435TIP3    H222721   1.289   1.789   3.097 -1.1501 -0.4948 -0.0689
  436TIP3   OH222722   2.524   5.260   1.329 -0.0171 -0.1130  0.3840
  436TIP3    H122723   2.599   5.280   1.273  0.0534  0.2741  0.6131
  436TIP3    H222724   2.481   5.186   1.285  0.9805 -0.9146  0.7290
  437TIP3   OH222725   3.605   6.507  11.736 -0.4970 -0.3482 -0.2473
  437TIP3    H122726   3.628   6.537  11.824 -1.5533  0.2885 -0.1670
  437TIP3    H222727   3.649   6.569  11.677  0.1321 -0.7184 -0.1739
  438TIP3   OH222728   4.515   5.157   3.493 -0.3968 -0.3531  0.1905
  438TIP3    H122729   4.575   5.146   3.420 -0.1658  0.0863  0.3064
  438TIP3    H222730   4.490   5.250   3.490 -0.2357 -0.2831  0.7731
  439TIP3   OH222731   5.605   2.293  11.344  0.8759 -0.8223 -0.1177
  439TIP3    H122732   5.694   2.303  11.310  0.2311 -0.3191 -1.7213
  439TIP3    H222733   5.606   2.338  11.429  0.8380  3.9672 -2.3583
  440TIP3   OH222734   6.299   0.902   2.955  0.6511 -0.1126  0.6269
  440TIP3    H122735   6.394   0.911   2.950  0.7885 -1.4308  0.4602
  440TIP3    H222736   6.285   0.808   2.966 -0.6658 -0.0349 -0.2330
  441TIP3   OH222737   3.321   2.331  14.468  0.5944 -0.2438 -0.4218
  441TIP3    H122738   3.305   2.300  14.557 -0.5130  1.6570  0.0949
  441TIP3    H222739   3.371   2.412  14.479 -2.1221  1.7006 -1.2656
  442TIP3   OH222740   2.172   6.335   1.898  0.3705  0.2203  0.0384
  442TIP3    H122741   2.228   6.274   1.946  0.4484  0.0158 -0.3121
  442TIP3    H222742   2.084   6.296   1.903  0.9299 -1.8728 -3.2223
  443TIP3   OH222743   5.800   0.350   1.762  0.5085 -0.4689  0.4899
  443TIP3    H122744   5.851   0.416   1.717  0.5601 -0.6353  0.3053
  443TIP3    H222745   5.710   0.365   1.734  0.5134 -0.4439  0.4876
  444TIP3   OH222746   0.483   5.360  15.076 -0.0261  0.4331  0.3643
  444TIP3    H122747   0.404   5.406  15.103 -0.1991 -0.0175  0.6481
  444TIP3    H222748   0.494   5.382  14.984 -1.1232 -0.3801  0.0073
  445TIP3   OH222749   2.310   3.276   6.005 -1.0684  0.5959 -0.3696
  445TIP3    H122750   2.256   3.307   6.078 -0.9328  0.0826 -0.0437
  445TIP3    H222751   2.311   3.348   5.943 -1.3810  0.9503  0.0338
  446TIP3   OH222752   0.398   4.593   3.944  0.0588 -0.6246  0.2327
  446TIP3    H122753   0.349   4.659   3.994  1.6022 -1.7652  3.5159
  446TIP3    H222754   0.349   4.584   3.862 -1.2028  3.2477  0.3598
  447TIP3   OH222755   0.867   3.107   1.417 -0.3479  0.2424  0.7229
  447TIP3    H122756   0.840   3.194   1.388  0.3007 -0.3299 -1.8471
  447TIP3    H222757   0.819   3.047   1.361 -0.0739 -1.0483  1.8204
  448TIP3   OH222758   6.721   2.805   0.039  0.2280 -0.0290  0.3692
  448TIP3    H122759   6.746   2.817   0.130  1.0406  0.3221  0.1025
  448TIP3    H222760   6.638   2.756   0.043  0.8619 -1.0703  1.2543
  449TIP3   OH222761   1.093   5.026   5.478  0.7580  0.0589 -0.2626
  449TIP3    H122762   1.041   5.011   5.557  0.6303 -0.9231 -0.5191
  449TIP3    H222763   1.087   4.943   5.430  2.3146  0.0290 -0.4397
  450TIP3   OH222764   0.348   5.453   0.795 -0.3945 -0.2327 -0.3953
  450TIP3    H122765   0.401   5.444   0.716 -0.1787  0.3880 -0.3267
  450TIP3    H222766   0.405   5.501   0.856 -0.5886 -0.6394  0.1049
  451TIP3   OH222767   1.352   6.124   5.730  0.0640  0.1067 -0.2335
  451TIP3    H122768   1.335   6.068   5.805  0.8249 -0.1872 -0.2701
  451TIP3    H222769   1.394   6.202   5.766  2.0277 -0.7608 -0.4811
  452TIP3   OH222770   0.447   1.666   5.587 -0.2913  0.5608 -0.2135
  452TIP3    H122771   0.529   1.700   5.551 -0.1547  0.8837  0.3936
  452TIP3    H222772   0.465   1.574   5.604  0.8063  1.1284  2.2498
  453TIP3   OH222773   4.220   5.029  11.816  0.3541  0.2315 -0.5571
  453TIP3    H122774   4.312   5.012  11.835  0.0906 -0.0168  0.5298
  453TIP3    H222775   4.178   5.031  11.902 -0.8247 -0.6370 -1.0916
  454TIP3   OH222776   5.980   2.737  13.795  0.2393 -0.0652  0.8313
  454TIP3    H122777   5.938   2.657  13.825 -0.4251  0.3479  1.0263
  454TIP3    H222778   5.929   2.807  13.834 -0.6394  0.5003 -1.2181
  455TIP3   OH222779   5.319   4.565  16.442 -0.0663 -0.3987  0.5332
  455TIP3    H122780   5.403   4.576  16.486 -0.4230  0.4511  1.0265
  455TIP3    H222781   5.288   4.654  16.425 -0.6246 -0.7035 -0.1185
  456TIP3   OH222782   4.664   2.399   2.711 -0.3040  0.4932 -0.0917
  456TIP3    H122783   4.612   2.363   2.639 -2.5061  2.2238  0.5117
  456TIP3    H222784   4.650   2.494   2.706  2.5647  1.0338  0.3667
  457TIP3   OH222785   2.435   2.220  12.489  1.1354 -0.5497 -0.0391
  457TIP3    H122786   2.467   2.266  12.566  1.2267 -0.8486  0.1012
  457TIP3    H222787   2.422   2.130  12.518 -0.1752 -0.3608  0.0089
  458TIP3   OH222788   2.517   2.570  17.175  0.3776  0.3681 -0.4403
  458TIP3    H122789   2.606   2.559  17.141  0.7477  0.0448  0.5971
  458TIP3    H222790   2.510   2.663  17.196  0.8516  0.2183  0.4494
  459TIP3   OH222791   3.682   5.211   4.605 -0.2954 -0.1396  0.1608
  459TIP3    H122792   3.734   5.239   4.680 -0.0229  1.4541 -0.5847
  459TIP3    H222793   3.679   5.116   4.612  2.3684 -0.2636  0.4610
  460TIP3   OH222794   5.180   2.513  15.018 -0.3164 -0.1805 -0.0070
  460TIP3    H122795   5.175   2.439  14.958 -1.6852  0.1955 -0.3897
  460TIP3    H222796   5.265   2.503  15.062 -0.4675 -1.9431 -0.0555
  461TIP3   OH222797   2.563   0.290   3.351  0.1203 -0.0009  0.5285
  461TIP3    H122798   2.637   0.286   3.291 -0.8665  0.1179 -0.7384
  461TIP3    H222799   2.485   0.286   3.295 -0.8483  0.3254  1.7765
  462TIP3   OH222800   2.554   6.141   1.115 -0.5588  0.1605 -0.1488
  462TIP3    H122801   2.611   6.118   1.189  1.4075  2.0468 -0.9708
  462TIP3    H222802   2.563   6.068   1.054  0.0403 -0.1116  0.2514
  463TIP3   OH222803   5.090   4.165   3.063  1.2177 -0.1196  0.3841
  463TIP3    H122804   5.121   4.171   2.972 -0.1245  1.2791 -0.0125
  463TIP3    H222805   5.005   4.120   3.056  1.2676 -0.3117  0.9967
  464TIP3   OH222806   2.426   2.499   2.424 -0.1350 -0.5725  0.6522
  464TIP3    H122807   2.427   2.422   2.367  0.0539  0.6025 -0.9792
  464TIP3    H222808   2.514   2.504   2.460 -0.0161 -0.8583  0.4061
  465TIP3   OH222809   3.436   5.285  14.632 -0.6064 -0.0507  0.1162
  465TIP3    H122810   3.520   5.325  14.611 -0.3500 -0.2440  0.7588
  465TIP3    H222811   3.457   5.217  14.696 -1.1878 -0.4386 -0.0994
  466TIP3   OH222812   1.225   4.505  13.737 -0.0333 -0.1407  0.0438
  466TIP3    H122813   1.191   4.509  13.648 -0.0594  0.7643  0.0810
  466TIP3    H222814   1.149   4.524  13.792  0.1064 -0.1179  0.2302
  467TIP3   OH222815   3.553   3.799   4.404 -0.1747 -0.3586 -0.1645
  467TIP3    H122816   3.584   3.713   4.434 -0.7641 -0.6859 -0.4619
  467TIP3    H222817   3.524   3.843   4.484 -0.9047 -0.8770 -0.1297
  468TIP3   OH222818   5.674   2.273  15.315 -0.1688 -0.7026  0.0502
  468TIP3    H122819   5.585   2.243  15.333 -0.0995 -2.2043 -1.7934
  468TIP3    H222820   5.669   2.368  15.320 -1.9292 -0.7520 -0.1606
  469TIP3   OH222821   6.435   0.226  14.469  0.9948 -0.3394  0.5590
  469TIP3    H122822   6.431   0.274  14.386 -1.7961 -2.2330 -0.5596
  469TIP3    H222823   6.484   0.146  14.448  1.3755 -0.2608  1.1153
  470TIP3   OH222824   3.128   6.227  13.889 -0.1700  0.2053 -0.4948
  470TIP3    H122825   3.177   6.198  13.966 -0.5901 -1.7029 -0.8752
  470TIP3    H222826   3.173   6.184  13.815 -0.3743  1.1943 -1.2067
  471TIP3   OH222827   6.338   4.238  11.120  0.4818 -0.3303 -0.2516
  471TIP3    H122828   6.417   4.185  11.112  0.6971 -0.0164 -0.1888
  471TIP3    H222829   6.305   4.246  11.030  1.0242  0.3106 -0.3967
  472TIP3   OH222830   0.646   3.821  11.772  0.1735 -0.5251 -0.4309
  472TIP3    H122831   0.612   3.739  11.737 -0.1240 -1.6293  2.2275
  472TIP3    H222832   0.576   3.884  11.756 -0.1850 -1.0950 -1.2257
  473TIP3   OH222833   1.112   6.276  12.253 -0.1277  0.4325  0.3111
  473TIP3    H122834   1.029   6.280  12.206  0.3430 -0.7210 -0.6800
  473TIP3    H222835   1.102   6.204  12.314  0.6873 -0.8529 -1.0034
  474TIP3   OH222836   6.097   1.625   4.891 -0.0746  0.4400 -0.6339
  474TIP3    H122837   6.186   1.589   4.893  0.5203  1.8521  0.4976
  474TIP3    H222838   6.061   1.595   4.808  0.7938 -1.6840 -0.3319
  475TIP3   OH222839   5.754   2.334  11.695 -0.2258  0.8952  0.4967
  475TIP3    H122840   5.733   2.424  11.719 -2.8455  0.7217 -0.8388
  475TIP3    H222841   5.835   2.341  11.645 -0.5134  2.5535  0.2025
  476TIP3   OH222842   6.664   5.549  11.804 -0.2161 -0.1018  0.6060
  476TIP3    H122843   6.641   5.552  11.711 -0.9675  1.1782  0.8132
  476TIP3    H222844   6.747   5.501  11.806 -0.2361 -0.2424 -0.7054
  477TIP3   OH222845   3.082   2.909   1.795 -0.2170  0.4043 -0.3707
  477TIP3    H122846   3.020   2.840   1.772 -1.8265  1.2740  1.1923
  477TIP3    H222847   3.155   2.896   1.733 -1.5547 -1.1363 -1.7368
  478TIP3   OH222848   3.786   1.810   0.818 -0.4002 -0.3462  0.1921
  478TIP3    H122849   3.839   1.828   0.740 -2.5565  0.9101 -1.0603
  478TIP3    H222850   3.712   1.758   0.785 -0.8777 -0.5955  1.5901
  479TIP3   OH222851   5.840   2.962  13.099  0.1638 -0.1222  0.4891
  479TIP3    H122852   5.788   2.994  13.025  0.0265  1.7454  1.3182
  479TIP3    H222853   5.784   2.975  13.176  0.9525 -0.3408  1.1187
  480TIP3   OH222854   2.706   6.747   5.412  0.1937 -0.3527  0.4742
  480TIP3    H122855   2.614   6.770   5.413  0.3998  0.5721 -0.1295
  480TIP3    H222856   2.711   6.671   5.354  0.0726  0.9728 -1.3691
  481TIP3   OH222857   5.124   3.863   3.078 -0.2554  0.2504  0.1144
  481TIP3    H122858   5.164   3.892   2.996 -0.4039  3.2064  0.9602
  481TIP3    H222859   5.037   3.832   3.053  0.7572 -1.8018 -1.1425
  482TIP3   OH222860   0.447   1.711  16.678 -0.1028  0.0756  0.1702
  482TIP3    H122861   0.442   1.803  16.652 -1.1451  0.0485  0.2390
  482TIP3    H222862   0.522   1.677  16.630 -1.5258  0.2044 -2.3041
  483TIP3   OH222863   0.541   3.011  11.848 -0.4315 -0.0551 -0.4289
  483TIP3    H122864   0.552   2.916  11.848 -0.4921 -0.0619 -0.4383
  483TIP3    H222865   0.576   3.038  11.763 -0.6054 -0.0901 -0.5106
  484TIP3   OH222866   5.644   3.676   3.158  0.0978  0.5701  0.6973
  484TIP3    H122867   5.581   3.742   3.128  0.0226  0.8167  1.3921
  484TIP3    H222868   5.677   3.710   3.241  1.6038  0.7509  0.0748
  485TIP3   OH222869   5.284   3.053   4.718  0.4424  0.3568 -0.4363
  485TIP3    H122870   5.378   3.060   4.708  0.1325  2.2024 -2.9342
  485TIP3    H222871   5.257   3.140   4.748 -0.5416  0.0623 -0.4348
  486TIP3   OH222872   0.478   0.148   1.716 -0.3677  0.1070 -0.2518
  486TIP3    H122873   0.498   0.111   1.802 -1.5174  0.0298 -0.0119
  486TIP3    H222874   0.389   0.120   1.697 -0.6858  1.4070 -0.7988
  487TIP3   OH222875   5.636   4.947   5.216  0.0281 -0.2405 -0.0410
  487TIP3    H122876   5.664   5.039   5.218  0.8471 -0.4888  0.1818
  487TIP3    H222877   5.709   4.901   5.174 -1.4244 -0.4461 -2.5797
  488TIP3   OH222878   2.986   4.239   5.153  0.0608  0.2657 -0.2410
  488TIP3    H122879   3.062   4.284   5.191  0.4997  0.3001 -1.1245
  488TIP3    H222880   2.999   4.146   5.176  1.2222  0.0293 -1.7032
  489TIP3   OH222881   5.315   5.793  17.069 -0.1145 -0.4667  0.1727
  489TIP3    H122882   5.295   5.729  17.001 -3.2076 -0.2381  0.7268
  489TIP3    H222883   5.302   5.746  17.151  1.7283 -0.2061  0.6664
  490TIP3   OH222884   2.567   5.942   3.179 -0.1733  0.1213  0.1126
  490TIP3    H122885   2.630   5.876   3.151  1.2915  0.3997  2.4639
  490TIP3    H222886   2.560   6.001   3.104 -0.1258 -1.6781 -1.3683
  491TIP3   OH222887   6.270   4.002   4.036  0.3881 -0.3866 -0.5362
  491TIP3    H122888   6.298   4.078   3.985  1.7700 -0.8918 -0.5779
  491TIP3    H222889   6.186   3.977   3.998  1.4143 -0.8105 -2.6629
  492TIP3   OH222890   1.197   0.076  15.447  0.4548  0.2076 -0.0246
  492TIP3    H122891   1.261   0.012  15.414 -1.4683 -1.5296 -0.5811
  492TIP3    H222892   1.182   0.135  15.373 -0.0170 -0.5758 -0.5712
  493TIP3   OH222893   4.223   4.966  14.204 -0.8801  0.1737  0.3663
  493TIP3    H122894   4.161   4.912  14.254 -1.7875  1.3326  0.5263
  493TIP3    H222895   4.303   4.913  14.201 -1.1774 -0.4433  2.0136
  494TIP3   OH222896   3.378   2.523  15.070  0.2508  0.4504 -0.8256
  494TIP3    H122897   3.364   2.592  15.005  1.3001  0.8931 -0.5967
  494TIP3    H222898   3.291   2.506  15.106  0.2240  3.1597  0.6425
  495TIP3   OH222899   2.816   3.146  13.447 -0.0098 -0.5046  0.7187
  495TIP3    H122900   2.808   3.058  13.412 -0.2417 -0.8529  1.6306
  495TIP3    H222901   2.784   3.203  13.376  1.0129 -1.0701 -0.2314
  496TIP3   OH222902   3.167   2.775   2.505  0.2425 -0.2022  0.0786
  496TIP3    H122903   3.212   2.705   2.458  0.6661 -0.0900  0.3010
  496TIP3    H222904   3.179   2.852   2.450 -0.1340 -0.2845 -0.1163
  497TIP3   OH222905   4.714   3.962  14.684 -0.3037 -0.6984 -0.4480
  497TIP3    H122906   4.799   3.994  14.715  0.3304 -0.4766 -2.2395
  497TIP3    H222907   4.658   3.963  14.761  0.4576  2.1009  0.1914
  498TIP3   OH222908   5.714   3.343  17.345  0.3831  0.1367  0.7339
  498TIP3    H122909   5.748   3.390  17.269 -0.1950  0.0288  0.4006
  498TIP3    H222910   5.671   3.266  17.308 -3.4056  2.0268  0.7261
  499TIP3   OH222911   1.061   3.183   6.047  0.4286  0.2373 -0.2169
  499TIP3    H122912   1.139   3.136   6.016  0.1540 -0.3508 -0.0299
  499TIP3    H222913   1.096   3.253   6.103  0.8138 -0.2119  0.1159
  500TIP3   OH222914   4.400   4.610   4.736  0.2716  0.4091  1.0953
  500TIP3    H122915   4.433   4.544   4.675 -0.2529  0.6936  0.4866
  500TIP3    H222916   4.393   4.564   4.820 -1.4993 -0.7516  0.3685
  501TIP3   OH222917   4.793   3.476  13.844 -0.1305 -0.3025 -0.6823
  501TIP3    H122918   4.759   3.434  13.765  1.9525 -2.4152 -0.5686
  501TIP3    H222919   4.875   3.516  13.817 -0.2944  0.5541  0.0389
  502TIP3   OH222920   5.163   4.286   4.481 -0.0059 -0.5860 -0.4692
  502TIP3    H122921   5.210   4.225   4.539 -1.3565 -0.5093  0.7643
  502TIP3    H222922   5.195   4.372   4.508  2.9356 -0.6704 -3.1308
  503TIP3   OH222923   6.501   2.668  14.019  0.4376  0.0416 -0.1146
  503TIP3    H122924   6.470   2.629  14.101 -1.9083  0.7477 -0.5975
  503TIP3    H222925   6.549   2.746  14.046 -1.3440  0.9538  0.6234
  504TIP3   OH222926   2.927   0.775   3.760  0.0506  0.5867 -0.0584
  504TIP3    H122927   2.859   0.735   3.705 -0.6346 -0.6328  1.5745
  504TIP3    H222928   2.952   0.855   3.713  0.6098 -1.0864 -2.9058
  505TIP3   OH222929   2.175   0.258  12.660 -0.1368 -0.9560 -0.7551
  505TIP3    H122930   2.256   0.266  12.712 -1.6262 -0.0525  1.5905
  505TIP3    H222931   2.131   0.182  12.696 -1.5988  0.1782 -0.0609
  506TIP3   OH222932   1.817   2.760   3.717  0.0657  0.2827  0.2280
  506TIP3    H122933   1.779   2.685   3.763 -0.3029 -0.5774 -1.4030
  506TIP3    H222934   1.856   2.813   3.786  1.8416 -2.2460  1.3272
  507TIP3   OH222935   3.099   2.645   5.221 -0.0988  0.2185  0.1191
  507TIP3    H122936   3.156   2.623   5.295 -0.7765  0.3781  0.7040
  507TIP3    H222937   3.107   2.570   5.162 -1.0248 -0.8370  1.2679
  508TIP3   OH222938   1.682   0.357  11.713 -0.0175 -0.7809 -0.3286
  508TIP3    H122939   1.591   0.332  11.732  0.1438  0.2715  2.0934
  508TIP3    H222940   1.724   0.274  11.691 -1.5933 -1.2567 -1.7967
  509TIP3   OH222941   2.798   1.061  16.383 -0.1125  0.4532 -0.7424
  509TIP3    H122942   2.739   1.108  16.441  0.7669  0.2635  0.3543
  509TIP3    H222943   2.742   1.007  16.328 -0.9236 -1.0597  1.4360
  510TIP3   OH222944   3.257   0.675   1.440 -0.0500 -0.0623 -0.3782
  510TIP3    H122945   3.209   0.653   1.519  1.4750 -1.2636  0.2550
  510TIP3    H222946   3.316   0.746   1.466 -1.5986  1.6149 -1.2250
  511TIP3   OH222947   0.352   2.523   3.652  0.4286 -0.1672 -0.0319
  511TIP3    H122948   0.275   2.581   3.656  1.0785  0.7714 -0.9182
  511TIP3    H222949   0.319   2.443   3.612 -0.0800  0.2546 -0.4743
  512TIP3   OH222950   6.451   5.146  12.143 -0.3321 -0.4860 -0.4990
  512TIP3    H122951   6.513   5.219  12.146 -1.3228  0.4021 -1.0493
  512TIP3    H222952   6.377   5.176  12.195 -0.3216 -1.5425  0.1603
  513TIP3   OH222953   4.187   3.939   2.640 -0.0480 -0.0269 -0.1146
  513TIP3    H122954   4.189   3.939   2.735 -0.8056  0.2259 -0.0954
  513TIP3    H222955   4.122   4.005   2.617 -0.0612 -0.2708 -0.8035
  514TIP3   OH222956   4.088   1.791  13.159 -0.0239  0.4197 -0.2304
  514TIP3    H122957   4.129   1.708  13.185 -0.0950  0.3288 -0.4079
  514TIP3    H222958   4.040   1.770  13.078  2.0354  1.1889 -1.7406
  515TIP3   OH222959   3.911   4.582  13.515  0.6622  0.5211  0.5091
  515TIP3    H122960   3.827   4.540  13.534  1.2677 -1.5404 -0.9489
  515TIP3    H222961   3.963   4.569  13.595  0.0064  0.6992  0.9699
  516TIP3   OH222962   3.269   3.990   3.513  0.3705  0.2276  0.6147
  516TIP3    H122963   3.334   3.926   3.544  1.1518 -0.8406 -2.8507
  516TIP3    H222964   3.313   4.074   3.523  1.4418 -0.2806  0.3420
  517TIP3   OH222965   3.539   5.524   1.228 -0.1590  0.0630 -0.9140
  517TIP3    H122966   3.495   5.440   1.214 -1.0636  0.5785 -1.2388
  517TIP3    H222967   3.469   5.589   1.227  0.1054  0.5797  2.3191
  518TIP3   OH222968   6.169   4.482  14.670  0.5725 -0.5208 -0.4203
  518TIP3    H122969   6.253   4.521  14.694 -0.5064  1.5434  0.2499
  518TIP3    H222970   6.188   4.426  14.595  2.5123 -0.0185 -0.3369
  519TIP3   OH222971   0.125   2.819   1.282  0.4687  0.6136 -0.4190
  519TIP3    H122972   0.149   2.797   1.372 -0.3942  0.3738 -0.2389
  519TIP3    H222973   0.145   2.912   1.273 -1.1797  1.1046  0.6244
  520TIP3   OH222974   5.341   5.241  12.949 -0.1596  0.3846 -0.4260
  520TIP3    H122975   5.388   5.219  13.030 -0.9154  2.4826  0.6527
  520TIP3    H222976   5.407   5.232  12.880  0.9745  0.2140  0.6341
  521TIP3   OH222977   0.341   0.319   3.755 -0.5499 -0.7209 -0.7555
  521TIP3    H122978   0.424   0.278   3.782 -1.0907 -0.2235  1.9290
  521TIP3    H222979   0.356   0.343   3.663  2.4929 -0.1884 -0.2498
  522TIP3   OH222980   4.623   1.961  11.686  0.2129 -0.3178 -0.2465
  522TIP3    H122981   4.617   2.049  11.723  0.5088 -0.5481  0.3546
  522TIP3    H222982   4.555   1.911  11.731  0.1344 -0.4369 -0.4914
  523TIP3   OH222983   6.431   6.539  11.690  0.5365 -0.5198  0.2053
  523TIP3    H122984   6.482   6.584  11.758  2.2679  0.8260 -1.8266
  523TIP3    H222985   6.451   6.446  11.703  2.1335 -0.1600  0.5959
  524TIP3   OH222986   1.046   6.540  17.028 -0.0907 -0.2620  0.5234
  524TIP3    H122987   1.107   6.470  17.052  1.2624  0.4828 -0.5871
  524TIP3    H222988   0.991   6.502  16.959 -0.4038 -0.7057  1.0125
  525TIP3   OH222989   6.182   5.597  15.418 -0.1330  0.2025  0.5090
  525TIP3    H122990   6.090   5.610  15.443 -0.0636  1.7307  0.0987
  525TIP3    H222991   6.180   5.592  15.322  0.0864 -1.1063  0.5540
  526TIP3   OH222992   1.278   5.309   5.035 -0.0087 -0.2825  0.3438
  526TIP3    H122993   1.270   5.394   4.992  0.7959 -0.5675 -0.3952
  526TIP3    H222994   1.246   5.246   4.971 -0.5705 -0.5550  0.8751
  527TIP3   OH222995   2.829   0.650  15.691  1.4869  0.5803 -0.1759
  527TIP3    H122996   2.794   0.730  15.652  0.9813  0.3390 -0.2310
  527TIP3    H222997   2.781   0.579  15.648  0.9756  0.2992  0.8091
  528TIP3   OH222998   2.838   0.981   5.980 -0.4913 -0.0263 -0.5028
  528TIP3    H122999   2.829   0.885   5.982 -0.2195 -0.0619 -0.9797
  528TIP3    H223000   2.863   1.001   5.890 -1.1220  0.5466 -0.5555
  529TIP3   OH223001   4.074   5.685   5.722 -0.3713 -0.2071  0.9545
  529TIP3    H123002   4.043   5.598   5.696  0.2777 -0.5162  1.2094
  529TIP3    H223003   3.994   5.737   5.728 -0.5325  0.2280 -2.7331
  530TIP3   OH223004   5.787   0.818   2.727  0.1128 -0.4174 -0.8988
  530TIP3    H123005   5.879   0.797   2.745  0.1439  0.4239  0.0380
  530TIP3    H223006   5.770   0.896   2.780 -0.4643  0.8995 -2.9227
  531TIP3   OH223007   6.677   6.501  15.229 -0.0411  0.0498 -0.6778
  531TIP3    H123008   6.724   6.423  15.257 -0.7636  0.0386  0.5485
  531TIP3    H223009   6.594   6.469  15.194 -0.6529  0.2975  0.5062
  532TIP3   OH223010   5.796   3.400   2.220  0.1785 -0.7555 -0.0621
  532TIP3    H123011   5.877   3.350   2.225 -0.5569 -2.4972 -3.2342
  532TIP3    H223012   5.822   3.490   2.240  2.5458 -1.5089  0.5735
  533TIP3   OH223013   3.809   5.191  15.319 -0.1366 -0.4859 -0.0903
  533TIP3    H123014   3.882   5.195  15.257 -0.9237 -0.0400 -1.0391
  533TIP3    H223015   3.821   5.267  15.375  1.8021 -2.0782  1.7897
  534TIP3   OH223016   4.640   1.510  16.448  0.0915 -0.3837  0.1662
  534TIP3    H123017   4.597   1.497  16.533 -0.0025 -0.9815  0.0334
  534TIP3    H223018   4.663   1.422  16.419 -1.7409 -0.3977 -1.4074
  535TIP3   OH223019   5.914   1.125  12.895 -0.5258 -0.2715  0.4535
  535TIP3    H123020   5.831   1.086  12.923 -1.9169  0.7473 -1.9262
  535TIP3    H223021   5.933   1.191  12.961 -1.0711 -1.1669  1.5544
  536TIP3   OH223022   3.618   0.176  13.899  0.3068 -0.2661  0.4946
  536TIP3    H123023   3.588   0.088  13.921 -0.1334 -0.0250  0.8789
  536TIP3    H223024   3.542   0.217  13.858 -0.6409  1.0502  3.3550
  537TIP3   OH223025   2.166   2.240   2.037 -0.1258 -0.2186  0.0315
  537TIP3    H123026   2.088   2.228   1.983 -0.0626  0.1920 -0.1527
  537TIP3    H223027   2.216   2.159   2.025 -0.6117 -0.5646  0.3002
  538TIP3   OH223028   5.107   5.703  11.319 -0.4133  0.2852 -0.0812
  538TIP3    H123029   5.146   5.761  11.253 -0.8782  0.2417 -0.3937
  538TIP3    H223030   5.052   5.643  11.269 -0.0020 -0.3741  0.2516
  539TIP3   OH223031   5.654   2.985   1.697  0.1765 -0.2431 -0.1658
  539TIP3    H123032   5.587   2.981   1.765 -0.6641 -1.3064 -1.0101
  539TIP3    H223033   5.737   2.981   1.743 -0.2169  2.7047  1.0562
  540TIP3   OH223034   0.049   3.212   0.459  0.6400 -0.1860  0.0713
  540TIP3    H123035  -0.024   3.259   0.419  0.7297  1.2332  1.4491
  540TIP3    H223036   0.008   3.156   0.525  0.7444  0.1066  0.3853
  541TIP3   OH223037   5.352   6.206   3.547 -0.1729 -0.7702  0.3005
  541TIP3    H123038   5.281   6.164   3.500 -0.5756  0.1115  0.1094
  541TIP3    H223039   5.309   6.268   3.605  0.4453 -0.0989  0.0564
  542TIP3   OH223040   3.187   2.819   0.499 -0.0730  0.2335 -0.2796
  542TIP3    H123041   3.177   2.823   0.594  0.5596  1.3723 -0.2395
  542TIP3    H223042   3.129   2.748   0.472  1.2213 -1.4422  1.1513
  543TIP3   OH223043   3.190   6.384  16.937  0.0913  0.0143 -0.5455
  543TIP3    H123044   3.168   6.420  17.023 -0.9443  2.6138 -1.7840
  543TIP3    H223045   3.282   6.360  16.944 -0.0118  0.0043  1.3195
  544TIP3   OH223046   2.956   3.114  16.947 -0.0521 -0.0298  0.1229
  544TIP3    H123047   3.002   3.192  16.916  0.0461 -0.4223 -0.7473
  544TIP3    H223048   3.024   3.057  16.982 -0.2993  1.0263  2.5294
  545TIP3   OH223049   4.754   4.215  17.204 -0.4802 -0.4297 -0.8573
  545TIP3    H123050   4.738   4.287  17.265 -0.7158 -1.6448  0.5739
  545TIP3    H223051   4.806   4.254  17.134  2.8893  0.3902  1.7996
  546TIP3   OH223052   4.763   0.291   1.571 -0.0156 -0.3966 -0.4263
  546TIP3    H123053   4.694   0.316   1.633  0.3542 -0.9519  0.2168
  546TIP3    H223054   4.844   0.306   1.619  0.3387  0.5398 -1.2833
  547TIP3   OH223055   3.408   2.952   0.431  0.5043 -0.9781  0.0499
  547TIP3    H123056   3.325   2.906   0.443  0.8562 -1.5019  0.5116
  547TIP3    H223057   3.395   3.036   0.474 -0.2667 -0.4783 -1.1151
  548TIP3   OH223058   3.582   5.573   2.035 -0.0583 -0.3988 -0.5252
  548TIP3    H123059   3.594   5.479   2.048  1.8086 -0.2404 -0.8272
  548TIP3    H223060   3.646   5.596   1.968 -0.4554  1.0986 -0.4220
  549TIP3   OH223061   4.428   0.938   0.222  0.0377 -0.5914  0.3495
  549TIP3    H123062   4.497   0.936   0.288  0.2185  1.6726  0.3155
  549TIP3    H223063   4.474   0.925   0.139  0.3488  0.2232  0.3856
  550TIP3   OH223064   5.794   4.910  15.540  0.7149  0.5499  0.7974
  550TIP3    H123065   5.763   4.864  15.463 -0.2933  1.1524  0.8313
  550TIP3    H223066   5.800   4.842  15.608  2.3575 -0.1378  0.0292
  551TIP3   OH223067   5.675   1.005  16.828 -0.0043  0.6013 -0.3507
  551TIP3    H123068   5.699   1.071  16.763 -0.7125  0.6132 -0.6097
  551TIP3    H223069   5.579   1.006  16.829 -0.0770 -1.1377 -1.1122
  552TIP3   OH223070   3.738   1.527  14.841  0.0219 -0.3361 -0.1915
  552TIP3    H123071   3.737   1.602  14.901  3.0566 -1.7887  1.9323
  552TIP3    H223072   3.805   1.469  14.877 -0.6954 -3.1092 -2.9510
  553TIP3   OH223073   4.802   4.821   0.417 -0.4325 -0.1454  0.5096
  553TIP3    H123074   4.799   4.879   0.341 -1.7009 -2.3929 -1.2864
  553TIP3    H223075   4.886   4.776   0.410  0.7870  1.6533  2.1896
  554TIP3   OH223076   5.194   1.004   4.641 -0.9255  0.1205 -0.1879
  554TIP3    H123077   5.178   1.033   4.551  0.0294 -0.8806 -0.7064
  554TIP3    H223078   5.283   1.033   4.660 -1.3766  0.9465  0.7021
  555TIP3   OH223079   3.642   4.733  11.788  0.2540  0.1228 -0.2253
  555TIP3    H123080   3.640   4.667  11.718  1.4241  1.5370 -1.6748
  555TIP3    H223081   3.710   4.795  11.760 -1.0648  2.1625  0.8857
  556TIP3   OH223082   5.371   3.140  14.597 -0.3253  0.4859 -0.1343
  556TIP3    H123083   5.280   3.151  14.623  0.3011  1.3934  1.8674
  556TIP3    H223084   5.416   3.216  14.634  1.2460  0.0552 -1.0765
  557TIP3   OH223085   6.718   5.733  11.499  0.7493 -0.0356 -0.4986
  557TIP3    H123086   6.650   5.696  11.442  1.1368 -1.1191 -0.2844
  557TIP3    H223087   6.766   5.793  11.442 -0.6469  1.1065 -0.5410
  558TIP3   OH223088   4.564   2.499   5.963  0.1177 -0.5137  0.4291
  558TIP3    H123089   4.560   2.448   6.044 -0.5580  0.6597  1.1471
  558TIP3    H223090   4.658   2.508   5.946  0.2833 -0.3532  1.3552
  559TIP3   OH223091   4.554   0.625  15.006  0.5661 -0.3964 -0.2800
  559TIP3    H123092   4.519   0.629  14.917 -0.1345  2.3213  0.0245
  559TIP3    H223093   4.485   0.585  15.058 -0.0028  0.1928 -0.5729
  560TIP3   OH223094   5.579   0.648  15.103  0.5956  0.3129  0.2969
  560TIP3    H123095   5.509   0.591  15.135 -1.9041  1.1984 -3.0335
  560TIP3    H223096   5.651   0.589  15.081 -0.8083 -1.2528 -0.3126
  561TIP3   OH223097   5.116   4.449   1.968 -0.1124  0.3097  0.1796
  561TIP3    H123098   5.191   4.506   1.952 -0.0871  0.5557  1.1146
  561TIP3    H223099   5.045   4.488   1.916  0.5660 -0.3231 -1.2643
  562TIP3   OH223100   4.889   2.618   4.364  0.2445  0.1422  0.1269
  562TIP3    H123101   4.847   2.598   4.447  1.3553  0.3477  0.7638
  562TIP3    H223102   4.981   2.634   4.387  0.2952  1.5757 -0.9357
  563TIP3   OH223103   4.707   4.188   3.911 -0.1256 -0.0801 -0.1538
  563TIP3    H123104   4.769   4.183   3.838  0.0701 -0.0047  0.0080
  563TIP3    H223105   4.625   4.155   3.874 -0.1104  0.2610 -0.4989
  564TIP3   OH223106   2.602   5.510   3.810 -0.2005  0.2560 -0.2606
  564TIP3    H123107   2.579   5.562   3.733  0.0522 -0.9803 -1.2149
  564TIP3    H223108   2.692   5.481   3.793  0.3035  0.9245  1.0756
  565TIP3   OH223109   0.657   4.936  16.429  0.2062  0.4379  0.0311
  565TIP3    H123110   0.673   4.977  16.344 -1.2097  0.1535 -0.4031
  565TIP3    H223111   0.744   4.910  16.460  0.5662 -2.1066 -2.6822
  566TIP3   OH223112   0.054   5.166  14.232  0.4193 -0.2546  0.3328
  566TIP3    H123113   0.094   5.244  14.270  0.4968 -0.1553  0.0466
  566TIP3    H223114  -0.037   5.169  14.261  0.8035 -0.9285  1.7063
  567TIP3   OH223115   0.876   0.772   1.801  0.1088 -0.4622  0.2413
  567TIP3    H123116   0.908   0.781   1.712  0.9867  1.1581  0.6828
  567TIP3    H223117   0.785   0.742   1.791  0.4847 -1.2110 -1.1423
  568TIP3   OH223118   6.285   0.168  13.553  0.8537 -0.0572 -0.7976
  568TIP3    H123119   6.329   0.253  13.556  1.7376 -0.4566 -1.8503
  568TIP3    H223120   6.229   0.173  13.475 -0.6205  0.2573  0.2424
  569TIP3   OH223121   2.671   2.591  13.005 -0.0134  0.3943 -0.0393
  569TIP3    H123122   2.657   2.628  12.918  1.2101  1.5793  0.2319
  569TIP3    H223123   2.610   2.518  13.010  0.2482 -0.0324 -2.0957
  570TIP3   OH223124   3.114   6.385   4.737 -0.1459  0.2220  0.3684
  570TIP3    H123125   3.186   6.329   4.767  0.7184  0.7889 -0.5644
  570TIP3    H223126   3.108   6.368   4.643 -1.8811 -0.5110  0.5757
  571TIP3   OH223127   0.742   1.897   4.042  0.1817 -0.0901  0.1723
  571TIP3    H123128   0.769   1.813   4.080 -0.6596 -0.0711  0.8482
  571TIP3    H223129   0.782   1.963   4.097 -0.3657 -0.0635  0.5545
  572TIP3   OH223130   2.648   0.094   3.121  0.2928  0.3594 -0.2309
  572TIP3    H123131   2.705   0.043   3.063  0.1799 -0.5186  0.3977
  572TIP3    H223132   2.575   0.122   3.066 -0.6108 -1.7651 -0.2182
  573TIP3   OH223133   2.223   4.714  17.266 -0.1802  0.4759 -0.0035
  573TIP3    H123134   2.270   4.785  17.221 -2.5401  0.7430 -2.2837
  573TIP3    H223135   2.227   4.640  17.206 -0.2323 -0.4120  1.0563
  574TIP3   OH223136   3.452   4.652   3.617 -0.0232 -0.6303  0.0485
  574TIP3    H123137   3.422   4.624   3.530  0.9282 -0.0577 -0.4804
  574TIP3    H223138   3.542   4.682   3.603  0.2255 -0.7440  1.2808
  575TIP3   OH223139   4.317   1.343  11.686  0.4009  0.3320 -0.3837
  575TIP3    H123140   4.222   1.353  11.683  0.4090  0.4171 -0.3444
  575TIP3    H223141   4.349   1.427  11.717  0.3890 -0.1551  1.0393
  576TIP3   OH223142   1.148   6.481  15.197  0.2463 -0.3588 -0.3296
  576TIP3    H123143   1.174   6.480  15.290  0.3510  0.1207 -0.3500
  576TIP3    H223144   1.067   6.533  15.196  0.4116 -0.1028 -0.5464
  577TIP3   OH223145   1.423   3.522   4.840 -0.0790  0.2285  0.1855
  577TIP3    H123146   1.362   3.593   4.821  3.0005  3.1533  0.4209
  577TIP3    H223147   1.387   3.446   4.793 -2.8691  2.1911 -1.1271
  578TIP3   OH223148   4.319   5.380   2.852  0.1365 -0.4361 -0.5908
  578TIP3    H123149   4.317   5.475   2.866 -0.5184 -0.2814 -1.6097
  578TIP3    H223150   4.300   5.343   2.938  3.1988  0.2435  0.5080
  579TIP3   OH223151   0.298   4.264   1.834  0.2759  0.2029  0.6475
  579TIP3    H123152   0.327   4.322   1.904  0.7075 -0.0980  0.7248
  579TIP3    H223153   0.342   4.297   1.755 -0.7751  0.9835  0.3695
  580TIP3   OH223154   0.368   3.914   2.412 -0.0330 -0.4152  0.0309
  580TIP3    H123155   0.457   3.925   2.447 -0.2056 -0.2038  0.4148
  580TIP3    H223156   0.366   3.968   2.334  0.0756 -0.1534  0.2085
  581TIP3   OH223157   5.139   1.640  15.598 -0.2999  0.0985 -0.3497
  581TIP3    H123158   5.052   1.609  15.624  0.4890 -1.1761  0.9717
  581TIP3    H223159   5.136   1.735  15.608 -1.3402  0.0000  0.3278
  582TIP3   OH223160   0.421   2.648  16.478  0.3067 -0.2539  0.1315
  582TIP3    H123161   0.516   2.642  16.486  0.6299 -0.1436 -2.5826
  582TIP3    H223162   0.387   2.575  16.531  1.9578 -1.0212  0.1862
  583TIP3   OH223163   6.171   2.824  14.062  0.2154  0.0578  0.1419
  583TIP3    H123164   6.087   2.868  14.077  0.4675  1.4960 -2.1866
  583TIP3    H223165   6.234   2.896  14.051  1.7929 -0.9864  1.8400
  584TIP3   OH223166   0.649   5.262   2.532  0.0804 -0.1476 -0.5133
  584TIP3    H123167   0.728   5.310   2.557  0.0075 -0.5071  0.4572
  584TIP3    H223168   0.681   5.183   2.488  0.4116 -1.6725  2.2764
  585TIP3   OH223169   5.967   3.869  14.773  0.0557  0.0993 -0.5533
  585TIP3    H123170   5.992   3.928  14.702  0.5230  0.6575  0.0629
  585TIP3    H223171   5.879   3.898  14.799 -0.1560 -0.1657 -0.9481
  586TIP3   OH223172   2.426   4.044   1.795  0.0684  0.3373  0.2820
  586TIP3    H123173   2.423   3.993   1.876  3.1838 -0.4756  0.0227
  586TIP3    H223174   2.385   3.988   1.729 -0.9706  0.2947  0.9515
  587TIP3   OH223175   1.625   4.732   1.340  0.0530  0.6228 -0.2996
  587TIP3    H123176   1.620   4.655   1.283  0.7124  0.3357  0.0269
  587TIP3    H223177   1.555   4.790   1.308 -2.5943 -1.3949  1.3592
  588TIP3   OH223178   6.740   4.756   3.857  0.0493  0.5815 -0.2924
  588TIP3    H123179   6.727   4.702   3.935 -0.5663  1.1673  0.0205
  588TIP3    H223180   6.725   4.845   3.887 -1.2885  0.7242 -1.3243
  589TIP3   OH223181   1.339   5.037   4.891 -0.1701 -0.0934  0.2824
  589TIP3    H123182   1.369   4.980   4.819  1.0320  1.1106 -0.2081
  589TIP3    H223183   1.378   4.998   4.970 -1.8555 -1.6764  0.3806
  590TIP3   OH223184   2.336   4.641   6.462 -0.2385  0.0513  0.0568
  590TIP3    H123185   2.371   4.552   6.468 -1.5295 -0.3793  2.9794
  590TIP3    H223186   2.376   4.688   6.536 -2.7980  0.6060  1.2093
  591TIP3   OH223187   4.091   2.288  16.962  0.3051  0.4527  0.7054
  591TIP3    H123188   4.080   2.249  17.049 -2.9141  1.2625  0.7964
  591TIP3    H223189   4.097   2.382  16.979 -2.9121  0.8884  0.0781
  592TIP3   OH223190   3.566   1.898  10.434 -0.1000 -0.1685  0.3605
  592TIP3    H123191   3.534   1.808  10.444 -0.3919 -0.2429 -1.0531
  592TIP3    H223192   3.602   1.901  10.346  2.4902  0.3518  1.3595
  593TIP3   OH223193   1.479   4.382  14.847 -0.1560 -0.3899 -0.0874
  593TIP3    H123194   1.530   4.312  14.807  1.2163  0.1508  0.6591
  593TIP3    H223195   1.450   4.346  14.931 -3.4936 -1.7226 -1.6167
  594TIP3   OH223196   2.536   2.218   1.724  0.3632  0.7352 -0.1571
  594TIP3    H123197   2.624   2.255   1.716 -0.0752  1.5322 -1.6268
  594TIP3    H223198   2.536   2.145   1.661  0.3703 -0.0986  0.7880
  595TIP3   OH223199   3.277   6.197   4.219 -0.1465 -0.3312  0.1049
  595TIP3    H123200   3.185   6.173   4.231 -0.3769 -0.7947 -2.1355
  595TIP3    H223201   3.274   6.282   4.175  0.5044 -0.2213  0.2702
  596TIP3   OH223202   1.343   0.589  15.588 -0.0233  0.5368 -0.3144
  596TIP3    H123203   1.331   0.533  15.512  1.5037  1.2268 -1.1060
  596TIP3    H223204   1.435   0.617  15.583 -0.0981  1.1859  1.3717
  597TIP3   OH223205   4.760   2.117  16.900 -0.2332  0.4945 -0.0324
  597TIP3    H123206   4.716   2.077  16.975  0.7910 -1.6690 -0.5166
  597TIP3    H223207   4.690   2.131  16.836 -0.7538  0.2293  0.4668
  598TIP3   OH223208   0.627   1.467  15.809  0.0045 -0.1629  0.3783
  598TIP3    H123209   0.705   1.516  15.781 -1.2079  0.5061 -2.1600
  598TIP3    H223210   0.577   1.529  15.861 -0.4979  0.6447 -1.0165
  599TIP3   OH223211   2.680   2.284   0.189 -0.1999 -0.2513 -0.0353
  599TIP3    H123212   2.725   2.346   0.131  1.2392 -0.5753  0.6775
  599TIP3    H223213   2.622   2.235   0.132  1.5318 -0.8977 -1.3152
  600TIP3   OH223214   0.303   5.957  12.223 -0.4276 -0.3966  0.1741
  600TIP3    H123215   0.332   6.013  12.151  0.8588 -0.3842  0.6829
  600TIP3    H223216   0.234   6.008  12.265 -3.2795 -1.5625 -2.6770
  601TIP3   OH223217   0.812   2.361  13.594  0.5610  0.5985 -0.5873
  601TIP3    H123218   0.723   2.330  13.580  0.9553 -2.4970  2.3362
  601TIP3    H223219   0.861   2.331  13.517 -0.3530 -0.3535 -0.8116
  602TIP3   OH223220   3.241   2.198  11.289 -0.2559  0.1089  0.0539
  602TIP3    H123221   3.332   2.215  11.264 -0.4066  1.4046  0.2723
  602TIP3    H223222   3.198   2.171  11.208  0.3254 -0.5300 -0.0466
  603TIP3   OH223223   4.203   5.505  16.579 -0.2172  0.7231 -0.1563
  603TIP3    H123224   4.196   5.505  16.484  1.0317 -0.6539 -0.2848
  603TIP3    H223225   4.116   5.479  16.610 -0.5288  0.8276 -0.9322
  604TIP3   OH223226   1.668   2.937  16.398 -0.3130  0.3329 -0.4016
  604TIP3    H123227   1.664   2.905  16.488 -0.2634 -1.2105 -0.9247
  604TIP3    H223228   1.714   2.869  16.350  0.4251  1.5270 -1.4506
  605TIP3   OH223229   1.221   4.586   6.920 -0.2491  0.3080 -0.0057
  605TIP3    H123230   1.194   4.577   7.011 -0.9613 -0.4262 -0.2766
  605TIP3    H223231   1.298   4.642   6.923 -1.5316  2.1074  0.8307
  606TIP3   OH223232   4.249   4.115  13.538  0.2051 -0.1513 -0.2868
  606TIP3    H123233   4.196   4.055  13.485  1.8324 -0.7369 -1.3491
  606TIP3    H223234   4.244   4.079  13.627 -1.4176  0.0140 -0.2878
  607TIP3   OH223235   6.197   1.511   3.579  0.4435 -0.1312  0.2120
  607TIP3    H123236   6.169   1.602   3.572  0.1548 -0.3425 -2.0963
  607TIP3    H223237   6.130   1.469   3.634  1.4037  1.2872  2.6455
  608TIP3   OH223238   4.057   6.233  11.917  0.2678 -0.0486 -0.6523
  608TIP3    H123239   3.992   6.265  11.854 -0.2425 -0.6539 -0.4504
  608TIP3    H223240   4.009   6.228  12.000 -0.0696 -2.4567 -0.9093
  609TIP3   OH223241   5.575   6.388   4.538  0.5121  0.1231  0.0589
  609TIP3    H123242   5.480   6.396   4.549 -0.0632 -2.9987 -1.4106
  609TIP3    H223243   5.612   6.412   4.623 -1.6610  0.5617  0.9398
  610TIP3   OH223244   0.371   6.311  16.193 -0.1638  0.2148  0.0065
  610TIP3    H123245   0.329   6.277  16.272  0.4066 -0.1607  0.1612
  610TIP3    H223246   0.455   6.345  16.224 -0.2331  0.7020 -0.3352
  611TIP3   OH223247   1.730   4.634   4.574  0.0244  0.0998 -0.3195
  611TIP3    H123248   1.760   4.546   4.550  1.2524  0.8505 -1.6569
  611TIP3    H223249   1.638   4.621   4.597  0.3392 -1.6370  0.1441
  612TIP3   OH223250   3.947   0.544   3.292 -0.2802  0.4721 -0.0605
  612TIP3    H123251   3.972   0.547   3.384 -0.5167  1.0847 -0.0167
  612TIP3    H223252   3.876   0.480   3.288  0.0817  0.0560  0.0969
  613TIP3   OH223253   0.916   6.395  11.129 -0.8007 -0.3146  0.6944
  613TIP3    H123254   0.827   6.363  11.142 -0.9515 -0.5660 -0.8079
  613TIP3    H223255   0.944   6.355  11.047  0.3166  0.5749  0.6250
  614TIP3   OH223256   4.905   4.585   3.817 -0.1621  0.3947  0.3189
  614TIP3    H123257   4.883   4.596   3.910 -0.3871 -0.3395  0.3529
  614TIP3    H223258   4.968   4.513   3.816  0.6887  1.1176  0.0060
  615TIP3   OH223259   0.508   1.918   3.898  0.3491 -0.1142  0.8899
  615TIP3    H123260   0.495   1.832   3.939  0.1580 -0.4971  0.0392
  615TIP3    H223261   0.592   1.948   3.933  1.1703 -1.3338  0.0429
  616TIP3   OH223262   6.155   0.146   0.853 -0.3614  0.4941 -0.0582
  616TIP3    H123263   6.100   0.153   0.775  2.3605  2.4043 -1.9700
  616TIP3    H223264   6.200   0.062   0.842 -2.3628 -0.8312  1.2562
  617TIP3   OH223265   3.260   3.870   2.711  0.4624  0.5505  0.0687
  617TIP3    H123266   3.290   3.815   2.638  0.6525 -0.1791  0.6797
  617TIP3    H223267   3.251   3.958   2.674 -1.1153 -0.1218 -1.2727
  618TIP3   OH223268   4.267   0.950   0.570 -0.1321  0.1156 -0.3861
  618TIP3    H123269   4.294   0.980   0.657 -0.1208 -0.6772 -0.1115
  618TIP3    H223270   4.331   0.882   0.547 -1.7460 -1.6685  0.1992
  619TIP3   OH223271   2.041   5.914   2.450 -0.2215  0.1827 -0.2861
  619TIP3    H123272   2.117   5.939   2.502  0.2899 -1.4031 -0.2236
  619TIP3    H223273   1.967   5.956   2.494  0.3280 -0.2198  1.0682
  620TIP3   OH223274   2.113   2.166  13.075 -0.0872 -0.1892  0.4055
  620TIP3    H123275   2.050   2.105  13.114 -0.7272  1.0106  1.2891
  620TIP3    H223276   2.195   2.117  13.073 -0.1920 -0.5452  2.6193
  621TIP3   OH223277   4.964   0.083   4.345  0.2277  0.3038  0.2286
  621TIP3    H123278   5.024   0.032   4.291  0.4887 -0.1189  0.9046
  621TIP3    H223279   4.991   0.174   4.331  0.9639  0.1293  0.4435
  622TIP3   OH223280   2.538   0.452  16.849  0.3285 -0.7739 -0.4562
  622TIP3    H123281   2.631   0.454  16.824  0.1732 -0.3052 -1.0022
  622TIP3    H223282   2.514   0.360  16.841  0.7682 -0.9150 -0.2264
  623TIP3   OH223283   3.180   4.604   1.022  0.3631  0.2874  0.5266
  623TIP3    H123284   3.126   4.580   1.098 -0.8496  5.7326  1.8248
  623TIP3    H223285   3.268   4.612   1.058  0.5723 -0.9443  0.3282
  624TIP3   OH223286   6.643   1.051   3.590 -0.1280 -0.1518 -0.7030
  624TIP3    H123287   6.590   0.973   3.577  1.0197 -0.9015 -1.0676
  624TIP3    H223288   6.692   1.034   3.671 -0.3681  0.4844 -0.4197
  625TIP3   OH223289   6.511   2.228   2.589  0.2223 -0.0982  0.5201
  625TIP3    H123290   6.465   2.306   2.557 -0.7819 -0.8192  0.1835
  625TIP3    H223291   6.598   2.261   2.613  0.7923  0.6404 -2.1997
  626TIP3   OH223292   3.837   1.164   5.165 -0.4046  0.5988 -0.2929
  626TIP3    H123293   3.768   1.141   5.104 -0.1855 -0.3708 -0.1795
  626TIP3    H223294   3.817   1.255   5.190 -0.3280  1.1248 -2.0075
  627TIP3   OH223295   0.661   5.424  15.397 -0.2894  0.0171  0.1238
  627TIP3    H123296   0.746   5.382  15.411  0.4901  1.1609 -0.9688
  627TIP3    H223297   0.682   5.505  15.352 -2.0054  0.1674 -0.4568
  628TIP3   OH223298   2.618   1.794  13.678 -0.3346 -0.0672  0.3905
  628TIP3    H123299   2.706   1.816  13.707  0.0683  0.1162 -0.9329
  628TIP3    H223300   2.629   1.713  13.628 -0.7397  0.5682 -0.7418
  629TIP3   OH223301   4.480   4.484  15.349  0.1751 -0.3297  0.0370
  629TIP3    H123302   4.470   4.425  15.423  1.4259 -1.0835 -0.3575
  629TIP3    H223303   4.498   4.570  15.388 -0.0175 -0.5419  0.5982
  630TIP3   OH223304   4.373   6.522  16.301  0.0700  0.5385 -0.4473
  630TIP3    H123305   4.461   6.514  16.265 -0.4930 -1.4688 -1.4811
  630TIP3    H223306   4.364   6.447  16.360 -0.6078  1.3100  0.4641
  631TIP3   OH223307   5.995   5.121   4.516 -0.1704  0.0122 -0.0426
  631TIP3    H123308   5.925   5.171   4.473  0.2912 -0.0087 -0.8335
  631TIP3    H223309   6.067   5.121   4.453  1.1511  1.3847  1.3717
  632TIP3   OH223310   5.960   0.557   1.654 -0.4262 -0.5134  0.2931
  632TIP3    H123311   6.023   0.600   1.712 -0.5222 -0.0549  0.0564
  632TIP3    H223312   5.907   0.628   1.618 -0.2290 -0.7676 -0.5271
  633TIP3   OH223313   0.427   2.158  13.069  0.3604 -0.1237 -0.0488
  633TIP3    H123314   0.420   2.183  13.161 -1.4184 -0.5020 -0.0435
  633TIP3    H223315   0.387   2.231  13.022  3.3946  1.2361 -0.7875
  634TIP3   OH223316   5.123   4.730   3.430 -0.2743 -0.7219 -0.1340
  634TIP3    H123317   5.042   4.768   3.464 -0.2312 -1.6726  1.0995
  634TIP3    H223318   5.144   4.784   3.354 -1.2905  0.4333  0.3615
  635TIP3   OH223319   4.230   6.645   2.188 -0.1145  0.4582  0.1150
  635TIP3    H123320   4.165   6.630   2.256  1.0605 -2.4584  0.7283
  635TIP3    H223321   4.179   6.674   2.112 -2.0915 -1.2660  0.7021
  636TIP3   OH223322   1.913   6.459   4.222  0.3327 -0.0511  0.2874
  636TIP3    H123323   1.862   6.484   4.145 -1.3730  0.3127  1.4601
  636TIP3    H223324   1.880   6.372   4.245  1.1411 -0.3447  0.3602
  637TIP3   OH223325   5.067   6.043  13.203  0.0723  0.4875 -0.2868
  637TIP3    H123326   5.015   5.977  13.158  0.6639 -0.1753 -0.0174
  637TIP3    H223327   5.139   6.062  13.143  0.8635 -0.3992  0.3414
  638TIP3   OH223328   3.853   2.747   1.171  0.1580  0.3037  0.6181
  638TIP3    H123329   3.829   2.745   1.264  0.6129  1.3350  0.7711
  638TIP3    H223330   3.931   2.692   1.165  0.6005  0.8854  0.9941
  639TIP3   OH223331   4.199   0.634   2.382  0.7185  0.0423 -0.7671
  639TIP3    H123332   4.220   0.592   2.465 -0.8926  1.0532  0.2106
  639TIP3    H223333   4.283   0.640   2.337  1.5842 -0.8351  0.6359
  640TIP3   OH223334   4.212   6.617  14.934 -0.3003  0.2513 -0.5730
  640TIP3    H123335   4.243   6.680  14.870 -1.3448  0.7629 -0.6064
  640TIP3    H223336   4.291   6.587  14.979  0.3844  0.3143 -1.6933
  641TIP3   OH223337   1.295   5.638  13.843 -0.1033 -0.8460  0.9110
  641TIP3    H123338   1.237   5.653  13.918 -2.7186  1.3481 -1.3083
  641TIP3    H223339   1.343   5.720  13.833  0.0189 -1.0090  0.0746
  642TIP3   OH223340   4.003   1.270  12.174 -0.0306 -0.2624  0.9159
  642TIP3    H123341   4.008   1.357  12.212 -2.1274  1.0619 -1.5186
  642TIP3    H223342   4.044   1.279  12.088 -0.2107 -1.6979  0.6466
  643TIP3   OH223343   5.251   2.733  16.135 -0.1709 -0.0654 -0.1908
  643TIP3    H123344   5.220   2.645  16.114 -0.6360 -0.2700  1.2173
  643TIP3    H223345   5.292   2.764  16.055 -0.2979 -1.4366 -0.8153
  644TIP3   OH223346   4.792   5.311  11.990 -0.2698  0.6758  0.1851
  644TIP3    H123347   4.725   5.280  11.929 -0.2960  0.1106  0.4830
  644TIP3    H223348   4.841   5.378  11.942  2.0133 -2.1484 -1.8079
  645TIP3   OH223349   4.872   0.032   2.273 -0.3321 -0.2891 -0.1694
  645TIP3    H123350   4.967   0.020   2.277 -0.4646 -1.2280  0.6539
  645TIP3    H223351   4.859   0.127   2.270  0.6203 -0.1334  0.3102
  646TIP3   OH223352   4.613   4.405   3.804  1.2209 -0.5252  0.0707
  646TIP3    H123353   4.643   4.318   3.829  1.2755 -0.7661 -0.8068
  646TIP3    H223354   4.652   4.420   3.718 -0.8531 -0.6988 -0.9476
  647TIP3   OH223355   1.542   5.286  15.000 -0.1505  0.5056 -0.3799
  647TIP3    H123356   1.548   5.378  15.027 -1.2473  0.0993  1.3920
  647TIP3    H223357   1.476   5.248  15.058  0.4018 -1.4564 -0.9608
  648TIP3   OH223358   2.110   5.453  12.564 -0.3305 -0.7479 -0.0037
  648TIP3    H123359   2.084   5.368  12.601  0.3016 -0.3349  1.4632
  648TIP3    H223360   2.197   5.469  12.599  0.1817 -0.1579 -1.4735
  649TIP3   OH223361   2.850   0.817   6.202 -0.0867  0.3177  0.0692
  649TIP3    H123362   2.919   0.872   6.165 -0.3766  0.0242 -0.9394
  649TIP3    H223363   2.815   0.868   6.276 -0.2624  1.4414 -0.7667
  650TIP3   OH223364   0.483   4.139  16.460 -0.3473 -0.5667  0.2354
  650TIP3    H123365   0.435   4.189  16.394  1.3310  0.0786 -0.5478
  650TIP3    H223366   0.568   4.183  16.467 -0.2616 -0.9649  2.4237
  651TIP3   OH223367   1.096   3.733  14.713 -0.4176  0.6012  0.2960
  651TIP3    H123368   1.155   3.690  14.775  2.0277  2.4165 -0.6143
  651TIP3    H223369   1.063   3.662  14.658 -0.5468 -0.6954  1.9758
  652TIP3   OH223370   0.516   0.881   4.773  0.1380  0.4478  0.0159
  652TIP3    H123371   0.526   0.971   4.743  1.5355 -0.0412 -1.1310
  652TIP3    H223372   0.542   0.883   4.865  0.9572  1.0846 -0.2198
  653TIP3   OH223373   3.115   3.671  14.571 -0.5701 -0.4589  0.1128
  653TIP3    H123374   3.089   3.634  14.656  0.1251  0.5814  0.8017
  653TIP3    H223375   3.125   3.595  14.514  0.1900 -1.3030  1.3129
  654TIP3   OH223376   3.047   5.573  16.527  0.5219 -0.2353  0.1810
  654TIP3    H123377   3.090   5.599  16.446  0.1611  0.6471  0.2620
  654TIP3    H223378   3.089   5.628  16.594 -0.5025  0.4143  0.3053
  655TIP3   OH223379   3.764   5.695   1.152  0.3539 -0.0218 -0.1221
  655TIP3    H123380   3.754   5.706   1.057 -1.0699 -0.4959 -0.0532
  655TIP3    H223381   3.696   5.632   1.176  1.1148 -0.4022  1.1303
  656TIP3   OH223382   1.796   2.732   5.881 -0.0209 -0.0974  0.0107
  656TIP3    H123383   1.812   2.720   5.787 -0.8460  0.1350 -0.1682
  656TIP3    H223384   1.878   2.769   5.915 -0.4605  2.0247 -1.0480
  657TIP3   OH223385   2.488   6.175  15.015  0.0276 -0.1336  0.3153
  657TIP3    H123386   2.490   6.093  14.965  0.7463  0.0543  0.0292
  657TIP3    H223387   2.564   6.224  14.984 -0.4626  0.6969  0.4024
  658TIP3   OH223388   1.197   4.025  17.263  0.2949  0.1229  0.4153
  658TIP3    H123389   1.165   3.955  17.319  2.9475 -1.1776  0.4484
  658TIP3    H223390   1.158   4.008  17.178  0.9915 -1.5522  0.3855
  659TIP3   OH223391   0.143   2.265   2.114  0.3423 -0.0630 -0.1486
  659TIP3    H123392   0.207   2.220   2.170 -0.0331 -0.6223 -0.1607
  659TIP3    H223393   0.063   2.269   2.167  0.2118  0.1015 -0.3543
  660TIP3   OH223394   2.051   0.684  16.894  0.2170 -0.4202 -0.1522
  660TIP3    H123395   1.974   0.638  16.861  0.8286 -0.8323 -1.0696
  660TIP3    H223396   2.096   0.619  16.947 -1.2298  0.5057  2.3719
  661TIP3   OH223397   1.078   2.970  15.912  0.1067  0.4259  0.0932
  661TIP3    H123398   1.084   2.879  15.883  0.8173  0.5995 -0.3446
  661TIP3    H223399   0.993   3.000  15.880 -0.8397 -0.5337  1.6235
  662TIP3   OH223400   4.893   4.784  16.020  0.3717 -0.6054  0.5179
  662TIP3    H123401   4.931   4.707  16.062 -1.4011 -0.0253  3.4886
  662TIP3    H223402   4.867   4.840  16.093 -2.1540  0.9594 -1.4384
  663TIP3   OH223403   1.670   1.378   4.118 -0.1844 -0.7506  0.4986
  663TIP3    H123404   1.616   1.448   4.157 -1.8557 -0.0267 -2.7276
  663TIP3    H223405   1.691   1.320   4.192 -1.7930  1.2239  2.6841
  664TIP3   OH223406   5.770   0.696   5.455 -0.1919 -0.3568 -0.7343
  664TIP3    H123407   5.837   0.730   5.515 -0.7724  0.7343 -0.6794
  664TIP3    H223408   5.793   0.604   5.443  0.1613 -0.5023  0.8631
  665TIP3   OH223409   0.006   5.959   4.667  0.0152 -0.3846  0.1703
  665TIP3    H123410  -0.038   5.952   4.752  0.1025 -2.7364  0.0744
  665TIP3    H223411  -0.037   5.894   4.612  1.0343 -0.0141 -1.1081
  666TIP3   OH223412   0.136   5.456   2.924 -0.0295 -0.8143 -0.1779
  666TIP3    H123413   0.092   5.457   3.009  0.0657 -0.8853 -0.1278
  666TIP3    H223414   0.196   5.530   2.927 -2.6927  1.5871 -1.6018
  667TIP3   OH223415   0.671   2.338   2.869  0.1106 -0.5311  0.4337
  667TIP3    H123416   0.612   2.297   2.933  0.0423 -2.1077 -0.5897
  667TIP3    H223417   0.709   2.265   2.821 -0.3447  0.6057 -1.8043
  668TIP3   OH223418   4.439   5.308   5.130 -0.4181 -0.2829  0.2476
  668TIP3    H123419   4.474   5.291   5.218 -0.3728  2.5391  0.8789
  668TIP3    H223420   4.346   5.325   5.145 -0.6136 -0.7803 -0.3978
  669TIP3   OH223421   0.823   6.757   5.203  0.0644  0.2775 -0.1307
  669TIP3    H123422   0.794   6.690   5.264 -0.2498  0.5623  0.0304
  669TIP3    H223423   0.845   6.832   5.258  1.9656 -0.2128 -0.1454
  670TIP3   OH223424   2.182   1.725  12.541 -0.2575 -0.4326 -0.0368
  670TIP3    H123425   2.228   1.714  12.624  1.2216  2.2448 -0.4259
  670TIP3    H223426   2.200   1.644  12.493  0.4843 -1.2021  1.4645
  671TIP3   OH223427   1.198   0.510  13.144  0.0917  0.0385  0.2868
  671TIP3    H123428   1.250   0.477  13.217 -0.1891 -0.6336  0.1882
  671TIP3    H223429   1.252   0.493  13.067 -0.5701 -1.3351  0.1054
  672TIP3   OH223430   6.509   0.539   4.827  0.7329  0.2910  0.4089
  672TIP3    H123431   6.461   0.600   4.770 -1.2249 -1.4993  0.0076
  672TIP3    H223432   6.576   0.593   4.869  1.7425  1.9037 -2.8889
  673TIP3   OH223433   3.854   0.843  14.934 -0.6650  0.0839 -0.3006
  673TIP3    H123434   3.941   0.863  14.901  0.2260  0.8090  2.2646
  673TIP3    H223435   3.862   0.755  14.972 -1.2645 -0.1277 -0.6415
  674TIP3   OH223436   2.556   4.305  13.774  0.5103  0.4349 -0.1059
  674TIP3    H123437   2.597   4.320  13.859 -1.0708 -0.9987  0.9676
  674TIP3    H223438   2.583   4.216  13.750 -2.6291 -0.9813  1.1382
  675TIP3   OH223439   3.450   0.755  16.658 -0.2120 -0.6862 -0.4823
  675TIP3    H123440   3.441   0.718  16.571  3.4786  1.8339 -2.1835
  675TIP3    H223441   3.422   0.846  16.649  0.3376 -0.3475  0.8972
  676TIP3   OH223442   1.888   1.486   3.077 -0.2700 -0.2599  0.4336
  676TIP3    H123443   1.860   1.500   3.167 -1.4500  0.6012 -0.0501
  676TIP3    H223444   1.852   1.560   3.028  1.8263  0.2362 -0.4578
  677TIP3   OH223445   5.798   3.163   5.901  0.3498 -0.0116 -0.9132
  677TIP3    H123446   5.717   3.159   5.952  1.4255 -1.5655  0.7965
  677TIP3    H223447   5.827   3.255   5.909  0.1355 -0.0676  0.7531
  678TIP3   OH223448   6.106   6.557   3.272  0.1706 -0.8215 -0.5033
  678TIP3    H123449   6.168   6.552   3.344  0.9855 -0.7345 -1.1781
  678TIP3    H223450   6.124   6.479   3.219  0.1504 -0.4627 -1.0488
  679TIP3   OH223451   5.749   2.800   4.110  0.1840 -0.3722 -0.3409
  679TIP3    H123452   5.813   2.863   4.076  0.7492  0.1790  1.6107
  679TIP3    H223453   5.797   2.750   4.176 -1.2572 -0.2979  0.8182
  680TIP3   OH223454   5.113   5.034   5.292  0.5273 -0.1312 -0.0479
  680TIP3    H123455   5.055   5.033   5.368 -0.6099  0.4042 -0.8865
  680TIP3    H223456   5.201   5.038   5.329 -0.0495  1.7144  1.2644
  681TIP3   OH223457   6.760   1.684   5.696  0.0429 -0.1898 -0.1270
  681TIP3    H123458   6.848   1.722   5.691 -0.2752  0.5517 -0.2610
  681TIP3    H223459   6.721   1.704   5.611 -0.4896  0.0901  0.1788
  682TIP3   OH223460   4.954   2.252  11.509  0.3246  0.0373  0.1680
  682TIP3    H123461   4.914   2.197  11.442  0.2898  2.1936 -1.6799
  682TIP3    H223462   4.886   2.313  11.535  1.2375  1.2297 -0.1490
  683TIP3   OH223463   3.245   2.915  14.276  0.3738  0.0364  0.6187
  683TIP3    H123464   3.301   2.985  14.244 -0.5016  0.3695 -0.2213
  683TIP3    H223465   3.236   2.931  14.370  1.0067  0.4460  0.6116
  684TIP3   OH223466   2.555   1.480  13.281  0.1522 -0.3424 -0.2962
  684TIP3    H123467   2.639   1.441  13.307 -0.6771 -1.5400  0.7241
  684TIP3    H223468   2.560   1.489  13.186  1.7546  0.4042 -0.1700
  685TIP3   OH223469   2.691   3.773  14.209 -0.5577  0.9804 -0.5641
  685TIP3    H123470   2.648   3.687  14.207  0.7473  0.3014 -0.3246
  685TIP3    H223471   2.776   3.758  14.169 -0.0437  2.0139  0.1099
  686TIP3   OH223472   4.555   5.762  16.756 -1.2412 -0.4173 -0.4382
  686TIP3    H123473   4.552   5.847  16.800  1.0279 -1.3123  1.6600
  686TIP3    H223474   4.552   5.783  16.663  0.1986  2.0332 -0.0100
  687TIP3   OH223475   3.014   4.938  11.568 -0.7671 -0.2586  0.0072
  687TIP3    H123476   2.964   4.901  11.496 -0.3239  0.1647 -0.5305
  687TIP3    H223477   3.080   4.871  11.589 -0.1768  0.0727 -0.7416
  688TIP3   OH223478   1.438   4.059   6.564 -0.2466 -0.4329  0.1617
  688TIP3    H123479   1.449   4.001   6.489 -0.7357 -0.6534  0.2578
  688TIP3    H223480   1.521   4.053   6.611  0.3649  0.3237 -0.7797
  689TIP3   OH223481   5.608   5.136  12.503  0.2823  0.2953  0.3908
  689TIP3    H123482   5.651   5.193  12.567  0.2771 -1.1103  1.7012
  689TIP3    H223483   5.627   5.176  12.419  2.4128  0.8515  1.0683
  690TIP3   OH223484   3.899   5.675  17.324  0.2639 -0.6171 -0.0163
  690TIP3    H123485   3.931   5.643  17.240 -0.7833 -0.8572 -0.3326
  690TIP3    H223486   3.815   5.632  17.336 -0.7682  1.2746 -0.0135
  691TIP3   OH223487   0.127   1.913   1.202  0.3221  0.3822  0.0557
  691TIP3    H123488   0.165   1.984   1.150 -1.0742  1.5962  0.5996
  691TIP3    H223489   0.092   1.957   1.280 -1.3496 -0.7703  0.0111
  692TIP3   OH223490   5.628   4.628  16.526 -0.4235 -0.5772 -0.0619
  692TIP3    H123491   5.655   4.566  16.458 -0.1348 -1.1817  0.5807
  692TIP3    H223492   5.605   4.572  16.600  2.3863  0.0901  1.4675
  693TIP3   OH223493   3.965   0.169  14.938  0.1379  0.1785 -0.3080
  693TIP3    H123494   4.006   0.125  14.864 -0.1880 -0.5877 -0.0434
  693TIP3    H223495   3.930   0.250  14.901  1.9694  0.9371 -0.5232
  694TIP3   OH223496   1.219   5.831   3.642  0.4642 -0.2104 -0.3409
  694TIP3    H123497   1.258   5.905   3.688  1.1970 -0.7052 -0.1414
  694TIP3    H223498   1.191   5.772   3.711  2.8498 -1.6140 -0.4734
  695TIP3   OH223499   0.468   1.905   1.214  0.0583 -0.5609 -0.2366
  695TIP3    H123500   0.446   1.946   1.297 -1.3521  0.0289 -0.8709
  695TIP3    H223501   0.403   1.835   1.204 -0.3675 -0.0416 -1.2513
  696TIP3   OH223502   5.666   1.817   1.481 -0.8383 -0.7496  0.3779
  696TIP3    H123503   5.759   1.826   1.463 -0.7938  1.3398  1.2837
  696TIP3    H223504   5.638   1.740   1.431  1.2225 -1.0422 -0.4025
  697TIP3   OH223505   5.161   1.131   0.171  0.0070  0.1323 -0.0039
  697TIP3    H123506   5.203   1.206   0.128  0.1708  0.0405 -0.0048
  697TIP3    H223507   5.069   1.158   0.182 -0.2800 -0.2197 -1.3284
  698TIP3   OH223508   5.448   1.019   2.550 -0.6099  0.0929  0.0262
  698TIP3    H123509   5.444   1.055   2.639  0.5424 -1.4005  0.7134
  698TIP3    H223510   5.533   1.048   2.517 -0.1321 -1.0878  0.1962
  699TIP3   OH223511   6.708   0.995  12.090 -0.5126 -0.2190 -0.8713
  699TIP3    H123512   6.641   1.039  12.038 -0.1467 -0.3605 -1.4714
  699TIP3    H223513   6.759   0.945  12.026  0.1250 -0.1669 -0.4139
  700TIP3   OH223514   2.020   2.312   2.819  1.0900 -0.0324  0.3152
  700TIP3    H123515   2.008   2.405   2.840  4.3484  0.7032 -0.5011
  700TIP3    H223516   2.006   2.306   2.725  0.9041 -0.3996  0.3623
  701TIP3   OH223517   2.344   0.534  16.338 -0.5885 -0.1210  0.1687
  701TIP3    H123518   2.305   0.449  16.316 -3.0165 -0.1873  3.7600
  701TIP3    H223519   2.303   0.596  16.277 -0.7197 -1.1824 -0.8527
  702TIP3   OH223520   5.255   0.989  14.745  0.2388 -0.6752 -0.6717
  702TIP3    H123521   5.345   0.960  14.760  0.6775 -0.4558 -2.6861
  702TIP3    H223522   5.262   1.083  14.728 -0.2644 -0.8050 -1.6402
  703TIP3   OH223523   3.363   2.567   0.827  0.2027  0.2426 -0.3085
  703TIP3    H123524   3.370   2.628   0.900  1.0281  1.1048 -1.0781
  703TIP3    H223525   3.447   2.575   0.781  0.5979 -1.9603 -0.0652
  704TIP3   OH223526   3.603   3.102  13.715  0.0922 -0.3221  0.2845
  704TIP3    H123527   3.580   3.049  13.638 -0.2141 -1.7601  1.3296
  704TIP3    H223528   3.525   3.154  13.733 -0.0955 -0.5311  0.0687
  705TIP3   OH223529   2.862   1.845   2.784  0.3945  0.3744  0.2979
  705TIP3    H123530   2.776   1.870   2.751 -0.4712 -1.8713  0.6758
  705TIP3    H223531   2.904   1.799   2.711 -0.1189 -1.4938  1.1210
  706TIP3   OH223532   3.524   6.157   2.182  0.6589  0.6808 -0.0527
  706TIP3    H123533   3.583   6.201   2.122  2.1002  0.5777  1.2386
  706TIP3    H223534   3.533   6.064   2.162 -0.3060  0.7532 -0.9207
  707TIP3   OH223535   1.649   3.272   4.917  0.3603  0.1621 -0.0333
  707TIP3    H123536   1.658   3.356   4.961  2.5322  0.7705 -1.4940
  707TIP3    H223537   1.675   3.207   4.983  0.4237  0.7774  0.5540
  708TIP3   OH223538   1.464   0.877  11.385 -0.2993 -0.2765 -0.4239
  708TIP3    H123539   1.434   0.849  11.299 -2.2316 -1.1777  0.4747
  708TIP3    H223540   1.445   0.971  11.388  0.4548 -0.0863 -1.2154
  709TIP3   OH223541   0.222   3.396   2.915  0.1249  0.8265 -0.0799
  709TIP3    H123542   0.153   3.344   2.874  0.0482 -0.5111  1.6243
  709TIP3    H223543   0.225   3.477   2.864 -2.6736  0.9158 -0.2237
  710TIP3   OH223544   4.599   0.838   0.035  0.4260  0.2477  0.1741
  710TIP3    H123545   4.673   0.881  -0.009 -0.2111  0.7612 -0.4205
  710TIP3    H223546   4.572   0.769  -0.026  0.0494  0.4387  0.1249
  711TIP3   OH223547   0.319   6.192  14.924  0.3787  0.6826 -0.0828
  711TIP3    H123548   0.325   6.096  14.924 -2.4371  0.3753  1.7405
  711TIP3    H223549   0.404   6.221  14.956  0.7114 -1.3358  1.0891
  712TIP3   OH223550   3.677   0.963  15.787  0.0670 -0.3420 -0.0232
  712TIP3    H123551   3.744   0.921  15.734  0.4368  0.4026 -0.1562
  712TIP3    H223552   3.663   1.048  15.745 -0.3249 -0.1352  0.5154
  713TIP3   OH223553   1.991   5.695   3.732 -0.0749  0.2041 -0.2051
  713TIP3    H123554   1.902   5.698   3.695 -0.7579 -2.4358  1.0080
  713TIP3    H223555   1.996   5.610   3.775  2.1029  1.4436  2.2154
  714TIP3   OH223556   2.386   2.212   2.934  0.3023  0.1139  0.3835
  714TIP3    H123557   2.334   2.155   2.877 -0.7613  1.3130  0.0747
  714TIP3    H223558   2.321   2.255   2.990  0.8017  2.3607 -0.6397
  715TIP3   OH223559   5.324   6.646   4.412  0.5234 -0.6130  0.0669
  715TIP3    H123560   5.275   6.570   4.380 -1.4204  0.4200  0.4933
  715TIP3    H223561   5.269   6.683   4.481  0.5231  2.2469 -1.3289
  716TIP3   OH223562   5.103   0.064   3.628  0.3890  0.3317  0.4742
  716TIP3    H123563   5.054   0.107   3.698  1.0071  0.3195  0.9160
  716TIP3    H223564   5.194   0.067   3.656  0.9656  2.2539 -1.3030
  717TIP3   OH223565   4.599   4.998  12.383  0.6507 -0.1717  0.7586
  717TIP3    H123566   4.669   5.063  12.382  1.2605 -0.8180  0.1977
  717TIP3    H223567   4.538   5.028  12.314  0.9488 -0.2190  0.4736
  718TIP3   OH223568   6.245   5.079   2.646  0.1690  0.0827  0.0883
  718TIP3    H123569   6.192   5.031   2.710  1.8548 -1.8565  0.1369
  718TIP3    H223570   6.220   5.041   2.561 -0.3112  0.9519 -0.1726
  719TIP3   OH223571   0.547   0.829   0.044  0.1595 -0.3637  0.1859
  719TIP3    H123572   0.639   0.804   0.054  0.2309 -1.0392 -1.7085
  719TIP3    H223573   0.549   0.900  -0.020 -0.6046 -0.0061  0.5479
  720TIP3   OH223574   5.612   1.715   0.862  0.0363  0.2417  0.2312
  720TIP3    H123575   5.551   1.788   0.866  1.5998  1.7510 -1.4311
  720TIP3    H223576   5.694   1.754   0.830  2.1282 -1.5203  2.9306
  721TIP3   OH223577   2.212   5.982   1.353 -0.0177 -0.0310  0.0568
  721TIP3    H123578   2.149   6.013   1.289  0.3096 -0.5353 -0.5167
  721TIP3    H223579   2.292   5.965   1.303  0.5399  0.4669  0.7461
  722TIP3   OH223580   6.338   4.116  12.634  0.2401  0.9191  0.0739
  722TIP3    H123581   6.244   4.134  12.626  0.0039 -0.3315 -0.1534
  722TIP3    H223582   6.356   4.049  12.568  1.5336  1.9225 -0.6519
  723TIP3   OH223583   2.674   4.969   4.634  0.0705  0.5396 -0.0206
  723TIP3    H123584   2.720   4.888   4.610  0.9343  0.3105  2.1818
  723TIP3    H223585   2.745   5.032   4.651 -0.5632  1.3874 -0.4315
  724TIP3   OH223586   6.074   6.668   4.236  0.1905 -0.2281 -0.0849
  724TIP3    H123587   6.160   6.637   4.267  0.3360  0.5817  0.3291
  724TIP3    H223588   6.044   6.598   4.178  0.8277 -0.8348  0.2934
  725TIP3   OH223589   1.812   4.835  17.074  0.0911  0.2706  0.7082
  725TIP3    H123590   1.892   4.820  17.023 -1.0974 -0.5769 -1.0183
  725TIP3    H223591   1.753   4.878  17.012 -1.4029 -0.7530  1.3763
  726TIP3   OH223592   3.608   1.135  14.004 -0.2252 -0.3950  0.0685
  726TIP3    H123593   3.579   1.051  14.040 -0.7489 -0.8863 -1.3927
  726TIP3    H223594   3.529   1.189  14.001 -0.5505 -0.8878 -1.6566
  727TIP3   OH223595   1.530   5.797   4.460  0.5581 -0.1907  0.2519
  727TIP3    H123596   1.561   5.885   4.439  1.2533 -0.4436  0.1602
  727TIP3    H223597   1.582   5.740   4.402 -0.9693 -0.5629 -0.8113
  728TIP3   OH223598   0.740   4.684  12.215  0.1000  0.5800  0.5923
  728TIP3    H123599   0.738   4.601  12.262  1.8157  0.9152  1.3348
  728TIP3    H223600   0.649   4.713  12.213 -0.3674 -0.7637  1.3067
  729TIP3   OH223601   5.648   0.456   4.028  0.3529 -0.4742  0.1499
  729TIP3    H123602   5.650   0.441   3.934  1.8973 -2.2803  0.4343
  729TIP3    H223603   5.719   0.518   4.045  1.4246 -1.7205  0.3409
  730TIP3   OH223604   4.149   2.476  13.449 -0.0385  0.6903  0.5827
  730TIP3    H123605   4.087   2.549  13.441 -0.5979  0.0277 -1.7876
  730TIP3    H223606   4.200   2.478  13.368  0.3679 -1.1747  0.7365
  731TIP3   OH223607   1.486   6.738  15.357 -0.2622  0.2073 -0.2678
  731TIP3    H123608   1.528   6.788  15.287  1.1721 -0.2474  0.2370
  731TIP3    H223609   1.555   6.726  15.423 -1.0214 -1.0567  0.3351
  732TIP3   OH223610   2.720   2.535  14.682  0.2789 -0.7699 -0.1539
  732TIP3    H123611   2.738   2.615  14.632  0.5011 -0.2115  0.7937
  732TIP3    H223612   2.625   2.528  14.681  0.2354 -0.2828  0.0610
  733TIP3   OH223613   4.674   1.286   2.632  0.1195 -0.4399 -0.3028
  733TIP3    H123614   4.624   1.204   2.630 -1.4399  0.4118  0.9491
  733TIP3    H223615   4.759   1.262   2.669 -0.3406 -1.4690  0.1148
  734TIP3   OH223616   2.761   2.092   6.087  0.0085  0.3175 -0.0109
  734TIP3    H123617   2.840   2.065   6.134  0.3350  1.6512  0.2491
  734TIP3    H223618   2.708   2.137   6.153  0.0849  1.4522 -0.6870
  735TIP3   OH223619   0.085   3.908  13.376  0.8160 -0.9012 -0.2074
  735TIP3    H123620   0.160   3.952  13.337  0.1434 -0.9552 -1.5982
  735TIP3    H223621   0.023   3.978  13.394  0.8770 -0.9529  0.2296
  736TIP3   OH223622   0.787   4.667   6.525  0.0609 -0.3128 -0.1720
  736TIP3    H123623   0.842   4.601   6.482 -0.2093 -0.4731 -0.2808
  736TIP3    H223624   0.716   4.683   6.462 -0.3651 -0.5860  0.2361
  737TIP3   OH223625   2.900   0.619  11.995 -0.0527  0.5008 -0.1175
  737TIP3    H123626   2.847   0.695  12.020  1.0153  0.6048  2.0845
  737TIP3    H223627   2.986   0.636  12.033  0.2241 -1.7831  0.4469
  738TIP3   OH223628   3.074   0.268   4.716  0.5100  0.1263  0.0262
  738TIP3    H123629   3.042   0.178   4.716 -1.0607  0.6282 -0.8908
  738TIP3    H223630   3.145   0.269   4.780  0.1217 -1.6007  0.5351
  739TIP3   OH223631   3.717   1.110   0.479  0.1154 -0.0702 -0.7399
  739TIP3    H123632   3.644   1.143   0.428 -0.8309 -0.0485  0.5854
  739TIP3    H223633   3.794   1.126   0.424 -0.7617  0.7430 -1.7684
  740TIP3   OH223634   4.710   3.974   1.908 -0.5635 -0.1578  0.0305
  740TIP3    H123635   4.647   4.030   1.954 -0.8091 -0.9402  0.6965
  740TIP3    H223636   4.698   3.888   1.949  0.3458 -0.5135 -0.4257
  741TIP3   OH223637   5.038   2.644  17.217 -0.1349  0.1988 -0.7864
  741TIP3    H123638   5.119   2.674  17.258  0.3830 -1.1273 -0.7916
  741TIP3    H223639   4.978   2.718  17.226  0.5746  0.6445  0.5996
  742TIP3   OH223640   5.649   5.224   4.727 -0.2671 -0.4089  0.0462
  742TIP3    H123641   5.725   5.167   4.725 -0.6201 -0.8908  0.3288
  742TIP3    H223642   5.588   5.182   4.787 -0.5354  0.2552  0.2509
  743TIP3   OH223643   0.010   2.882  16.651  0.1500  0.5723 -0.3429
  743TIP3    H123644  -0.082   2.860  16.644  0.3280 -0.1032 -0.6334
  743TIP3    H223645   0.056   2.799  16.637  0.8058  0.9424 -0.4304
  744TIP3   OH223646   2.413   2.684   4.932  0.1244 -1.1377 -0.2148
  744TIP3    H123647   2.319   2.697   4.944 -0.4443 -4.1804 -0.6262
  744TIP3    H223648   2.424   2.679   4.837  0.9423  0.3154 -0.2317
  745TIP3   OH223649   0.581   4.678  17.168 -0.0537 -0.1525 -0.2775
  745TIP3    H123650   0.595   4.652  17.077  0.9829  0.8173 -0.4140
  745TIP3    H223651   0.665   4.663  17.211 -0.7679 -1.4677  0.7785
  746TIP3   OH223652   1.415   1.174   2.695  0.6962 -0.8261 -0.3093
  746TIP3    H123653   1.381   1.166   2.785 -2.5508 -3.3992 -1.5471
  746TIP3    H223654   1.363   1.246   2.657 -1.1776 -2.5615 -1.2379
  747TIP3   OH223655   2.582   6.510  13.592 -0.2790  0.3513 -0.1567
  747TIP3    H123656   2.650   6.519  13.526  0.1914  0.1851  0.3032
  747TIP3    H223657   2.623   6.538  13.674 -1.2084  1.7611 -0.1184
  748TIP3   OH223658   1.982   5.725   1.602  0.1797  0.0523  0.0327
  748TIP3    H123659   2.024   5.662   1.661  0.4128 -1.1520 -1.3559
  748TIP3    H223660   2.024   5.710   1.517 -1.0035  0.8670 -0.7318
  749TIP3   OH223661   5.421   2.410   6.732  0.1214 -0.6834 -0.3941
  749TIP3    H123662   5.509   2.376   6.717 -0.2075 -2.2730  1.0467
  749TIP3    H223663   5.377   2.342   6.783 -0.9447  1.4261  1.6855
  750TIP3   OH223664   5.730   3.372   4.410 -0.2803  0.0948  0.1279
  750TIP3    H123665   5.748   3.284   4.442 -0.7709 -0.2815 -0.6285
  750TIP3    H223666   5.719   3.363   4.316  1.7554  1.2987 -0.2835
  751TIP3   OH223667   5.150   1.007   0.411 -0.2827 -0.3568 -0.3974
  751TIP3    H123668   5.177   1.051   0.331 -0.2943  1.3226  0.4730
  751TIP3    H223669   5.107   1.075   0.463  0.5296 -1.1387  1.4113
  752TIP3   OH223670   6.423   4.045   6.519  0.3053 -0.1197 -1.0859
  752TIP3    H123671   6.495   4.017   6.462  1.0450  0.0696 -0.2656
  752TIP3    H223672   6.368   3.967   6.529  1.4109 -0.8145 -0.2269
  753TIP3   OH223673   4.619   4.822  11.846 -0.4476  0.5742  0.2499
  753TIP3    H123674   4.569   4.903  11.856 -1.4807 -0.0244  0.0083
  753TIP3    H223675   4.671   4.835  11.767  0.3607  1.4924  0.9124
  754TIP3   OH223676   2.080   3.687   2.696 -0.1842 -0.6667  0.3024
  754TIP3    H123677   2.094   3.780   2.714  2.1637 -0.8453 -0.2062
  754TIP3    H223678   2.047   3.651   2.778 -2.0220  0.7525  0.2251
  755TIP3   OH223679   4.852   2.929   3.767  0.2028 -0.6369 -0.6733
  755TIP3    H123680   4.764   2.899   3.747  0.1548 -0.7590 -0.2892
  755TIP3    H223681   4.892   2.857   3.816 -0.0201  0.0331  0.5372
  756TIP3   OH223682   6.320   0.848  17.119 -0.2816 -0.4102  0.4095
  756TIP3    H123683   6.409   0.818  17.106 -0.8240 -1.9887  0.1300
  756TIP3    H223684   6.265   0.771  17.102 -1.7059  0.5473  0.4349
  757TIP3   OH223685   4.993   6.277  11.173  0.3278  0.1618  0.0703
  757TIP3    H123686   4.909   6.258  11.132  0.7001  0.2729 -0.7660
  757TIP3    H223687   5.044   6.197  11.160  0.4345  0.1819  0.3615
  758TIP3   OH223688   6.498   4.071  16.747  0.1157 -0.6402 -0.2857
  758TIP3    H123689   6.569   4.128  16.717 -0.9127  1.3145  0.7534
  758TIP3    H223690   6.419   4.110  16.708 -0.4154 -2.9576 -1.7007
  759TIP3   OH223691   3.331   1.943  14.617  0.2225 -0.0229  0.2022
  759TIP3    H123692   3.292   1.972  14.535  0.5036  0.7737  0.3355
  759TIP3    H223693   3.291   1.858  14.635  0.8303 -0.6422 -1.2279
  760TIP3   OH223694   1.062   5.013  12.869  0.1829  0.2263  0.3128
  760TIP3    H123695   1.045   4.979  12.781 -1.1432  1.6656 -0.0304
  760TIP3    H223696   1.155   4.996  12.884  0.3200 -0.4558 -1.1871
  761TIP3   OH223697   5.094   0.316  12.607  0.8833  0.1473 -0.1302
  761TIP3    H123698   5.159   0.246  12.601  0.4270 -0.2559 -0.4017
  761TIP3    H223699   5.021   0.276  12.654  1.0974  0.8017  0.7807
  762TIP3   OH223700   0.430   3.282   6.051 -0.2761  0.6492  0.8097
  762TIP3    H123701   0.505   3.224   6.038 -0.4921  0.9977 -3.0665
  762TIP3    H223702   0.358   3.223   6.076 -0.1461 -0.6870 -1.6387
  763TIP3   OH223703   3.758   1.169  12.485 -0.2142  0.1434 -0.4689
  763TIP3    H123704   3.739   1.250  12.439 -1.1784 -1.0558 -2.3160
  763TIP3    H223705   3.848   1.149  12.462 -0.0680  0.5155 -0.2380
  764TIP3   OH223706   3.330   5.086   3.179 -0.1436  0.3512  0.2398
  764TIP3    H123707   3.317   5.022   3.108 -0.7056 -1.8246  2.1792
  764TIP3    H223708   3.284   5.164   3.149  1.1992  0.1737 -2.5688
  765TIP3   OH223709   6.613   1.254   4.465 -0.0545 -0.1933 -0.3961
  765TIP3    H123710   6.528   1.210   4.466  0.4089 -1.1193 -0.6194
  765TIP3    H223711   6.621   1.294   4.551  1.1231 -3.7771  1.3652
  766TIP3   OH223712   2.706   5.811   5.252  0.4153 -0.4204 -0.1603
  766TIP3    H123713   2.651   5.888   5.260 -1.1547 -1.6202  1.3069
  766TIP3    H223714   2.747   5.819   5.166 -2.4689  0.2756 -1.5789
  767TIP3   OH223715   6.040   1.360  11.471 -0.0406 -0.1371 -0.0532
  767TIP3    H123716   5.997   1.339  11.388 -1.7439  0.2095  0.7024
  767TIP3    H223717   6.036   1.455  11.477  0.7829 -0.1007  0.0881
  768TIP3   OH223718   2.364   4.716  15.982 -0.1194 -0.2198 -0.1405
  768TIP3    H123719   2.291   4.668  15.942  0.5143  0.7201 -2.5734
  768TIP3    H223720   2.402   4.766  15.910  2.0633  0.4182  1.3693
  769TIP3   OH223721   5.248   5.826   5.584 -0.0724 -0.2490  0.2613
  769TIP3    H123722   5.297   5.848   5.505  0.5442 -0.6417  0.5293
  769TIP3    H223723   5.275   5.737   5.605  0.9667  0.3818  1.7921
  770TIP3   OH223724   6.309   3.126   3.699 -0.1798 -0.4645 -0.4232
  770TIP3    H123725   6.337   3.187   3.767  1.4583  0.5060 -1.8753
  770TIP3    H223726   6.220   3.101   3.724  0.1446  0.2876  1.7313
  771TIP3   OH223727   2.005   3.588   6.848  0.4171  0.6686  0.3467
  771TIP3    H123728   1.933   3.590   6.786  1.7527 -0.3156 -1.3265
  771TIP3    H223729   2.017   3.496   6.870  1.3486  0.7710  0.3443
  772TIP3   OH223730   3.505   2.074   6.594 -0.4765  0.9104 -0.1326
  772TIP3    H123731   3.588   2.031   6.613 -0.1476  1.6523  0.1626
  772TIP3    H223732   3.440   2.027   6.646 -0.4209 -0.2923 -1.0919
  773TIP3   OH223733   5.144   6.517  10.451  0.2123 -0.0591 -0.6130
  773TIP3    H123734   5.199   6.525  10.529  1.3692 -1.4121 -1.2526
  773TIP3    H223735   5.099   6.434  10.463  0.8479 -0.5692 -1.6411
  774TIP3   OH223736   4.025   1.453  14.596  0.0338 -0.2771  0.3668
  774TIP3    H123737   4.002   1.519  14.531  1.9316  0.2694  0.1976
  774TIP3    H223738   4.114   1.474  14.622 -0.5711 -0.5607  3.0514
  775TIP3   OH223739   4.131   4.603   1.615  0.0062 -0.0446 -0.0943
  775TIP3    H123740   4.133   4.659   1.537 -1.9572 -0.6074 -0.6040
  775TIP3    H223741   4.059   4.639   1.667 -0.3353 -1.2132  0.2549
  776TIP3   OH223742   0.955   1.414   2.457 -0.1421  0.2477  0.0294
  776TIP3    H123743   1.016   1.487   2.443  0.6172 -0.5765 -1.2184
  776TIP3    H223744   0.876   1.441   2.410  0.6066 -0.2688 -1.6117
  777TIP3   OH223745   6.651   1.948   3.174 -0.1343  0.1624  0.5191
  777TIP3    H123746   6.727   1.946   3.115 -0.3427 -0.3330  0.2647
  777TIP3    H223747   6.643   2.040   3.198 -0.3531  0.4580 -0.6401
  778TIP3   OH223748   2.632   3.617   2.830 -0.2570 -0.0656 -0.0833
  778TIP3    H123749   2.663   3.536   2.790 -0.4555 -0.3379  0.3035
  778TIP3    H223750   2.699   3.682   2.810  0.9633 -0.8244  1.4199
  779TIP3   OH223751   5.395   2.516  15.214  0.3045 -0.2879  0.2288
  779TIP3    H123752   5.489   2.533  15.213  0.2761  0.2828  2.3036
  779TIP3    H223753   5.379   2.470  15.297 -1.3102  0.0850  0.1737
  780TIP3   OH223754   4.391   0.977  11.848 -0.9867  0.4167  0.3812
  780TIP3    H123755   4.317   0.988  11.908 -0.8019 -0.3624  0.7769
  780TIP3    H223756   4.367   1.026  11.770 -1.0920  1.7328  1.2147
  781TIP3   OH223757   6.015   0.547  12.086  0.2650  0.1918 -0.3575
  781TIP3    H123758   6.078   0.592  12.029  1.9142 -0.0095  1.1956
  781TIP3    H223759   5.948   0.612  12.104 -0.3962  0.2280 -2.5589
  782TIP3   OH223760   0.758   4.314  17.316 -0.8710 -0.4287 -0.7153
  782TIP3    H123761   0.822   4.385  17.315 -1.1821 -0.0997  0.5907
  782TIP3    H223762   0.714   4.320  17.231  0.0787  0.0193 -1.1903
  783TIP3   OH223763   3.109   1.116   0.411 -0.0900  0.4881  0.0323
  783TIP3    H123764   3.164   1.058   0.359 -1.3159  0.3233 -1.1490
  783TIP3    H223765   3.059   1.057   0.469  0.4094  0.5774  0.5649
  784TIP3   OH223766   2.206   6.224   4.547 -0.9516 -0.6510  0.3859
  784TIP3    H123767   2.126   6.207   4.497 -3.0020 -0.4428  3.3086
  784TIP3    H223768   2.220   6.144   4.598  1.4181 -1.1020 -0.8434
  785TIP3   OH223769   0.599   0.176   4.432 -0.0974  0.1273  0.4900
  785TIP3    H123770   0.682   0.170   4.385  0.3124 -0.8487  1.2977
  785TIP3    H223771   0.561   0.259   4.403  1.3894  0.8422  0.4594
  786TIP3   OH223772   1.643   3.790  11.712 -0.4312 -0.2256  0.5364
  786TIP3    H123773   1.651   3.871  11.762  0.9733  0.3321 -0.4878
  786TIP3    H223774   1.680   3.722  11.769 -1.0222 -0.0394  1.1490
  787TIP3   OH223775   6.227   0.368  15.646 -0.2547 -0.0152  0.0359
  787TIP3    H123776   6.277   0.409  15.717 -1.0016 -0.4654  0.8502
  787TIP3    H223777   6.172   0.304  15.691  1.5943 -2.7025 -1.2341
  788TIP3   OH223778   4.625   1.401   1.508  0.0652 -0.2435 -0.2119
  788TIP3    H123779   4.620   1.486   1.551 -0.5449 -1.0634  1.4029
  788TIP3    H223780   4.550   1.400   1.449 -0.3740  0.0508  0.3328
  789TIP3   OH223781   4.930   2.054   3.723  0.4425  0.1816  0.1598
  789TIP3    H123782   4.895   2.112   3.655 -0.3629  1.4261  1.5682
  789TIP3    H223783   4.884   2.081   3.803  0.5712 -1.9531  1.0083
  790TIP3   OH223784   1.301   0.474  16.722  0.2312 -0.1233  0.2330
  790TIP3    H123785   1.360   0.477  16.646  0.7353  0.7805  0.6386
  790TIP3    H223786   1.262   0.561  16.725  0.8070  0.1186  1.4529
  791TIP3   OH223787   1.187   0.563  13.499 -0.4597 -0.2129 -0.5820
  791TIP3    H123788   1.263   0.575  13.442  0.0177 -1.7086 -0.2924
  791TIP3    H223789   1.191   0.637  13.560  2.4224 -1.6869  1.2255
  792TIP3   OH223790   1.084   5.953   5.344 -0.1177 -0.0409  0.1259
  792TIP3    H123791   1.140   5.949   5.422  0.6208 -0.6633 -0.4253
  792TIP3    H223792   1.049   6.042   5.344 -0.7409 -0.2548  1.5893
  793TIP3   OH223793   2.740   5.503   3.044 -0.5579  0.2505  0.5346
  793TIP3    H123794   2.706   5.450   2.972 -1.4771  0.3934  0.8515
  793TIP3    H223795   2.821   5.458   3.070 -0.0426  0.3652 -0.7677
  794TIP3   OH223796   2.573   5.743  14.597  0.8260 -0.5403 -0.1112
  794TIP3    H123797   2.613   5.733  14.683  1.4563 -2.4073 -0.5808
  794TIP3    H223798   2.644   5.724  14.535 -0.1449 -1.3709 -1.0000
  795TIP3   OH223799   2.616   3.427  11.606  0.3921  0.2752 -0.4235
  795TIP3    H123800   2.534   3.385  11.629  0.3292 -0.0878 -1.2564
  795TIP3    H223801   2.598   3.470  11.522  0.9117  0.5987 -0.3735
  796TIP3   OH223802   0.264   0.930  17.261  0.1019 -0.9764 -0.1318
  796TIP3    H123803   0.219   0.894  17.185 -0.3035 -0.2636 -0.2335
  796TIP3    H223804   0.194   0.968  17.315  0.4413 -1.0201  0.3450
  797TIP3   OH223805   6.348   5.679   5.415 -0.1580  0.4848 -0.2721
  797TIP3    H123806   6.306   5.596   5.395  0.4326  0.1839 -0.2795
  797TIP3    H223807   6.300   5.713   5.490 -0.2599  0.0369 -0.1331
  798TIP3   OH223808   2.075   4.573  12.141  0.4121 -0.0959  0.3605
  798TIP3    H123809   1.999   4.632  12.141 -0.6269 -1.3543 -0.6973
  798TIP3    H223810   2.141   4.618  12.194 -0.9246  1.2339  0.9706
  799TIP3   OH223811   1.416   5.724   1.675  0.7530 -0.0217  0.0066
  799TIP3    H123812   1.476   5.731   1.749 -2.1127  0.5147  2.4616
  799TIP3    H223813   1.374   5.809   1.670 -1.2681 -0.9828 -0.2667
  800TIP3   OH223814   0.769   3.262  14.356  0.6083  0.1426  0.2483
  800TIP3    H123815   0.753   3.338  14.300 -0.4681  0.7400  1.3310
  800TIP3    H223816   0.864   3.264  14.373  0.9046  0.1312 -1.2418
  801TIP3   OH223817   6.087   3.743  11.578 -0.4262 -0.8188 -0.3633
  801TIP3    H123818   6.145   3.818  11.590 -1.4983 -0.1045  0.4824
  801TIP3    H223819   6.114   3.680  11.645 -0.4888 -0.5658 -0.0973
  802TIP3   OH223820   4.460   5.406  12.050 -0.8075 -0.4404  0.1285
  802TIP3    H123821   4.500   5.327  12.088 -2.0363 -0.7841  0.7513
  802TIP3    H223822   4.449   5.385  11.957 -0.6318 -0.7965  0.1857
  803TIP3   OH223823   0.343   2.005   3.541  0.5384  0.1932  0.1417
  803TIP3    H123824   0.312   2.068   3.606  2.0313  0.5677  0.5190
  803TIP3    H223825   0.438   2.012   3.544  0.7310 -1.6910 -0.1994
  804TIP3   OH223826   1.642   0.378  12.173  0.5434 -0.5565 -0.1294
  804TIP3    H123827   1.627   0.350  12.264 -0.9133 -3.1296 -1.0419
  804TIP3    H223828   1.714   0.440  12.179 -0.0750  0.0700  2.8774
  805TIP3   OH223829   2.476   2.874   2.721  0.3505  0.3945 -0.2748
  805TIP3    H123830   2.488   2.877   2.816 -1.6966 -0.9173  0.0890
  805TIP3    H223831   2.384   2.894   2.708  0.9304  2.0901 -2.1450
  806TIP3   OH223832   4.388   4.573  15.627  0.4860  0.5071  0.7452
  806TIP3    H123833   4.405   4.584  15.721 -0.7587 -0.4058  1.1129
  806TIP3    H223834   4.395   4.478  15.613  2.3361  0.7776 -0.4600
  807TIP3   OH223835   4.043   2.472  13.125  0.1923 -0.3154 -0.5165
  807TIP3    H123836   4.052   2.388  13.081  0.1216  0.0386 -1.2249
  807TIP3    H223837   3.985   2.454  13.199 -0.1779 -0.7982 -0.9166
  808TIP3   OH223838   5.021   5.034  17.202 -0.4905  1.0010  0.4802
  808TIP3    H123839   4.944   4.978  17.208 -0.0996  0.0796 -1.9190
  808TIP3    H223840   4.988   5.116  17.165 -0.4434  0.8265  0.0391
  809TIP3   OH223841   4.425   3.796  11.266 -0.4081  0.0831  0.5592
  809TIP3    H123842   4.477   3.806  11.186 -0.8112 -0.7124  0.1983
  809TIP3    H223843   4.336   3.783  11.235 -0.4716 -0.8632  1.1156
  810TIP3   OH223844   4.595   5.248   2.313  0.3581  0.1122 -0.6186
  810TIP3    H123845   4.598   5.190   2.389  1.2536  0.9206 -0.0124
  810TIP3    H223846   4.571   5.191   2.240  1.1288 -0.9958 -0.0279
  811TIP3   OH223847   2.311   6.634  12.984  0.1470 -0.1903 -0.4023
  811TIP3    H123848   2.377   6.585  13.032 -1.3794 -0.8283  1.1306
  811TIP3    H223849   2.260   6.567  12.938  0.3549  0.2722 -1.3439
  812TIP3   OH223850   3.304   2.128   6.812  0.0091  0.0699 -0.0203
  812TIP3    H123851   3.292   2.188   6.739 -3.0177  3.1932  2.6551
  812TIP3    H223852   3.362   2.175   6.873  1.9923 -2.1779 -0.0363
  813TIP3   OH223853   0.733   6.131  12.391  0.0889 -0.0317  0.1342
  813TIP3    H123854   0.821   6.152  12.423 -0.3631 -0.2819  1.5946
  813TIP3    H223855   0.689   6.215  12.384 -0.3712 -0.0874  1.9348
  814TIP3   OH223856   4.695   4.730  14.008 -0.0002 -0.0942  0.2030
  814TIP3    H123857   4.766   4.672  13.979  0.2538  0.1474  0.3382
  814TIP3    H223858   4.729   4.818  13.993  0.1500  0.0392  1.2612
  815TIP3   OH223859   6.559   4.503  14.389  0.6255 -0.7098  0.1948
  815TIP3    H123860   6.558   4.599  14.386 -0.2753 -0.7185  0.1737
  815TIP3    H223861   6.619   4.483  14.461  1.1057 -0.1394 -0.0357
  816TIP3   OH223862   3.630   2.689  12.265  0.0055  0.3534  0.1973
  816TIP3    H123863   3.681   2.748  12.208  1.4233 -0.4668  0.5617
  816TIP3    H223864   3.626   2.735  12.349  0.3939  0.3066  0.2445
  817TIP3   OH223865   0.154   2.482  13.703  0.7182 -0.5939 -0.2443
  817TIP3    H123866   0.116   2.545  13.764 -0.3676 -0.7347 -0.7565
  817TIP3    H223867   0.089   2.473  13.634  1.8437 -0.5710 -1.3449
  818TIP3   OH223868   5.762   3.253  15.138  0.4321 -0.1297  0.2953
  818TIP3    H123869   5.783   3.331  15.190  0.2165  0.0578  0.1039
  818TIP3    H223870   5.803   3.270  15.053 -1.4798  0.7829 -0.4922
  819TIP3   OH223871   1.557   5.650   3.186 -0.6394  0.2874  0.1118
  819TIP3    H123872   1.575   5.590   3.113 -0.7127 -0.7073  0.8846
  819TIP3    H223873   1.592   5.734   3.157  1.6575 -0.6596 -0.0659
  820TIP3   OH223874   2.732   3.868  16.928 -0.3376  0.0574 -0.3079
  820TIP3    H123875   2.745   3.960  16.948  0.7235  0.2697 -1.8038
  820TIP3    H223876   2.709   3.866  16.835  0.4485 -1.2063 -0.5124
  821TIP3   OH223877   5.134   1.701  13.248  0.2626  0.6398  0.2573
  821TIP3    H123878   5.219   1.705  13.293  0.3514  1.1047  0.0594
  821TIP3    H223879   5.116   1.792  13.225 -0.4896  0.5979  0.6613
  822TIP3   OH223880   4.265   0.740   6.527 -0.2781  0.2242  0.4633
  822TIP3    H123881   4.197   0.709   6.586 -1.2955  0.2422 -0.6779
  822TIP3    H223882   4.221   0.802   6.469  0.8042  0.5910  0.0010
  823TIP3   OH223883   5.865   5.107   1.709  0.8863  0.0393 -0.1419
  823TIP3    H123884   5.919   5.186   1.710  1.9214 -0.6339 -0.8611
  823TIP3    H223885   5.927   5.034   1.704  0.0293 -0.9233  1.9898
  824TIP3   OH223886   0.650   5.861   0.971 -0.6691 -0.5013 -0.4259
  824TIP3    H123887   0.706   5.807   0.916  1.5246  1.0183  0.1284
  824TIP3    H223888   0.681   5.950   0.956 -1.7579  0.2271  1.2805
  825TIP3   OH223889   6.133   5.011  11.981 -0.1460  0.4734  0.6270
  825TIP3    H123890   6.215   5.004  11.932 -0.4990 -1.3046  0.2326
  825TIP3    H223891   6.143   4.949  12.053 -1.2713 -0.0404  0.3660
  826TIP3   OH223892   3.021   4.392  16.823  0.0184  0.3260 -0.2548
  826TIP3    H123893   3.039   4.364  16.734 -0.7333  0.8377 -0.5729
  826TIP3    H223894   3.057   4.321  16.878  1.1930  0.3828 -0.9128
  827TIP3   OH223895   0.553   3.781   3.672  0.1038  0.0487  0.3253
  827TIP3    H123896   0.620   3.828   3.722 -1.5746  1.5013  1.3273
  827TIP3    H223897   0.499   3.849   3.633 -1.5359 -1.0261  0.5871
  828TIP3   OH223898   0.169   6.552   6.687  0.3424 -0.3080 -0.1571
  828TIP3    H123899   0.147   6.643   6.709 -0.1117 -0.6734  0.9495
  828TIP3    H223900   0.261   6.543   6.710  0.6960  0.1609 -1.2921
  829TIP3   OH223901   2.483   5.292   6.343  0.4377 -0.2924  0.4504
  829TIP3    H123902   2.544   5.360   6.369  0.8080 -0.6930  0.6506
  829TIP3    H223903   2.515   5.264   6.257 -0.5362  0.7409 -0.2677
  830TIP3   OH223904   1.752   1.841   5.274  0.2497  0.4769  0.2467
  830TIP3    H123905   1.699   1.921   5.278  1.1576  1.0591  1.0534
  830TIP3    H223906   1.718   1.787   5.344 -0.8357 -0.1684 -0.7447
  831TIP3   OH223907   0.422   1.940   6.104  0.6638 -0.2142 -0.4286
  831TIP3    H123908   0.396   1.997   6.176  2.9095  0.8916 -0.4089
  831TIP3    H223909   0.383   1.855   6.125 -1.0814  0.7798  0.5861
  832TIP3   OH223910   1.709   4.343  11.141  0.7231 -0.5723  0.4123
  832TIP3    H123911   1.740   4.296  11.063  2.0255 -1.0093  1.1550
  832TIP3    H223912   1.784   4.394  11.170 -0.5766  1.8209 -0.2006
  833TIP3   OH223913   6.289   3.775   6.396  0.0783  0.0498  0.6563
  833TIP3    H123914   6.364   3.720   6.376 -1.3172 -1.1449 -1.8195
  833TIP3    H223915   6.282   3.834   6.321 -0.0168  1.8876  2.0398
  834TIP3   OH223916   4.871   1.914   0.223 -0.2386 -0.0257  0.5779
  834TIP3    H123917   4.817   1.913   0.302 -1.2511 -0.1514 -0.0958
  834TIP3    H223918   4.869   2.005   0.194 -0.4880 -0.1203  0.2921
  835TIP3   OH223919   4.037   3.045  11.892  0.1811  0.3530 -0.3009
  835TIP3    H123920   3.942   3.052  11.880  0.0089  0.5874  1.0533
  835TIP3    H223921   4.052   3.069  11.983  1.4865 -0.2517 -0.3245
  836TIP3   OH223922   5.592   5.406  13.320  0.4203  0.3146  0.8857
  836TIP3    H123923   5.671   5.359  13.348  1.5009  0.5182 -1.5975
  836TIP3    H223924   5.624   5.474  13.261 -1.7182 -0.8716 -1.8383
  837TIP3   OH223925   6.418   1.488   2.071 -1.0472  0.5226 -0.0025
  837TIP3    H123926   6.396   1.404   2.030  1.4235 -0.0388 -0.3499
  837TIP3    H223927   6.381   1.554   2.012 -0.6548 -0.3292 -1.2397
  838TIP3   OH223928   5.110   5.399  15.635  0.5976 -0.1027  0.1304
  838TIP3    H123929   5.040   5.465  15.644  1.8272  1.6670 -2.1217
  838TIP3    H223930   5.179   5.430  15.694  0.4867 -0.4434  0.4473
  839TIP3   OH223931   3.232   2.539   2.380 -0.3087 -0.1045 -0.3259
  839TIP3    H123932   3.274   2.460   2.348 -0.5275 -0.7429  0.9206
  839TIP3    H223933   3.148   2.510   2.416  0.3174  0.4106  1.6668
  840TIP3   OH223934   4.861   4.407  17.028  0.0474  0.1530 -0.2801
  840TIP3    H123935   4.825   4.494  17.047 -0.8594 -0.2956  0.1118
  840TIP3    H223936   4.788   4.359  16.988 -0.3382 -1.3070  1.9942
  841TIP3   OH223937   3.968   5.164   2.509  0.0512  0.1907  0.0804
  841TIP3    H123938   3.983   5.222   2.435 -1.7565  1.5806  0.7285
  841TIP3    H223939   4.056   5.135   2.535  0.8148  0.7716 -1.7113
  842TIP3   OH223940   0.603   0.284  12.424  0.2191 -0.4400  0.2896
  842TIP3    H123941   0.592   0.259  12.515  1.4638 -0.8632  0.3421
  842TIP3    H223942   0.581   0.377  12.421 -0.2157 -0.5183  0.9269
  843TIP3   OH223943   4.591   0.503   4.628 -0.2640  0.8203  0.7008
  843TIP3    H123944   4.679   0.534   4.604  0.1436  0.6545  1.9282
  843TIP3    H223945   4.550   0.579   4.669 -0.3261  0.5887  1.0596
  844TIP3   OH223946   5.950   1.980   2.045  0.4275 -0.0803  0.5517
  844TIP3    H123947   5.899   2.048   2.088  0.8438  1.0086 -0.6340
  844TIP3    H223948   5.884   1.925   2.001  0.2275  1.2674 -0.9065
  845TIP3   OH223949   2.139   5.270   2.414 -0.0061  0.3999 -0.2494
  845TIP3    H123950   2.220   5.267   2.465  0.0184  0.9679 -0.2454
  845TIP3    H223951   2.152   5.207   2.343  0.7341  1.0044 -0.6665
  846TIP3   OH223952   6.707   2.897  14.880  0.2880  0.3140 -0.0106
  846TIP3    H123953   6.784   2.854  14.917  1.6762  0.5456 -2.4357
  846TIP3    H223954   6.645   2.826  14.865  0.7752 -0.1654  0.2067
  847TIP3   OH223955   1.131   5.853   5.798 -0.6862  0.2413 -0.1991
  847TIP3    H123956   1.198   5.901   5.846 -2.0742  0.4791  1.5732
  847TIP3    H223957   1.177   5.775   5.766 -0.0037 -0.7548  2.8564
  848TIP3   OH223958   4.034   6.466  14.246 -0.4020 -0.1749  0.2191
  848TIP3    H123959   4.069   6.528  14.181 -0.4023  0.2541  0.6264
  848TIP3    H223960   3.957   6.429  14.204 -0.3415  0.0175 -0.0708
  849TIP3   OH223961   1.198   1.710   4.438  0.3216  0.0416  0.4316
  849TIP3    H123962   1.214   1.747   4.352 -1.9520 -0.3893 -0.2360
  849TIP3    H223963   1.205   1.615   4.426 -1.5877 -0.1179  0.2984
  850TIP3   OH223964   6.228   3.899   0.494 -0.4607  0.0126 -0.1322
  850TIP3    H123965   6.212   3.806   0.505 -0.2134  0.0624  0.7570
  850TIP3    H223966   6.146   3.934   0.459 -0.1987 -0.6986 -1.5240
  851TIP3   OH223967   1.233   4.208   4.975  0.1419  0.3660 -0.1647
  851TIP3    H123968   1.198   4.287   5.016  0.8577  0.0732  1.0669
  851TIP3    H223969   1.207   4.137   5.034  2.2838  0.0779  0.5021
  852TIP3   OH223970   1.428   2.000   0.298  0.0052 -0.5748  0.5327
  852TIP3    H123971   1.383   2.016   0.381  1.2092  0.1473  1.0692
  852TIP3    H223972   1.520   2.014   0.318  0.2408  0.4455 -1.1380
  853TIP3   OH223973   3.261   0.356   3.237 -1.0166  0.1285  0.3189
  853TIP3    H123974   3.177   0.380   3.198 -0.8901  0.6826  0.3878
  853TIP3    H223975   3.321   0.351   3.162 -1.0911 -0.2017  0.2780
  854TIP3   OH223976   5.635   1.093  15.397  0.2528  0.8021  0.5283
  854TIP3    H123977   5.551   1.133  15.416  0.1729  0.6386  0.5197
  854TIP3    H223978   5.619   0.999  15.403 -0.2922  0.6190 -2.3606
  855TIP3   OH223979   6.313   6.316   1.060  0.0678  0.6490 -0.0854
  855TIP3    H123980   6.316   6.410   1.041  0.8462  0.7274  0.3772
  855TIP3    H223981   6.262   6.279   0.989  1.0102  1.2318 -1.1093
  856TIP3   OH223982   4.438   4.389   5.313 -0.1990 -0.1717  0.4231
  856TIP3    H123983   4.436   4.347   5.399  1.1882 -0.4702  0.3245
  856TIP3    H223984   4.371   4.458   5.319 -0.6510 -0.6838  1.4734
  857TIP3   OH223985   5.990   4.284  15.214  0.0899  0.2513 -0.0378
  857TIP3    H123986   6.082   4.277  15.238  0.6792 -3.6865 -2.5038
  857TIP3    H223987   5.945   4.224  15.273 -0.2971 -0.4162 -0.9810
  858TIP3   OH223988   1.789   5.730   5.881  0.1269 -0.5175  0.2647
  858TIP3    H123989   1.878   5.766   5.884 -0.6142  1.4118  1.1593
  858TIP3    H223990   1.732   5.807   5.894 -1.5965 -2.0037  2.2523
  859TIP3   OH223991   2.177   6.451  15.282 -0.4462  0.6648 -0.5644
  859TIP3    H123992   2.158   6.364  15.247 -0.6282  0.1213  0.8206
  859TIP3    H223993   2.193   6.436  15.375 -0.2616  2.0925 -0.3462
  860TIP3   OH223994   0.260   5.003  13.587 -0.5434 -0.3108 -0.1081
  860TIP3    H123995   0.332   5.056  13.621 -1.6295  1.4835 -0.5162
  860TIP3    H223996   0.181   5.049  13.612 -1.4949 -1.0130 -1.6397
  861TIP3   OH223997   1.544   6.279  16.459  0.2215 -0.3835 -0.1316
  861TIP3    H123998   1.601   6.348  16.492  0.6171 -0.3091 -0.9532
  861TIP3    H223999   1.591   6.243  16.384 -1.1750  0.2475 -1.3540
  862TIP3   OH224000   4.233   2.993  15.106  0.0936  0.6887  0.1822
  862TIP3    H124001   4.285   2.932  15.159 -1.6086  0.2383  1.4261
  862TIP3    H224002   4.153   2.945  15.087 -1.7388  2.7864  2.0316
  863TIP3   OH224003   2.975   2.695  17.381  0.1634  0.1959  0.0070
  863TIP3    H124004   3.008   2.779  17.350  0.5551  0.1845  0.3973
  863TIP3    H224005   3.047   2.658  17.433 -0.1334 -0.2218  0.1250
  864TIP3   OH224006   4.671   5.285   0.503 -0.0244 -0.1168  0.1768
  864TIP3    H124007   4.617   5.248   0.433  2.1331 -0.8357 -1.2065
  864TIP3    H224008   4.677   5.215   0.568  0.3425 -0.5595 -0.3195
  865TIP3   OH224009   3.266   3.425  15.640 -0.4393 -0.3369  0.1744
  865TIP3    H124010   3.174   3.399  15.630 -0.6702 -0.0628  1.3566
  865TIP3    H224011   3.316   3.354  15.600 -1.1609 -0.5016 -0.4694
  866TIP3   OH224012   0.913   3.246   0.325 -0.5120 -0.2476 -0.8202
  866TIP3    H124013   0.879   3.233   0.414 -0.4498 -0.9528 -0.8918
  866TIP3    H224014   0.835   3.267   0.273 -0.3639  1.7049 -0.3409
  867TIP3   OH224015   1.501   6.353   3.072  0.1822  0.1890 -0.3404
  867TIP3    H124016   1.441   6.365   3.145  1.2702  0.3535  0.5448
  867TIP3    H224017   1.465   6.278   3.024 -0.8679  0.4464  0.0150
  868TIP3   OH224018   0.433   3.797  13.493  0.2423 -0.1534 -0.1524
  868TIP3    H124019   0.498   3.746  13.541  2.5778  1.2248 -1.6299
  868TIP3    H224020   0.397   3.736  13.428  2.0775 -0.3200 -1.0726
  869TIP3   OH224021   0.249   3.133   1.679  0.2783  0.0430  0.3008
  869TIP3    H124022   0.267   3.159   1.588  0.8648 -1.4678 -0.0448
  869TIP3    H224023   0.154   3.123   1.683  0.3641 -1.5099 -0.6502
  870TIP3   OH224024   4.273   4.886   1.417 -0.1820 -0.2604 -0.1375
  870TIP3    H124025   4.221   4.911   1.341  0.6498  0.5289 -0.4690
  870TIP3    H224026   4.310   4.801   1.394  0.5762  0.2552 -0.9135
  871TIP3   OH224027   1.590   1.330   5.397 -0.1229 -0.9261 -0.2479
  871TIP3    H124028   1.638   1.273   5.456 -0.0626  0.6979  1.3471
  871TIP3    H224029   1.500   1.298   5.401 -0.3885 -0.0682  1.7921
  872TIP3   OH224030   1.391   2.205  14.011 -0.1475  0.6540 -0.1357
  872TIP3    H124031   1.415   2.168  14.096 -1.0482  0.3170 -0.0194
  872TIP3    H224032   1.315   2.154  13.983 -0.0227  0.9428 -1.0216
  873TIP3   OH224033   4.726   2.709  12.795  0.3254 -0.1588 -1.0332
  873TIP3    H124034   4.788   2.782  12.796  0.1037  0.0954  1.5252
  873TIP3    H224035   4.640   2.749  12.787  0.3344 -0.4368 -3.2502
  874TIP3   OH224036   3.638   3.661  14.594 -0.3672  0.6038 -0.5565
  874TIP3    H124037   3.575   3.647  14.523 -0.8978  1.2802 -0.2266
  874TIP3    H224038   3.624   3.752  14.621 -0.5408  0.2012  0.7766
  875TIP3   OH224039   3.429   6.348  14.178  0.0640  0.1176  0.4907
  875TIP3    H124040   3.357   6.398  14.139  1.3071  0.4166 -1.5590
  875TIP3    H224041   3.397   6.258  14.180 -0.8381  0.4392  0.7828
  876TIP3   OH224042   1.432   3.279  11.831  0.2069 -0.4488  1.0508
  876TIP3    H124043   1.504   3.335  11.859  0.2547  0.3485 -0.5106
  876TIP3    H224044   1.381   3.263  11.910  0.1929  1.8314  1.5895
  877TIP3   OH224045   5.055   1.399   1.398  0.1259 -0.2567  0.4451
  877TIP3    H124046   5.027   1.428   1.485 -0.9141  0.4445 -0.1088
  877TIP3    H224047   5.118   1.466   1.370 -1.4941  0.9721 -0.3995
  878TIP3   OH224048   3.634   6.507  15.059  0.3614 -0.3294 -0.4049
  878TIP3    H124049   3.598   6.514  15.147 -0.9369  0.1505 -0.9415
  878TIP3    H224050   3.697   6.579  15.053 -1.2676  1.1306 -0.6194
  879TIP3   OH224051   4.041   4.475  15.895  0.5166  0.0924 -1.2710
  879TIP3    H124052   4.044   4.541  15.964 -1.1023 -0.4328 -0.6401
  879TIP3    H224053   3.999   4.399  15.937 -1.9932  0.2913 -3.2069
  880TIP3   OH224054   2.298   2.989   2.238  0.1276  0.5182 -0.2746
  880TIP3    H124055   2.245   3.067   2.222 -0.6475  0.2165  0.6931
  880TIP3    H224056   2.302   2.944   2.154  0.1115  1.3092 -0.7052
  881TIP3   OH224057   1.626   0.828  15.853 -0.1009  0.0094 -0.6611
  881TIP3    H124058   1.672   0.908  15.826  0.4689  0.3639  1.2005
  881TIP3    H224059   1.545   0.860  15.893 -0.5660 -0.4422 -1.2321
  882TIP3   OH224060   3.459   0.988   4.382 -0.2777  0.5594  0.6765
  882TIP3    H124061   3.372   1.019   4.411 -0.5910 -0.6306  1.0435
  882TIP3    H224062   3.514   0.996   4.460 -0.8147 -1.4751  1.3159
  883TIP3   OH224063   3.815   6.743  15.056  0.1212 -0.5032  0.1274
  883TIP3    H124064   3.865   6.815  15.018  0.6933  0.0472  1.8472
  883TIP3    H224065   3.765   6.783  15.126 -0.8485 -1.5065  0.0271
  884TIP3   OH224066   5.384   4.389   1.699  0.0346 -0.2109  0.3649
  884TIP3    H124067   5.379   4.465   1.757 -0.1589 -0.5395  0.7783
  884TIP3    H224068   5.388   4.314   1.757 -0.3656 -0.5582 -0.0454
  885TIP3   OH224069   5.981   4.922  12.369  0.5802  0.0339 -0.0182
  885TIP3    H124070   5.938   4.968  12.296  1.5042  0.3248 -0.4041
  885TIP3    H224071   5.981   4.830  12.342 -0.7690 -0.1376  0.4970
  886TIP3   OH224072   3.193   4.971  13.547 -0.4852 -0.6191  0.2121
  886TIP3    H124073   3.265   4.950  13.488 -0.0689  1.1548  0.0150
  886TIP3    H224074   3.195   5.067  13.553 -0.3506 -0.7252  3.2855
  887TIP3   OH224075   3.122   2.713  14.063  0.1149 -0.2266 -0.3368
  887TIP3    H124076   3.152   2.771  14.134  1.3519  0.0971 -1.0859
  887TIP3    H224077   3.041   2.753  14.031  0.9602  1.1248 -0.8517
  888TIP3   OH224078   0.816   2.262  15.310  0.3122  0.3737  0.1404
  888TIP3    H124079   0.911   2.278  15.308  0.3794  0.0339  0.3393
  888TIP3    H224080   0.779   2.341  15.348  0.7178 -0.2554  2.0018
  889TIP3   OH224081   5.980   5.395  16.521  0.4043  0.0876 -0.4221
  889TIP3    H124082   5.906   5.368  16.466  0.6139 -0.5110 -0.4205
  889TIP3    H224083   5.943   5.458  16.583 -0.4439 -1.3970  0.6158
  890TIP3   OH224084   3.518   2.138  13.839 -0.2965 -0.0586  0.4227
  890TIP3    H124085   3.574   2.213  13.819 -0.2937 -0.2735 -0.3868
  890TIP3    H224086   3.577   2.072  13.875  0.1864 -0.7249 -1.5265
  891TIP3   OH224087   0.973   6.308   1.392 -0.0052 -0.8410  0.0263
  891TIP3    H124088   0.896   6.360   1.414 -0.5379 -2.0773  1.2480
  891TIP3    H224089   1.032   6.319   1.466  0.1103 -1.4952  0.0445
  892TIP3   OH224090   4.774   6.253   3.361  0.5118 -0.5381  0.1506
  892TIP3    H124091   4.791   6.221   3.450  0.7713 -1.3144 -0.1683
  892TIP3    H224092   4.725   6.334   3.374  1.0811 -0.3152  1.0187
  893TIP3   OH224093   0.575   2.449   5.009  0.5319 -0.0084 -0.2900
  893TIP3    H124094   0.628   2.523   4.978  0.7410 -0.4820 -1.0978
  893TIP3    H224095   0.516   2.430   4.937  0.3381 -0.4940 -0.0044
  894TIP3   OH224096   6.146   5.396  11.640 -0.6424  0.0256 -0.5769
  894TIP3    H124097   6.159   5.339  11.716  0.9891  1.6669  0.4386
  894TIP3    H224098   6.087   5.465  11.671 -1.6460 -0.3981 -1.4547
  895TIP3   OH224099   2.548   0.047   5.721  0.1964 -0.1126 -0.5507
  895TIP3    H124100   2.561  -0.011   5.796  0.1402  0.1952 -0.3024
  895TIP3    H224101   2.611   0.118   5.734 -1.3329  1.1264  0.3879
  896TIP3   OH224102   5.455   2.225   1.895 -0.5873 -0.3766 -0.4218
  896TIP3    H124103   5.388   2.159   1.914  0.5284 -0.9814  1.7089
  896TIP3    H224104   5.534   2.174   1.878 -0.0199  0.3851 -0.0866
  897TIP3   OH224105   0.006   3.254   2.152 -0.1988  0.5863  0.0249
  897TIP3    H124106   0.089   3.212   2.177 -0.5230 -0.1425 -0.1017
  897TIP3    H224107  -0.035   3.192   2.093 -2.2007 -0.4735  2.3476
  898TIP3   OH224108   4.827   1.969   1.640 -0.3034  0.1423  0.5990
  898TIP3    H124109   4.780   2.052   1.654 -1.5525 -0.4071 -0.2060
  898TIP3    H224110   4.858   1.945   1.727 -1.6285  0.4766  1.1998
  899TIP3   OH224111   6.747   3.576   4.032  0.2221 -0.2180 -0.0217
  899TIP3    H124112   6.799   3.527   3.968  1.0431  0.6349 -0.0351
  899TIP3    H224113   6.788   3.662   4.034 -1.0217  0.3875  0.2019
  900TIP3   OH224114   5.823   5.920  16.257 -0.0726 -0.0384 -0.0853
  900TIP3    H124115   5.839   5.883  16.345 -0.8740 -0.6508 -0.1818
  900TIP3    H224116   5.784   6.006  16.274 -2.2773 -1.0302  0.2216
  901TIP3   OH224117   4.311   1.405  16.905 -0.1134  0.1969 -0.4796
  901TIP3    H124118   4.323   1.353  16.984 -1.3324 -2.1962 -1.7491
  901TIP3    H224119   4.231   1.455  16.920  2.0956  3.4610  1.5361
  902TIP3   OH224120   1.370   1.346   2.181  0.0087  0.2427 -0.3493
  902TIP3    H124121   1.381   1.253   2.202  0.2862  0.7260  1.9076
  902TIP3    H224122   1.434   1.390   2.237 -2.2401  1.9890  1.0196
  903TIP3   OH224123   4.834   4.434  13.471  0.7623 -0.0080 -0.3710
  903TIP3    H124124   4.904   4.371  13.486  0.1723 -0.3765  1.0538
  903TIP3    H224125   4.869   4.496  13.407  2.3853 -0.1681  0.3241
  904TIP3   OH224126   4.979   4.221  16.249  0.5633  0.2519 -0.2525
  904TIP3    H124127   4.941   4.170  16.320 -1.5199  1.0831 -0.6950
  904TIP3    H224128   5.055   4.265  16.288  0.5245 -0.7140  0.9422
  905TIP3   OH224129   2.400   6.035  16.553 -0.3615  0.0727 -0.0299
  905TIP3    H124130   2.346   6.086  16.493  0.5836  0.9021 -0.2060
  905TIP3    H224131   2.402   5.947  16.516 -0.2156  0.4514 -0.9454
  906TIP3   OH224132   1.744   2.501   2.644  0.4215 -0.7062 -0.6252
  906TIP3    H124133   1.703   2.435   2.699 -0.5317 -0.0820 -0.5667
  906TIP3    H224134   1.672   2.541   2.595  0.8763  0.7483 -0.1806
  907TIP3   OH224135   6.624   0.162   6.215 -0.0640  0.6426 -0.1785
  907TIP3    H124136   6.630   0.193   6.306  1.3266 -2.1204  0.7794
  907TIP3    H224137   6.582   0.076   6.221  1.3015 -0.2198 -1.9544
  908TIP3   OH224138   2.342   0.279  13.090  0.2474  0.1725  0.2811
  908TIP3    H124139   2.289   0.242  13.161 -1.3975  0.7379 -0.6068
  908TIP3    H224140   2.383   0.357  13.128 -0.1447  0.1419  0.7673
  909TIP3   OH224141   5.833   3.021  11.650 -0.0879 -0.3043 -0.1673
  909TIP3    H124142   5.847   3.023  11.745  1.9352 -0.1425 -0.4361
  909TIP3    H224143   5.839   3.113  11.623  1.6668 -0.5582 -0.7254
  910TIP3   OH224144   3.373   5.155   2.724  0.3790 -0.3657  0.2354
  910TIP3    H124145   3.393   5.186   2.812  1.5186  0.4050 -0.2713
  910TIP3    H224146   3.277   5.160   2.718  0.3092 -0.1666  1.3260
  911TIP3   OH224147   4.569   3.885  14.964  0.4873  0.0413  0.3275
  911TIP3    H124148   4.477   3.859  14.968  0.6238 -0.2918  2.9854
  911TIP3    H224149   4.616   3.803  14.948  0.4930 -0.4160  2.4117
  912TIP3   OH224150   1.236   3.437   1.006  0.5076 -0.6140  0.0995
  912TIP3    H124151   1.212   3.352   0.970  3.9102 -0.8550 -1.9884
  912TIP3    H224152   1.304   3.470   0.948 -1.8438  4.4895 -0.3231
  913TIP3   OH224153   2.907   1.830   0.585  0.2790  0.5502 -0.3684
  913TIP3    H124154   2.850   1.812   0.660  1.0422  0.0788  0.1275
  913TIP3    H224155   2.960   1.905   0.614  1.4730 -0.4356  0.1136
  914TIP3   OH224156   0.136   1.366   6.133  0.2713  0.1231 -0.5012
  914TIP3    H124157   0.043   1.367   6.155 -0.4551 -3.5089 -2.5346
  914TIP3    H224158   0.150   1.445   6.081 -1.1076  1.7516  1.4518
  915TIP3   OH224159   2.866   4.741   4.615 -0.4362  0.1914  0.3942
  915TIP3    H124160   2.929   4.801   4.655  0.7922 -0.6128 -0.2604
  915TIP3    H224161   2.912   4.705   4.539 -0.3475 -2.9935  1.8030
  916TIP3   OH224162   6.631   0.162  13.402  0.2478 -0.2018  0.0106
  916TIP3    H124163   6.576   0.172  13.479  0.8172  0.0122  0.3959
  916TIP3    H224164   6.644   0.251  13.370 -0.5764 -0.3467 -0.7590
  917TIP3   OH224165   1.274   1.214   5.091  0.7119  0.1285 -0.6031
  917TIP3    H124166   1.199   1.166   5.057  0.3527  1.1685 -1.3229
  917TIP3    H224167   1.242   1.257   5.170  0.5825  0.4339 -0.8174
  918TIP3   OH224168   3.652   6.547   1.602  0.3631  0.2248 -0.6397
  918TIP3    H124169   3.659   6.593   1.519 -1.6030 -3.0137 -2.8610
  918TIP3    H224170   3.739   6.512   1.618  0.6360  0.3891 -1.7074
  919TIP3   OH224171   2.023   4.299  16.609 -0.3604  0.1273 -0.5184
  919TIP3    H124172   2.071   4.339  16.537 -0.0091 -3.3342 -2.4196
  919TIP3    H224173   1.975   4.227  16.569 -1.6031 -0.8774  2.4724
  920TIP3   OH224174   2.595   0.131   6.033 -0.7248 -0.1112 -0.4347
  920TIP3    H124175   2.664   0.135   5.966 -0.6908 -4.0536 -0.8473
  920TIP3    H224176   2.593   0.039   6.060 -2.7805  0.7421  2.9012
  921TIP3   OH224177   5.330   3.655   5.604 -0.2389 -0.5169  0.5711
  921TIP3    H124178   5.361   3.579   5.554  1.1834  1.1065 -1.1598
  921TIP3    H224179   5.411   3.698   5.633 -0.9753 -1.3152  4.3595
  922TIP3   OH224180   6.026   4.328   2.515 -0.6962 -0.3645 -0.4912
  922TIP3    H124181   6.112   4.365   2.492  0.8997 -3.3403  0.2354
  922TIP3    H224182   6.014   4.351   2.607  0.0982 -1.2847 -0.1495
  923TIP3   OH224183   5.165   3.026  13.183 -0.4190 -0.5546  0.1290
  923TIP3    H124184   5.200   3.094  13.125 -0.8617  1.2071  1.8309
  923TIP3    H224185   5.075   3.054  13.201 -0.3481 -1.1400  1.5117
  924TIP3   OH224186   6.634   6.168  12.835  0.0092  0.3231 -0.2645
  924TIP3    H124187   6.638   6.133  12.924  1.5161 -1.2469 -0.8879
  924TIP3    H224188   6.627   6.263  12.846 -0.7079  0.1048  1.5029
  925TIP3   OH224189   1.154   2.256   1.496  0.1176 -0.3670  0.0981
  925TIP3    H124190   1.059   2.261   1.507  0.2769  2.9979  1.0401
  925TIP3    H224191   1.176   2.331   1.441  2.4005  0.2054  1.6405
  926TIP3   OH224192   1.893   2.305   3.231 -0.3751  0.0266 -0.1516
  926TIP3    H124193   1.880   2.396   3.205 -1.4549 -0.1073 -0.1189
  926TIP3    H224194   1.814   2.260   3.202  0.2122 -0.9347 -0.2965
  927TIP3   OH224195   2.803   6.319  17.157 -0.1183 -0.2506 -0.9071
  927TIP3    H124196   2.806   6.380  17.083  2.5397 -0.4651 -1.0660
  927TIP3    H224197   2.877   6.261  17.143 -0.1607 -0.9524  1.3912
  928TIP3   OH224198   6.739   4.802  13.305 -0.0143  0.0685  0.1081
  928TIP3    H124199   6.789   4.798  13.387 -0.2286 -1.8784  0.1861
  928TIP3    H224200   6.656   4.759  13.325  0.0846 -0.8098 -1.1969
  929TIP3   OH224201   6.340   0.151  11.787 -0.3474  0.0582  0.2649
  929TIP3    H124202   6.310   0.073  11.833 -1.0169 -0.3392 -0.7989
  929TIP3    H224203   6.341   0.220  11.853 -0.5386 -0.6593  1.0287
  930TIP3   OH224204   3.662   3.012   1.593 -0.2826  0.0982 -0.2981
  930TIP3    H124205   3.728   3.038   1.658  0.1246 -0.1933 -0.5930
  930TIP3    H224206   3.579   3.020   1.639  0.0437 -0.6547  0.4436
  931TIP3   OH224207   3.031   3.257  11.580 -0.6244 -0.3973 -0.2480
  931TIP3    H124208   3.057   3.264  11.488  0.2004  0.0131  0.0019
  931TIP3    H224209   3.088   3.319  11.625 -1.1427 -0.4693  0.5190
  932TIP3   OH224210   2.051   4.501   0.424 -0.4006  0.1190  0.3950
  932TIP3    H124211   2.029   4.472   0.335  0.7009 -2.5378  0.9112
  932TIP3    H224212   2.120   4.566   0.411 -2.6008  2.4614 -0.7695
  933TIP3   OH224213   0.640   2.697   6.845  0.5358 -0.4930 -0.0361
  933TIP3    H124214   0.650   2.607   6.812  2.4468 -0.0290 -0.8308
  933TIP3    H224215   0.566   2.731   6.794  0.1753 -1.4117 -0.1665
  934TIP3   OH224216   1.569   4.619   5.642 -0.0561 -0.1153 -0.0850
  934TIP3    H124217   1.504   4.632   5.573 -0.5376 -0.2740  0.3339
  934TIP3    H224218   1.595   4.707   5.668 -0.5276 -0.0398  0.1408
  935TIP3   OH224219   3.945   6.227  12.151 -0.0352 -0.5556  0.3386
  935TIP3    H124220   3.920   6.318  12.167 -0.5828 -0.7354  0.5348
  935TIP3    H224221   3.887   6.176  12.207 -0.6002 -1.0944 -0.7083
  936TIP3   OH224222   2.890   0.174  12.459 -0.4003  0.2907  0.8123
  936TIP3    H124223   2.858   0.204  12.374 -0.6085 -2.3979 -0.1483
  936TIP3    H224224   2.812   0.175  12.515 -0.6720  0.2957  0.4372
  937TIP3   OH224225   0.350   2.552   5.429 -0.3057  0.1223  0.0669
  937TIP3    H124226   0.354   2.456   5.433 -1.7049  0.0692  0.5802
  937TIP3    H224227   0.306   2.578   5.510 -0.5009  1.1518 -0.3548
  938TIP3   OH224228   1.767   5.776  16.561 -0.8074  0.0272  0.0498
  938TIP3    H124229   1.828   5.720  16.514  0.8899  0.7176  1.3236
  938TIP3    H224230   1.686   5.772  16.510  0.6829  0.1662 -2.4925
  939TIP3   OH224231   3.420   3.092  15.373  0.1848  0.6156 -0.2958
  939TIP3    H124232   3.466   3.108  15.455  1.7110  1.0187 -1.2002
  939TIP3    H224233   3.370   3.172  15.357  0.2228  0.7021  0.0179
  940TIP3   OH224234   2.553   0.438  14.154 -0.0850  0.1996 -0.1195
  940TIP3    H124235   2.560   0.418  14.247 -0.1990 -2.0342 -0.5385
  940TIP3    H224236   2.641   0.469  14.130 -0.1019  0.9576  0.7422
  941TIP3   OH224237   5.992   4.942  16.818 -0.5931 -0.0405  0.4061
  941TIP3    H124238   6.022   5.033  16.818 -0.6554 -0.0192 -0.0104
  941TIP3    H224239   5.944   4.932  16.736 -0.2728 -0.5487  0.2698
  942TIP3   OH224240   3.711   0.270  14.211 -0.2184  0.0258  0.3252
  942TIP3    H124241   3.642   0.284  14.277 -0.7116  1.7208 -0.4864
  942TIP3    H224242   3.671   0.212  14.147 -0.4223 -0.0798  0.5454
  943TIP3   OH224243   0.108   2.959   2.984 -0.3086  0.0919  0.6130
  943TIP3    H124244   0.055   2.973   3.063  1.0545 -0.6558  1.7181
  943TIP3    H224245   0.188   3.009   3.000  0.1217 -0.3379 -0.1444
  944TIP3   OH224246   6.131   3.635   4.935 -0.1948  0.0635 -0.1566
  944TIP3    H124247   6.089   3.631   4.849  0.0844  0.3308 -0.3069
  944TIP3    H224248   6.223   3.614   4.918 -0.6183 -2.7815  0.4717
  945TIP3   OH224249   5.818   1.528  11.678  0.1229 -0.0541 -0.1760
  945TIP3    H124250   5.814   1.581  11.598 -2.5685  0.5256  0.2485
  945TIP3    H224251   5.742   1.470  11.672  1.7209 -2.3288  0.4695
  946TIP3   OH224252   0.776   3.082   0.531  0.1736  0.1101  0.3847
  946TIP3    H124253   0.779   3.031   0.450  1.2061  1.2807 -0.3548
  946TIP3    H224254   0.707   3.042   0.582 -0.8852 -0.3281 -1.3163
  947TIP3   OH224255   0.631   1.936   3.125 -0.2926  0.6133 -0.1862
  947TIP3    H124256   0.701   1.872   3.118 -1.6712 -1.0913  0.7692
  947TIP3    H224257   0.662   2.000   3.189  0.0866 -0.5753  0.8463
  948TIP3   OH224258   6.032   1.637  11.397  0.0224 -0.0373  0.0295
  948TIP3    H124259   6.045   1.728  11.372  2.2715 -0.7727 -1.7819
  948TIP3    H224260   6.093   1.587  11.343 -0.9949 -2.6365  1.0740
  949TIP3   OH224261   5.274   4.041   0.288  0.2916 -0.3427  0.8938
  949TIP3    H124262   5.279   4.032   0.383 -1.3090  1.0394  1.1553
  949TIP3    H224263   5.187   4.007   0.265  0.8321 -1.0641 -0.1320
  950TIP3   OH224264   0.393   6.501   2.142  0.4441 -0.1527  0.2226
  950TIP3    H124265   0.479   6.525   2.108  1.2631 -1.8814  0.9649
  950TIP3    H224266   0.409   6.425   2.198 -1.8672 -2.1680 -1.6126
  951TIP3   OH224267   3.360   3.393   3.273  0.2077 -0.1498 -0.0174
  951TIP3    H124268   3.304   3.322   3.304 -0.8463  0.7154  0.1053
  951TIP3    H224269   3.391   3.436   3.353  1.1434 -0.6574 -0.0788
  952TIP3   OH224270   4.515   0.880  16.241 -0.3934 -0.5829 -0.2043
  952TIP3    H124271   4.474   0.965  16.257  2.0892  1.1181 -2.0359
  952TIP3    H224272   4.464   0.841  16.170 -1.3530 -0.5272  0.4327
  953TIP3   OH224273   6.505   0.569   2.838 -0.0146 -0.0502  0.2379
  953TIP3    H124274   6.528   0.478   2.821  0.7837  0.3153 -0.7318
  953TIP3    H224275   6.589   0.615   2.844 -0.3796  0.5026  1.4967
  954TIP3   OH224276   4.133   0.665  12.471  0.3272  0.3390 -0.8637
  954TIP3    H124277   4.072   0.682  12.400  0.2516 -0.2775 -0.9467
  954TIP3    H224278   4.087   0.606  12.530  0.8653 -0.2098 -0.9764
  955TIP3   OH224279   2.105   2.714   4.973  0.8566  0.4089  0.2315
  955TIP3    H124280   2.011   2.730   4.985  0.8147 -0.5569  1.4303
  955TIP3    H224281   2.132   2.670   5.054  2.1206 -0.2643 -0.5269
  956TIP3   OH224282   1.310   6.479   0.537  0.0531 -0.7320 -0.2977
  956TIP3    H124283   1.245   6.535   0.579  1.6147  0.1831  1.0350
  956TIP3    H224284   1.379   6.539   0.508  0.5448 -1.7097 -1.2632
  957TIP3   OH224285   4.370   4.710  14.180  0.0956  0.3341  0.4664
  957TIP3    H124286   4.395   4.634  14.128  1.4169  1.5806 -0.7807
  957TIP3    H224287   4.296   4.679  14.233 -3.0243 -0.4524 -3.8151
  958TIP3   OH224288   4.312   1.524  11.348  0.1185 -0.0499 -0.1637
  958TIP3    H124289   4.392   1.473  11.355 -0.9256 -1.8476 -0.6034
  958TIP3    H224290   4.306   1.547  11.255  0.2064  0.2330 -0.1003
  959TIP3   OH224291   5.165   3.117   4.464 -0.1126  0.3026 -0.4480
  959TIP3    H124292   5.076   3.113   4.500 -0.7684 -2.1723 -2.0525
  959TIP3    H224293   5.219   3.072   4.528  0.0789  1.9944  0.6329
  960TIP3   OH224294   0.382   1.419   6.243 -0.5705  0.0342 -0.1329
  960TIP3    H124295   0.292   1.393   6.224 -0.1347 -0.3939 -1.7359
  960TIP3    H224296   0.424   1.338   6.271 -0.6226  0.1952  0.4247
  961TIP3   OH224297   5.316   0.249   2.680  0.2488  0.0029  0.2331
  961TIP3    H124298   5.270   0.215   2.603 -2.4474  1.3914  1.1333
  961TIP3    H224299   5.297   0.343   2.681  1.7924  0.3521  1.5929
  962TIP3   OH224300   3.242   0.536  16.715 -0.0840  0.4511  0.0122
  962TIP3    H124301   3.301   0.585  16.658 -1.1019 -0.8968 -2.3695
  962TIP3    H224302   3.191   0.481  16.655  0.7421 -3.2938  2.3666
  963TIP3   OH224303   6.413   1.846   0.117 -0.2731 -0.1403 -0.0328
  963TIP3    H124304   6.391   1.833   0.025  0.9545  0.9103 -0.5040
  963TIP3    H224305   6.508   1.845   0.119 -0.2675  0.7394  1.0883
  964TIP3   OH224306   5.018   0.783   4.356  0.2076 -0.2632  0.0847
  964TIP3    H124307   4.951   0.714   4.360 -0.8386  0.5538 -1.9118
  964TIP3    H224308   4.968   0.864   4.352  1.3964  0.5163  0.6905
  965TIP3   OH224309   4.863   1.161   1.521 -0.5927 -0.1856  0.1117
  965TIP3    H124310   4.872   1.234   1.582 -0.1059 -0.0562 -0.1155
  965TIP3    H224311   4.783   1.182   1.472 -0.4148  0.2352 -0.0055
  966TIP3   OH224312   6.489   0.235  12.086 -0.2593 -0.1460 -0.0654
  966TIP3    H124313   6.419   0.175  12.111  1.0659 -2.5797 -1.8023
  966TIP3    H224314   6.450   0.293  12.020 -0.5715 -1.7939 -1.3796
  967TIP3   OH224315   6.617   1.312   6.174 -0.1897 -0.2815  0.1951
  967TIP3    H124316   6.595   1.220   6.191 -2.8358  0.0209 -0.9996
  967TIP3    H224317   6.545   1.343   6.119  1.6028  2.0348 -0.9765
  968TIP3   OH224318   4.605   2.125  15.736  0.1214  0.1264  0.4387
  968TIP3    H124319   4.545   2.178  15.684  0.8550  0.6916  0.1490
  968TIP3    H224320   4.548   2.074  15.794 -0.6331  0.6099  0.1400
  969TIP3   OH224321   2.825   1.147  12.574 -0.4007  0.4953 -0.0316
  969TIP3    H124322   2.782   1.071  12.533  2.0392 -1.3176  0.5228
  969TIP3    H224323   2.841   1.119  12.664 -0.5045  2.1887  0.5388
  970TIP3   OH224324   3.829   0.328  12.260  0.1915 -0.5643  0.4357
  970TIP3    H124325   3.763   0.396  12.247 -1.6091 -2.4463 -0.9864
  970TIP3    H224326   3.831   0.313  12.354 -0.2822  0.5839  0.6345
  971TIP3   OH224327   6.089   4.351   3.826  0.3442 -0.0352  0.4510
  971TIP3    H124328   6.116   4.287   3.893  0.6577 -1.4810 -0.9753
  971TIP3    H224329   6.153   4.338   3.755 -1.2305 -0.0940 -1.0124
  972TIP3   OH224330   2.696   1.738  13.968 -0.1634  0.0112  0.1223
  972TIP3    H124331   2.629   1.730  13.901  0.6612 -0.8078 -0.6171
  972TIP3    H224332   2.737   1.823  13.950 -0.2045 -0.0283 -0.1627
  973TIP3   OH224333   6.529   2.294  14.159  0.1427  0.1523 -0.6735
  973TIP3    H124334   6.526   2.327  14.248 -0.8757 -1.6439  0.0087
  973TIP3    H224335   6.451   2.331  14.117  0.8611  1.3668 -1.0120
  974TIP3   OH224336   2.349   1.646   1.481 -0.8940  0.0218  0.5899
  974TIP3    H124337   2.348   1.576   1.416  0.9724  0.7211 -0.2543
  974TIP3    H224338   2.263   1.641   1.523 -1.5617 -1.4423 -0.8517
  975TIP3   OH224339   0.725   2.814   4.361  0.3008 -0.0101 -0.1059
  975TIP3    H124340   0.787   2.878   4.325 -0.9283  2.2263  1.4972
  975TIP3    H224341   0.639   2.848   4.338 -0.4027 -1.1443  0.7250
  976TIP3   OH224342   5.266   6.147  13.058  0.0349 -0.4129  0.7545
  976TIP3    H124343   5.214   6.134  12.979 -0.1178 -1.0113  0.9470
  976TIP3    H224344   5.348   6.102  13.040  0.4340  0.3911  0.5149
  977TIP3   OH224345   0.966   5.886   0.762  0.1708  0.3182  0.8593
  977TIP3    H124346   1.010   5.870   0.845 -1.5880  0.8276  1.9306
  977TIP3    H224347   0.896   5.947   0.783 -0.6257  0.0663 -0.9097
  978TIP3   OH224348   1.476   6.537  14.660 -0.0787  0.0784 -0.1182
  978TIP3    H124349   1.515   6.555  14.575  0.2903 -0.3841 -0.0494
  978TIP3    H224350   1.518   6.599  14.720 -0.7549  0.7974 -0.3710
  979TIP3   OH224351   3.986   1.552   0.574 -0.0832  0.0291 -0.1204
  979TIP3    H124352   3.967   1.599   0.655 -0.5539  1.7548 -1.1640
  979TIP3    H224353   3.964   1.461   0.593 -0.5084  0.4515  1.5711
  980TIP3   OH224354   1.185   0.828   1.891 -0.6455 -0.2410  0.6363
  980TIP3    H124355   1.144   0.773   1.825 -0.0499 -1.5338  1.3028
  980TIP3    H224356   1.176   0.917   1.857 -2.2814 -0.6592 -0.1274
  981TIP3   OH224357   6.361   2.095   3.475 -0.3643  0.1180  0.3836
  981TIP3    H124358   6.345   2.034   3.404  0.7507  0.3888 -0.1272
  981TIP3    H224359   6.429   2.054   3.528 -0.8148  0.1556  1.0021
  982TIP3   OH224360   5.653   6.736  16.467 -0.4083 -0.4237 -0.3630
  982TIP3    H124361   5.725   6.798  16.454 -1.4510  0.7933 -0.6151
  982TIP3    H224362   5.693   6.650  16.459  0.7650  0.2128 -2.0293
  983TIP3   OH224363   0.588   4.325  17.101  0.6663 -0.3958 -0.5914
  983TIP3    H124364   0.495   4.304  17.112  0.8549 -0.8709  0.1855
  983TIP3    H224365   0.602   4.325  17.007 -0.2503  0.2630 -0.7425
  984TIP3   OH224366   1.271   3.801  13.543 -0.2505 -0.1301  0.1756
  984TIP3    H124367   1.238   3.853  13.469 -1.3599 -1.4470 -0.3077
  984TIP3    H224368   1.268   3.711  13.511  1.5967 -0.5198  0.9950
  985TIP3   OH224369   1.550   3.607   3.435  0.6857  0.4923 -0.1139
  985TIP3    H124370   1.481   3.634   3.496  1.3352  0.2624  0.7448
  985TIP3    H224371   1.529   3.517   3.413  0.2528  0.6875 -0.5230
  986TIP3   OH224372   0.803   2.350   1.773  0.3110 -0.4528  0.0988
  986TIP3    H124373   0.724   2.310   1.737 -0.9025  2.1582 -0.3811
  986TIP3    H224374   0.873   2.323   1.715 -0.7353 -0.5257 -1.1702
  987TIP3   OH224375   1.800   5.806   4.649  0.2006  0.5059  0.6016
  987TIP3    H124376   1.721   5.752   4.645  0.0035  0.8333 -2.2609
  987TIP3    H224377   1.768   5.896   4.641  0.8150  0.5755 -2.1534
  988TIP3   OH224378   6.335   5.492  16.177 -0.2182 -0.3412 -0.1567
  988TIP3    H124379   6.407   5.549  16.204  0.7243 -1.3204 -0.5204
  988TIP3    H224380   6.270   5.502  16.247  1.0517 -0.8053  1.1555
  989TIP3   OH224381   3.100   4.343   0.079 -0.3158 -0.1392 -0.2035
  989TIP3    H124382   3.110   4.248   0.066 -1.0505 -0.2509  0.0200
  989TIP3    H224383   3.155   4.382   0.012 -1.0949 -0.7297 -1.2158
  990TIP3   OH224384   4.530   3.625   3.961 -0.2848 -0.0733  0.0390
  990TIP3    H124385   4.523   3.540   3.918  1.4261  1.0520 -2.6740
  990TIP3    H224386   4.623   3.634   3.981 -0.3296  1.4285 -0.3509
  991TIP3   OH224387   2.471   5.855   1.330 -0.1938 -0.1205  0.1232
  991TIP3    H124388   2.457   5.841   1.424  0.5633 -0.5773  0.1744
  991TIP3    H224389   2.566   5.856   1.320 -0.2348  2.0490 -0.3347
  992TIP3   OH224390   1.244   1.560  13.282 -0.3051  0.0211 -0.3046
  992TIP3    H124391   1.331   1.539  13.316 -0.7458 -0.2976  0.6899
  992TIP3    H224392   1.224   1.646  13.317 -0.6636 -0.2017  0.0550
  993TIP3   OH224393   0.191   1.486   4.336 -0.7394  0.0719  0.2552
  993TIP3    H124394   0.159   1.498   4.425 -0.4239  0.4596  0.3183
  993TIP3    H224395   0.126   1.429   4.295 -0.2077 -1.1937  1.1128
  994TIP3   OH224396   6.502   6.614   4.096 -0.3452 -0.2415  0.2761
  994TIP3    H124397   6.444   6.650   4.029  1.1173  0.5722 -0.6212
  994TIP3    H224398   6.444   6.584   4.165 -1.7976  1.2293 -0.2397
  995TIP3   OH224399   1.312   5.517  11.736  0.5009 -0.1706  0.2359
  995TIP3    H124400   1.287   5.573  11.662  1.6424 -1.3407 -1.1291
  995TIP3    H224401   1.395   5.555  11.767 -0.5123  0.9504  1.6622
  996TIP3   OH224402   3.071   6.681  16.704 -0.2678  0.1370  0.4889
  996TIP3    H124403   3.014   6.734  16.648 -0.6747  0.0141  0.7812
  996TIP3    H224404   3.029   6.595  16.706  1.2843 -0.7306 -1.3609
  997TIP3   OH224405   1.074   5.491  14.685  0.0102  0.1516  0.5633
  997TIP3    H124406   1.032   5.417  14.640  1.3782 -0.3443  0.0487
  997TIP3    H224407   1.068   5.468  14.778  0.2111 -0.5146  0.4227
  998TIP3   OH224408   4.366   3.057  17.272 -0.5870 -0.9587 -0.2333
  998TIP3    H124409   4.437   3.041  17.334  0.6026  2.8119 -0.3539
  998TIP3    H224410   4.303   3.109  17.321 -1.6280 -1.3538 -1.1135
  999TIP3   OH224411   4.447   1.126  17.044  0.1102 -0.3243 -0.5756
  999TIP3    H124412   4.541   1.137  17.032  0.0257  0.8715 -0.3037
  999TIP3    H224413   4.409   1.146  16.958 -0.0052  1.1029 -0.2214
 1000TIP3   OH224414   6.644   0.672   5.693 -0.2354  0.1657  0.2269
 1000TIP3    H124415   6.692   0.595   5.664  0.6248  0.9451 -0.4850
 1000TIP3    H224416   6.686   0.746   5.648 -1.7729  0.9468 -0.0359
 1001TIP3   OH224417   4.946   2.697   1.345  0.1621 -0.2924  0.1288
 1001TIP3    H124418   4.941   2.793   1.343  0.1557 -0.2935  0.0639
 1001TIP3    H224419   5.032   2.678   1.307 -0.8559 -0.3978 -2.2968
 1002TIP3   OH224420   5.378   5.852   1.482  0.1100 -0.4169  0.6715
 1002TIP3    H124421   5.460   5.896   1.458  0.5103 -2.0027 -1.0813
 1002TIP3    H224422   5.321   5.865   1.407 -0.2421 -1.6893  0.6947
 1003TIP3   OH224423   5.568   1.759   6.024  0.0023  0.4938 -0.1118
 1003TIP3    H124424   5.630   1.716   5.965  0.6915  0.0853  0.8785
 1003TIP3    H224425   5.486   1.712   6.011  0.4172 -0.2841  0.0099
 1004TIP3   OH224426   0.742   3.566   3.909 -0.0785 -0.8656 -0.5812
 1004TIP3    H124427   0.783   3.481   3.897  0.3742 -0.6465 -0.6176
 1004TIP3    H224428   0.815   3.628   3.914 -0.3712 -0.5709  0.2387
 1005TIP3   OH224429   4.326   2.789  14.440  0.3699  0.0078 -0.6624
 1005TIP3    H124430   4.231   2.799  14.441  0.5359  2.3399  1.1275
 1005TIP3    H224431   4.343   2.711  14.492 -0.5482  0.4210  0.2991
 1006TIP3   OH224432   1.276   6.467   2.530  1.0167 -0.1013 -0.4119
 1006TIP3    H124433   1.307   6.558   2.534  0.6616 -0.0222  1.0425
 1006TIP3    H224434   1.203   6.464   2.592  1.1270 -1.4270 -0.3181
 1007TIP3   OH224435   6.596   5.172   0.114  0.1756  0.0396  0.1372
 1007TIP3    H124436   6.600   5.109   0.042  0.1854 -0.9503  0.9810
 1007TIP3    H224437   6.516   5.222   0.099  0.3197  0.0270 -0.7042
 1008TIP3   OH224438   1.486   5.513  14.449 -0.5830 -0.3591 -0.1084
 1008TIP3    H124439   1.426   5.440  14.434  0.1695 -0.8876 -0.6531
 1008TIP3    H224440   1.504   5.548  14.362  3.0622 -2.8374 -0.6017
 1009TIP3   OH224441   6.212   6.099   2.317  0.0774 -0.9122  0.2065
 1009TIP3    H124442   6.263   6.027   2.281  0.2534 -0.2861 -0.8592
 1009TIP3    H224443   6.277   6.164   2.343 -0.1072  0.5707 -2.6264
 1010TIP3   OH224444   4.025   5.812  13.342  0.7988 -0.7817  0.2783
 1010TIP3    H124445   4.046   5.795  13.250  3.8755  0.7532  0.5733
 1010TIP3    H224446   4.028   5.725  13.383  0.3808 -1.3643 -0.8749
 1011TIP3   OH224447   2.015   5.137  14.969 -0.9720 -0.2346 -0.1472
 1011TIP3    H124448   1.955   5.110  15.039 -0.9134 -1.1182 -0.4286
 1011TIP3    H224449   1.960   5.186  14.908 -1.8502 -2.5366 -1.3195
 1012TIP3   OH224450   5.123   3.681  15.860 -0.2264 -0.4817  0.1608
 1012TIP3    H124451   5.090   3.753  15.807  0.3749  0.1345  0.6060
 1012TIP3    H224452   5.068   3.682  15.938  0.6692  0.4040  0.8018
 1013TIP3   OH224453   5.916   4.362  11.352  0.2213 -0.4431  0.2172
 1013TIP3    H124454   5.925   4.306  11.274  0.7631  0.3401 -0.2959
 1013TIP3    H224455   6.003   4.361  11.391  0.8172  1.6613 -0.9353
 1014TIP3   OH224456   1.734   2.713   1.659  0.0655  0.0409  0.3138
 1014TIP3    H124457   1.786   2.641   1.622  2.1585  1.6853 -0.1305
 1014TIP3    H224458   1.679   2.743   1.586 -0.9178 -1.1258  0.5368
 1015TIP3   OH224459   1.303   2.524  11.168  0.6617 -0.2988  0.2378
 1015TIP3    H124460   1.243   2.599  11.171  0.6674 -0.2101 -1.3336
 1015TIP3    H224461   1.251   2.453  11.130  0.7324 -1.0475  1.4745
 1016TIP3   OH224462   2.579   2.762  16.783 -0.2029  0.3253 -0.2431
 1016TIP3    H124463   2.528   2.821  16.728 -0.1252  0.1948 -0.4560
 1016TIP3    H224464   2.656   2.813  16.808 -0.9914  0.9310  1.0370
 1017TIP3   OH224465   4.522   0.956   4.121 -0.2254  0.4742  0.1949
 1017TIP3    H124466   4.493   0.908   4.198 -1.6226 -0.6986 -1.0011
 1017TIP3    H224467   4.544   0.888   4.057 -1.8784  1.3348 -1.4038
 1018TIP3   OH224468   2.704   1.134   4.958  0.2736 -0.1665  0.3587
 1018TIP3    H124469   2.785   1.102   4.999 -0.6812 -2.7171  0.4287
 1018TIP3    H224470   2.651   1.165   5.031  0.6703  0.3566  0.4364
 1019TIP3   OH224471   3.694   4.657   6.093  0.1938  0.1197  0.2611
 1019TIP3    H124472   3.734   4.613   6.168  0.6738  0.2834  0.1040
 1019TIP3    H224473   3.645   4.730   6.132  1.9401  1.3274  0.3032
 1020TIP3   OH224474   0.683   6.616  13.239 -0.6312 -0.5336  0.0319
 1020TIP3    H124475   0.601   6.655  13.209 -1.0560 -1.6424 -0.3367
 1020TIP3    H224476   0.700   6.545  13.176  1.4700  0.6633 -0.8275
 1021TIP3   OH224477   1.039   0.705   0.438  0.2653 -0.4046  0.0135
 1021TIP3    H124478   1.068   0.780   0.489 -1.6370 -0.5734  1.4362
 1021TIP3    H224479   1.116   0.681   0.386  0.6528  3.1910 -1.3862
 1022TIP3   OH224480   3.622   2.448   1.250  0.1690 -0.2888  0.1782
 1022TIP3    H124481   3.686   2.406   1.308  0.7421  1.6161  1.0071
 1022TIP3    H224482   3.549   2.471   1.308  0.0584  0.2315 -0.1642
 1023TIP3   OH224483   5.169   4.232   1.199 -0.0273 -0.1756 -0.1889
 1023TIP3    H124484   5.144   4.320   1.172  0.1691 -0.3567 -1.0013
 1023TIP3    H224485   5.251   4.215   1.153  1.0923  0.0332  1.6630
 1024TIP3   OH224486   0.911   6.475  12.959  0.0819  0.1116 -0.5064
 1024TIP3    H124487   0.931   6.569  12.953 -1.0241  0.3132 -1.5485
 1024TIP3    H224488   0.953   6.437  12.882  0.4015 -0.2294 -0.1656
 1025TIP3   OH224489   1.685   4.282   5.289  0.4979 -0.0506  0.2294
 1025TIP3    H124490   1.764   4.336   5.296  0.8104 -0.1344 -1.8267
 1025TIP3    H224491   1.632   4.306   5.365  1.8811  1.0459  0.8941
 1026TIP3   OH224492   0.205   1.331   1.079  0.1517 -0.4154  0.4734
 1026TIP3    H124493   0.231   1.387   1.007  0.4224 -0.5896  0.4320
 1026TIP3    H224494   0.152   1.262   1.039 -0.8485  0.2398  0.6319
 1027TIP3   OH224495   5.787   5.126   5.573 -0.2522 -0.2266  0.3422
 1027TIP3    H124496   5.880   5.122   5.550 -0.8573  0.1896 -2.6065
 1027TIP3    H224497   5.767   5.040   5.610  1.1676 -0.4928  0.5416
 1028TIP3   OH224498   4.892   5.916  12.652 -0.0061 -0.1459 -0.0442
 1028TIP3    H124499   4.941   5.998  12.648  0.6246 -0.5331 -0.3282
 1028TIP3    H224500   4.820   5.934  12.713  0.3120  0.5147  0.1444
 1029TIP3   OH224501   5.855   6.096  14.903  0.3458  0.0884  0.1586
 1029TIP3    H124502   5.767   6.132  14.908 -0.2466 -1.3526  0.6308
 1029TIP3    H224503   5.888   6.125  14.818 -0.8072  0.1760 -0.2735
 1030TIP3   OH224504   6.135   3.149   0.981 -0.1024  0.0953 -0.2356
 1030TIP3    H124505   6.224   3.173   1.007  1.2918 -2.3299 -2.3844
 1030TIP3    H224506   6.112   3.077   1.040 -0.3252  0.1659 -0.2351
 1031TIP3   OH224507   0.014   2.440   3.048  0.3470  0.1217  0.8551
 1031TIP3    H124508  -0.014   2.532   3.055  2.2775  0.7662  0.5113
 1031TIP3    H224509   0.102   2.439   3.084  1.2053 -1.1788 -1.1312
 1032TIP3   OH224510   2.912   2.606  12.665 -0.0479 -0.8110 -0.1379
 1032TIP3    H124511   2.938   2.524  12.707 -0.8924 -0.2116  1.6163
 1032TIP3    H224512   2.831   2.585  12.619 -0.6944 -0.7915  0.9673
 1033TIP3   OH224513   0.908   5.368  11.202 -0.5222 -0.6292  0.6491
 1033TIP3    H124514   0.832   5.385  11.146 -0.7240 -3.2350  0.0160
 1033TIP3    H224515   0.877   5.388  11.290 -1.0337  1.0261  0.1270
 1034TIP3   OH224516   4.953   4.089  11.085  0.1137 -0.1967  0.0603
 1034TIP3    H124517   4.932   4.127  10.999  0.8887  1.1290  0.4160
 1034TIP3    H224518   5.046   4.067  11.079 -0.1348 -1.3018  0.1492
 1035TIP3   OH224519   3.159   3.291   5.328  0.0854  0.0296  0.2926
 1035TIP3    H124520   3.077   3.247   5.307 -0.3566  0.2569  1.4489
 1035TIP3    H224521   3.216   3.272   5.253 -0.8904 -0.4329 -0.3661
 1036TIP3   OH224522   2.516   6.348  15.268 -0.8235 -0.1766  0.1711
 1036TIP3    H124523   2.519   6.296  15.188 -1.4980 -0.5580  0.3838
 1036TIP3    H224524   2.495   6.437  15.239  0.7948  0.0976 -0.2374
 1037TIP3   OH224525   4.385   1.911  15.431 -0.3951 -0.4181 -0.4990
 1037TIP3    H124526   4.304   1.920  15.380 -1.2515 -1.6203  0.5747
 1037TIP3    H224527   4.438   1.986  15.405 -1.4556 -0.1186 -1.9453
 1038TIP3   OH224528   1.667   1.684  10.400 -0.0609  0.3003  0.0250
 1038TIP3    H124529   1.762   1.678  10.406  0.1166  2.1382 -0.4685
 1038TIP3    H224530   1.640   1.719  10.485 -0.0432  2.0368 -0.6625
 1039TIP3   OH224531   6.561   3.300   0.356 -0.1369  0.3271  0.8012
 1039TIP3    H124532   6.570   3.287   0.262  2.0153  0.6928  0.8974
 1039TIP3    H224533   6.479   3.256   0.379 -1.9583  2.2365 -1.5604
 1040TIP3   OH224534   5.794   2.544   0.174 -0.0517  0.2851  0.3785
 1040TIP3    H124535   5.742   2.489   0.116 -1.0769  0.7278  0.8536
 1040TIP3    H224536   5.871   2.567   0.122 -0.8816  0.5717 -0.7638
 1041TIP3   OH224537   1.835   1.531   1.729 -0.0546 -1.0681  0.3170
 1041TIP3    H124538   1.810   1.528   1.636  0.4207  0.6844  0.0976
 1041TIP3    H224539   1.752   1.541   1.776 -0.2176 -0.9440  0.0062
 1042TIP3   OH224540   6.166   1.328  12.169  0.0315 -0.2468  0.1014
 1042TIP3    H124541   6.203   1.266  12.107  1.4134  0.3233  0.3225
 1042TIP3    H224542   6.216   1.409  12.155 -0.7858  0.4013  0.7885
 1043TIP3   OH224543   2.446   3.163   5.203  0.1129  0.3483 -0.1690
 1043TIP3    H124544   2.426   3.076   5.168  0.2311  0.0830  0.4148
 1043TIP3    H224545   2.372   3.184   5.260 -1.1989  1.7455 -2.2623
 1044TIP3   OH224546   0.472   4.557  16.283 -0.0669 -0.5522  0.1778
 1044TIP3    H124547   0.478   4.584  16.192  0.4485  0.3597  0.4682
 1044TIP3    H224548   0.562   4.532  16.307 -0.2506 -1.0583  0.3586
 1045TIP3   OH224549   6.271   1.775  16.301 -0.1235  0.6588  0.5207
 1045TIP3    H124550   6.192   1.828  16.313 -0.9433 -0.4363  0.1197
 1045TIP3    H224551   6.293   1.784  16.209 -2.1645 -2.1770 -0.3662
 1046TIP3   OH224552   2.088   0.101   0.645  0.0916 -0.0454 -0.4282
 1046TIP3    H124553   2.100   0.177   0.702 -0.7410 -0.3139  0.1223
 1046TIP3    H224554   2.119   0.027   0.697 -0.5578 -0.2748 -0.3582
 1047TIP3   OH224555   6.175   1.643   4.009  0.1890 -0.0837 -0.1826
 1047TIP3    H124556   6.135   1.729   3.997  0.9773  0.2978 -0.1611
 1047TIP3    H224557   6.268   1.658   3.995  0.6412 -0.4599  2.0652
 1048TIP3   OH224558   0.627   2.678  17.372  0.0364  0.4396 -0.2035
 1048TIP3    H124559   0.667   2.597  17.405 -0.4598  0.7673  1.2489
 1048TIP3    H224560   0.543   2.651  17.335  1.4499 -0.2442 -3.2062
 1049TIP3   OH224561   2.698   4.860  13.736 -0.3616  0.3063 -0.9284
 1049TIP3    H124562   2.774   4.851  13.678 -0.1097 -0.3021 -0.5006
 1049TIP3    H224563   2.625   4.873  13.676  0.0471  0.7517 -1.3494
 1050TIP3   OH224564   4.126   2.414   6.608  0.2110  0.1846 -0.1156
 1050TIP3    H124565   4.065   2.469   6.559 -0.2642 -0.5399 -0.3430
 1050TIP3    H224566   4.085   2.328   6.611  0.3338  0.1542  1.3718
 1051TIP3   OH224567   1.862   0.338  16.538 -0.4213 -0.1977  0.3325
 1051TIP3    H124568   1.879   0.245  16.524  0.6821 -0.1278  1.0034
 1051TIP3    H224569   1.803   0.364  16.468 -0.2169 -1.2600 -0.2380
 1052TIP3   OH224570   5.661   0.751   0.304  0.3676 -0.5069  0.6433
 1052TIP3    H124571   5.623   0.833   0.273  0.2516 -0.1075  1.7726
 1052TIP3    H224572   5.708   0.716   0.229 -0.5690 -0.0058 -0.1953
 1053TIP3   OH224573   3.897   1.425  15.545  0.3757  0.4730 -0.1316
 1053TIP3    H124574   3.989   1.414  15.521  0.3875  1.4309 -0.5631
 1053TIP3    H224575   3.899   1.466  15.631  0.3464  0.2633 -0.0295
 1054TIP3   OH224576   2.310   2.316   0.627  0.1772  0.0999  0.0954
 1054TIP3    H124577   2.380   2.272   0.580 -0.1059 -0.4908  0.2216
 1054TIP3    H224578   2.292   2.259   0.702  1.2539  1.4714  1.4527
 1055TIP3   OH224579   4.235   1.577  15.687  0.0863 -0.2059 -0.6178
 1055TIP3    H124580   4.321   1.611  15.712  0.1703 -1.3089  0.7160
 1055TIP3    H224581   4.247   1.547  15.597  0.7461  0.7683 -0.8757
 1056TIP3   OH224582   2.699   3.284   1.922  0.1815  0.5994  0.3301
 1056TIP3    H124583   2.732   3.369   1.948  1.5725  0.8410 -1.9253
 1056TIP3    H224584   2.614   3.302   1.881  0.9038  1.0948 -1.0217
 1057TIP3   OH224585   5.630   0.689  17.124  0.6046  0.0581 -0.0460
 1057TIP3    H124586   5.637   0.595  17.142 -1.9225 -0.1657  0.1576
 1057TIP3    H224587   5.596   0.727  17.206  0.9883  1.0562 -0.3293
 1058TIP3   OH224588   3.610   4.789  17.306  0.0600 -0.4039  0.6781
 1058TIP3    H124589   3.589   4.837  17.386 -0.2531 -2.4128  1.8923
 1058TIP3    H224590   3.704   4.799  17.295  0.0393  0.2429  1.0533
 1059TIP3   OH224591   5.046   0.583  12.721 -0.4301  0.7563 -0.1716
 1059TIP3    H124592   5.078   0.505  12.675  0.2733 -0.2338  1.8600
 1059TIP3    H224593   4.958   0.598  12.685  0.3182  0.4891 -2.2835
 1060TIP3   OH224594   0.335   0.196  16.935 -0.7741  0.3608 -0.4227
 1060TIP3    H124595   0.251   0.214  16.892 -1.0441  1.8385  0.6216
 1060TIP3    H224596   0.312   0.137  17.007 -0.4198 -1.5921 -1.8250
 1061TIP3   OH224597   3.600   1.986  15.523 -0.6919  0.3400  0.1585
 1061TIP3    H124598   3.642   2.044  15.587 -0.5614  0.8889 -0.4121
 1061TIP3    H224599   3.571   2.045  15.453 -1.3475 -0.1816 -0.0179
 1062TIP3   OH224600   0.523   1.117   5.946 -0.5449  0.0046 -0.3626
 1062TIP3    H124601   0.447   1.068   5.977 -1.5849  2.3471  1.0831
 1062TIP3    H224602   0.584   1.116   6.020 -0.8496  1.3407 -0.0662
 1063TIP3   OH224603   1.614   0.194   2.418  0.1484 -0.0640 -0.0113
 1063TIP3    H124604   1.618   0.107   2.457  0.3119 -0.0936 -0.0934
 1063TIP3    H224605   1.571   0.181   2.333  0.7741 -0.1722 -0.3186
 1064TIP3   OH224606   2.117   5.970   1.601  0.2283 -0.0535 -0.0668
 1064TIP3    H124607   2.158   5.980   1.515  0.7569 -0.2882  0.1514
 1064TIP3    H224608   2.136   5.880   1.627  0.3989  0.1269  0.4554
 1065TIP3   OH224609   5.396   0.016   0.875  0.4141  0.7810 -0.0534
 1065TIP3    H124610   5.305   0.045   0.882 -0.4196 -1.2341 -1.7955
 1065TIP3    H224611   5.406  -0.049   0.944  0.3929  0.6557 -0.1686
 1066TIP3   OH224612   5.205   1.836   4.499 -0.0416  0.1930  0.1134
 1066TIP3    H124613   5.197   1.914   4.444 -1.7930  0.8645  1.2387
 1066TIP3    H224614   5.162   1.767   4.449 -1.7588  0.8342  0.6342
 1067TIP3   OH224615   5.987   3.746   5.818  0.1985 -0.0243  0.0240
 1067TIP3    H124616   5.931   3.769   5.744  0.3017 -0.1275 -0.0859
 1067TIP3    H224617   6.042   3.823   5.832 -0.3872  0.3118  0.5178
 1068TIP3   OH224618   0.387   4.827  11.358  0.0674 -0.6342  0.1114
 1068TIP3    H124619   0.317   4.820  11.423 -1.5192 -0.7177 -1.5293
 1068TIP3    H224620   0.384   4.745  11.310  1.7497 -0.9009  0.3996
 1069TIP3   OH224621   5.733   5.386  16.374 -0.4031  0.3095  0.6109
 1069TIP3    H124622   5.683   5.467  16.383 -0.1090  0.4610  0.8832
 1069TIP3    H224623   5.690   5.339  16.302  1.4748  2.2481 -1.9562
 1070TIP3   OH224624   2.700   2.145   4.934  0.1021  0.0543  0.4997
 1070TIP3    H124625   2.654   2.228   4.939  0.4571  0.2731  0.1695
 1070TIP3    H224626   2.788   2.165   4.966  0.7022  0.1923 -1.1625
 1071TIP3   OH224627   4.532   2.339  11.609  0.3263  0.1774  0.7160
 1071TIP3    H124628   4.447   2.353  11.567  0.8029 -1.2216 -0.8203
 1071TIP3    H224629   4.596   2.374  11.547  0.9190  0.6892  1.5869
 1072TIP3   OH224630   1.510   1.309  12.725  0.5967 -0.0694 -0.0883
 1072TIP3    H124631   1.466   1.267  12.798  2.8346 -1.0495  0.8036
 1072TIP3    H224632   1.496   1.251  12.651  1.6178 -1.1979  0.5582
 1073TIP3   OH224633   4.826   4.466  16.692  0.8741  0.1465  0.1087
 1073TIP3    H124634   4.757   4.501  16.747  0.4174 -1.4663  0.6252
 1073TIP3    H224635   4.816   4.512  16.608  0.3297  1.2094  0.7445
 1074TIP3   OH224636   6.216   4.970   0.421 -0.1122 -0.3746  0.2244
 1074TIP3    H124637   6.311   4.964   0.432 -0.0871 -0.0602  0.1702
 1074TIP3    H224638   6.192   4.886   0.382  0.3183  0.0244 -0.9575
 1075TIP3   OH224639   4.260   1.600   2.824  0.2472 -0.2550  0.0178
 1075TIP3    H124640   4.277   1.507   2.806  0.2414 -0.5214  1.3175
 1075TIP3    H224641   4.184   1.621   2.771 -0.3819 -1.2743  0.4856
 1076TIP3   OH224642   1.171   3.541  17.295 -0.3392  0.3536  0.7976
 1076TIP3    H124643   1.109   3.502  17.234 -0.7425  0.3951  1.1734
 1076TIP3    H224644   1.140   3.631  17.306  0.0130  0.4908  0.6939
 1077TIP3   OH224645   5.460   5.938  14.605  0.3706  0.0659  0.2883
 1077TIP3    H124646   5.426   5.849  14.598  1.8502 -0.4693 -0.4612
 1077TIP3    H224647   5.382   5.993  14.612 -0.5674 -1.3832  2.3780
 1078TIP3   OH224648   4.992   4.777   0.123 -0.3039 -0.0393 -0.1886
 1078TIP3    H124649   5.039   4.768   0.206  1.6838  0.7375 -1.1696
 1078TIP3    H224650   4.903   4.802   0.149 -0.4259 -2.1544  1.7534
 1079TIP3   OH224651   4.444   4.578  13.455 -0.2578  0.4920 -0.3697
 1079TIP3    H124652   4.364   4.618  13.421 -1.3428 -0.3294  1.1244
 1079TIP3    H224653   4.507   4.586  13.383 -2.2292 -0.5608 -2.3274
 1080TIP3   OH224654   0.178   1.165  13.228 -0.1094  0.1025 -0.0961
 1080TIP3    H124655   0.262   1.207  13.245  1.0431 -2.0483 -0.1162
 1080TIP3    H224656   0.128   1.177  13.309 -0.1055  2.0221 -0.3415
 1081TIP3   OH224657   4.094   5.364   5.974 -0.3407 -0.0640 -1.0240
 1081TIP3    H124658   4.080   5.361   6.068 -1.1178 -0.5520 -1.1444
 1081TIP3    H224659   4.010   5.393   5.938  0.0907  0.5734 -1.5381
 1082TIP3   OH224660   0.409   2.882   1.175 -0.2110  0.2611 -1.0477
 1082TIP3    H124661   0.339   2.929   1.220  1.1793  0.9939  0.4258
 1082TIP3    H224662   0.401   2.792   1.205 -1.5639 -0.0482 -2.2382
 1083TIP3   OH224663   5.043   5.546   3.000 -0.0707 -0.1624 -0.0538
 1083TIP3    H124664   5.043   5.561   2.905 -0.4466  1.0495  0.1170
 1083TIP3    H224665   4.987   5.469   3.012  0.2970 -0.5677 -0.8353
 1084TIP3   OH224666   6.751   0.094   4.617  0.2156  0.1947  0.4385
 1084TIP3    H124667   6.697   0.168   4.642 -1.8884 -1.7789  2.1798
 1084TIP3    H224668   6.830   0.133   4.579 -0.9791  3.2536  0.8678
 1085TIP3   OH224669   5.603   4.896   1.319 -0.0632 -0.5764 -0.7445
 1085TIP3    H124670   5.551   4.889   1.399  1.3329  0.7256  0.3250
 1085TIP3    H224671   5.680   4.841   1.336  0.3544 -0.1045 -1.0676
 1086TIP3   OH224672   3.924   0.890   2.071  0.0126 -0.3006  0.4965
 1086TIP3    H124673   4.010   0.932   2.075  0.5817 -1.3361 -0.2986
 1086TIP3    H224674   3.943   0.799   2.049 -1.4076  0.0515 -2.7527
 1087TIP3   OH224675   4.243   1.811  14.447  0.4953  0.3084  0.0549
 1087TIP3    H124676   4.275   1.847  14.364  0.9885  1.3059  0.6527
 1087TIP3    H224677   4.285   1.726  14.455 -0.2312 -0.1784 -1.1165
 1088TIP3   OH224678   0.405   4.988   2.298  0.1710 -0.1032  0.3814
 1088TIP3    H124679   0.350   5.062   2.326  0.4930 -0.1044  1.0163
 1088TIP3    H224680   0.414   5.000   2.203  0.6164  0.9474  0.5441
 1089TIP3   OH224681   5.249   2.255  16.500 -0.0083  0.3907  0.6407
 1089TIP3    H124682   5.266   2.247  16.594 -0.9499 -1.1896  0.7237
 1089TIP3    H224683   5.182   2.323  16.493  0.8716  1.3218  0.9767
 1090TIP3   OH224684   4.451   3.410   6.030 -0.1498 -0.5022 -0.0738
 1090TIP3    H124685   4.357   3.425   6.020  0.1834  0.2444 -2.8533
 1090TIP3    H224686   4.461   3.383   6.121 -2.8099  1.1581  0.8323
 1091TIP3   OH224687   3.534   6.126  17.356 -0.5756  0.0274  0.2336
 1091TIP3    H124688   3.595   6.119  17.283 -1.5377 -0.2141 -0.5673
 1091TIP3    H224689   3.588   6.110  17.434  1.0924  3.0452 -0.1076
 1092TIP3   OH224690   5.894   4.079   1.658 -0.1551 -0.1850 -0.0452
 1092TIP3    H124691   5.885   3.998   1.608 -1.3822 -1.0229  1.4376
 1092TIP3    H224692   5.806   4.097   1.689  0.8333 -1.0252  3.7101
 1093TIP3   OH224693   2.855   3.236   3.472  0.5429 -0.4188 -0.8204
 1093TIP3    H124694   2.879   3.147   3.446  0.8492 -0.8296  0.7494
 1093TIP3    H224695   2.876   3.290   3.396 -0.7281 -1.8170 -2.2322
 1094TIP3   OH224696   2.677   6.088  12.229  0.1254  0.2769  0.1351
 1094TIP3    H124697   2.699   6.163  12.284 -1.1312 -0.0027  1.0672
 1094TIP3    H224698   2.581   6.091  12.222 -0.1737 -2.4030  1.9428
 1095TIP3   OH224699   5.982   3.946  13.239  0.0464  0.0180  0.6558
 1095TIP3    H124700   6.017   3.871  13.190 -0.1322 -0.0273  0.5990
 1095TIP3    H224701   5.962   3.911  13.326 -1.9762 -0.4977  0.0192
 1096TIP3   OH224702   6.244   1.227   1.386 -0.6776  0.0939 -0.5948
 1096TIP3    H124703   6.278   1.138   1.394 -0.7223  0.1637  0.4234
 1096TIP3    H224704   6.199   1.244   1.469 -0.0791  1.3136 -0.4952
 1097TIP3   OH224705   6.094   3.361   5.868 -0.4011  0.0518 -0.3280
 1097TIP3    H124706   6.152   3.316   5.929  1.8026  0.2449 -2.1426
 1097TIP3    H224707   6.059   3.292   5.813 -0.9365  0.0669 -0.0114
 1098TIP3   OH224708   3.834   1.646   4.687  0.1131  0.3163  0.6125
 1098TIP3    H124709   3.744   1.628   4.662  0.0889  0.6819  0.4292
 1098TIP3    H224710   3.883   1.644   4.605  0.0221  1.5779  0.5092
 1099TIP3   OH224711   3.380   5.177   4.854 -0.7515 -0.1603  0.7301
 1099TIP3    H124712   3.289   5.167   4.829 -0.4407 -0.4933 -0.3278
 1099TIP3    H224713   3.390   5.269   4.876 -1.4111 -0.1874  1.1410
 1100TIP3   OH224714   2.962   5.919  16.762 -0.1249 -0.1045 -0.7267
 1100TIP3    H124715   2.908   5.927  16.840  0.6349  1.8709 -0.3489
 1100TIP3    H224716   2.900   5.903  16.691 -1.0117  0.0369 -0.0056
 1101TIP3   OH224717   3.256   4.976   0.141  0.1176 -0.2001 -0.1379
 1101TIP3    H124718   3.179   4.924   0.122  0.4165 -0.5987 -0.2662
 1101TIP3    H224719   3.234   5.064   0.109  0.2256 -0.6130 -1.4276
 1102TIP3   OH224720   1.195   6.040   3.175 -0.8902 -0.1960 -0.1682
 1102TIP3    H124721   1.278   6.065   3.134 -1.4201  1.7313 -0.1741
 1102TIP3    H224722   1.217   5.963   3.227  1.1361  0.7826  0.5517
 1103TIP3   OH224723   3.298   0.982   0.224 -1.0689  0.2731 -0.3487
 1103TIP3    H124724   3.245   0.905   0.247 -0.2105 -0.5117 -0.8985
 1103TIP3    H224725   3.308   0.976   0.129  2.0201 -1.0351 -0.0787
 1104TIP3   OH224726   5.265   4.530   4.193 -0.2103 -0.4622  0.1322
 1104TIP3    H124727   5.348   4.484   4.189  1.0609  1.2372  3.5185
 1104TIP3    H224728   5.222   4.497   4.272 -1.6117  0.4734 -0.1841
 1105TIP3   OH224729   4.765   0.835  16.382  0.3909  0.0033  0.0030
 1105TIP3    H124730   4.686   0.855  16.332 -0.3518 -0.1473  1.0867
 1105TIP3    H224731   4.766   0.901  16.452  1.0959 -0.1545  0.1512
 1106TIP3   OH224732   6.477   5.976   4.563 -0.4053 -0.6599 -0.1456
 1106TIP3    H124733   6.469   6.003   4.654 -0.3097 -1.5593  0.1397
 1106TIP3    H224734   6.519   6.050   4.520  0.2530 -0.5245  0.6980
 1107TIP3   OH224735   6.573   3.017   5.731  0.5766  0.2475 -0.5847
 1107TIP3    H124736   6.480   3.003   5.710  0.4536  1.6886 -1.1292
 1107TIP3    H224737   6.593   2.950   5.796 -0.6260 -0.6032 -1.0441
 1108TIP3   OH224738   0.211   5.722  14.048  0.2831 -0.4345  0.1412
 1108TIP3    H124739   0.135   5.729  14.105  0.0296 -0.5625 -0.1767
 1108TIP3    H224740   0.179   5.745  13.961  0.2946 -1.7541 -0.2371
 1109TIP3   OH224741   2.946   5.686   1.977 -0.0292 -0.1879  0.1269
 1109TIP3    H124742   2.926   5.779   1.971  0.6569  0.0720  1.4774
 1109TIP3    H224743   2.996   5.666   1.898 -0.2155  0.5760 -0.1852
 1110TIP3   OH224744   0.357   6.577   3.831 -0.7410 -0.3128 -0.0244
 1110TIP3    H124745   0.360   6.576   3.927  0.3704  2.2317  0.0271
 1110TIP3    H224746   0.446   6.556   3.804 -0.5658  0.8993 -0.4317
 1111TIP3   OH224747   2.315   5.297  14.802  0.6852  0.1049  0.2522
 1111TIP3    H124748   2.275   5.313  14.887 -1.3490 -0.3249 -0.5801
 1111TIP3    H224749   2.332   5.385  14.767  0.0272  0.3011  0.4195
 1112TIP3   OH224750   5.139   6.368  16.836  0.5791 -0.3616 -0.3258
 1112TIP3    H124751   5.153   6.365  16.741  0.4776 -0.6254 -0.3320
 1112TIP3    H224752   5.060   6.422  16.847  0.5369 -0.4094 -0.3958
 1113TIP3   OH224753   0.784   3.634   5.311  0.2120 -0.3780 -0.4078
 1113TIP3    H124754   0.864   3.613   5.263  1.7941  3.0586  0.4639
 1113TIP3    H224755   0.797   3.596   5.398  0.2069 -1.0145 -0.6734
 1114TIP3   OH224756   5.207   3.700   4.590  0.6804  0.1731  0.4402
 1114TIP3    H124757   5.144   3.758   4.550  1.4495 -0.2096 -1.4109
 1114TIP3    H224758   5.289   3.750   4.590  1.1347 -0.5470 -0.3243
 1115TIP3   OH224759   1.078   6.637  11.122  0.1325 -0.2155 -0.3417
 1115TIP3    H124760   1.021   6.560  11.114  0.5281 -0.6710  0.9216
 1115TIP3    H224761   1.148   6.609  11.182  1.0578  0.6954 -0.9505
 1116TIP3   OH224762   6.572   0.760   3.272  0.0204  0.2519  0.2023
 1116TIP3    H124763   6.646   0.747   3.331 -0.5362  1.2898  1.1819
 1116TIP3    H224764   6.498   0.778   3.331 -0.4577  1.8034 -0.8007
 1117TIP3   OH224765   6.280   6.509  10.510 -0.1751  0.5156  0.1991
 1117TIP3    H124766   6.359   6.485  10.558 -1.1668  1.1193  2.2522
 1117TIP3    H224767   6.223   6.549  10.576 -1.0937  2.6803 -1.7571
 1118TIP3   OH224768   4.954   0.164  16.516  0.2928  0.0831 -0.7645
 1118TIP3    H124769   4.926   0.090  16.461  1.2935 -0.4706 -0.5656
 1118TIP3    H224770   5.039   0.137  16.550 -1.1888 -0.6116  2.9004
 1119TIP3   OH224771   6.016   4.133  12.328 -0.0360  0.5215 -0.0788
 1119TIP3    H124772   5.922   4.148  12.333 -0.0706  0.4886 -0.5709
 1119TIP3    H224773   6.037   4.145  12.236  0.3827  0.1801 -0.0293
 1120TIP3   OH224774   1.918   6.629  13.368  0.2144  0.5346  0.1823
 1120TIP3    H124775   1.894   6.537  13.359  0.1039  0.5901 -0.1120
 1120TIP3    H224776   2.014   6.629  13.365  0.1967  0.5180 -0.7810
 1121TIP3   OH224777   3.802   1.238  14.513  0.1946 -0.2872  0.4158
 1121TIP3    H124778   3.896   1.222  14.511  0.4246  1.1058 -0.2535
 1121TIP3    H224779   3.775   1.239  14.422 -0.0737  1.5018  0.4862
 1122TIP3   OH224780   5.027   0.199   1.484  0.0795 -0.2268  0.2050
 1122TIP3    H124781   5.041   0.150   1.402  1.8868 -1.7404  1.3202
 1122TIP3    H224782   5.106   0.251   1.494  0.0967 -0.4278  1.2046
 1123TIP3   OH224783   4.308   3.004  11.942 -0.5512 -0.5144 -0.4449
 1123TIP3    H124784   4.359   2.987  11.862  0.2871 -4.6551  0.7449
 1123TIP3    H224785   4.217   3.008  11.912 -0.0988  0.5719 -1.8273
 1124TIP3   OH224786   0.264   0.560  14.013  0.0186  0.1314  0.3043
 1124TIP3    H124787   0.350   0.584  13.979  0.4881 -1.6204  0.1330
 1124TIP3    H224788   0.210   0.549  13.935  0.2915 -0.9834  0.2456
 1125TIP3   OH224789   5.441   1.018   0.509  0.1215 -0.5675  0.0555
 1125TIP3    H124790   5.369   1.065   0.551 -0.1953 -0.5124 -0.5486
 1125TIP3    H224791   5.457   1.065   0.428  1.6409  0.1346  0.7270
 1126TIP3   OH224792   0.792   3.538   5.567 -0.2180  0.2726 -0.2414
 1126TIP3    H124793   0.864   3.484   5.601  1.0489  0.0457 -3.0131
 1126TIP3    H224794   0.714   3.504   5.610  0.7171 -2.8486 -0.7542
 1127TIP3   OH224795   6.034   5.878  11.569  0.9302 -0.4183  0.2008
 1127TIP3    H124796   6.113   5.826  11.555 -0.1623 -2.1383  0.2316
 1127TIP3    H224797   6.000   5.849  11.654 -0.6247 -0.9077 -0.5554
 1128TIP3   OH224798   1.719   1.677  12.295  0.2274 -0.2839 -0.4081
 1128TIP3    H124799   1.731   1.582  12.297  2.0008 -0.1024 -0.9193
 1128TIP3    H224800   1.626   1.689  12.274  0.2957 -1.9086 -1.8433
 1129TIP3   OH224801   5.040   0.815   4.013 -0.1703 -1.0717  0.4682
 1129TIP3    H124802   5.033   0.788   3.921 -0.9236 -1.9601  0.7710
 1129TIP3    H224803   4.997   0.745   4.062  0.3879 -0.6972  1.5231
 1130TIP3   OH224804   5.022   4.823   0.714 -0.3374  0.2268 -0.1277
 1130TIP3    H124805   5.030   4.732   0.685 -1.6695  0.5523 -1.6886
 1130TIP3    H224806   4.985   4.817   0.802 -1.9940 -0.7661 -0.8436
 1131TIP3   OH224807   1.674   2.262  13.253  0.4041  0.3005  0.0237
 1131TIP3    H124808   1.597   2.292  13.302  0.5110  0.5665  0.0284
 1131TIP3    H224809   1.649   2.175  13.222 -1.2942  1.6813 -2.8921
 1132TIP3   OH224810   3.120   1.921   2.919  0.2133  0.0429 -0.0975
 1132TIP3    H124811   3.101   1.882   3.004  1.6491  1.3474  0.8932
 1132TIP3    H224812   3.047   1.896   2.863 -0.9319 -0.5706  1.6104
 1133TIP3   OH224813   1.193   1.783   5.446 -0.3030 -0.0034  0.0363
 1133TIP3    H124814   1.286   1.806   5.442  0.5298 -3.0031 -0.2200
 1133TIP3    H224815   1.189   1.705   5.501 -2.2926 -1.4306 -1.9378
 1134TIP3   OH224816   4.001   3.102   3.750  0.2642 -0.5347 -0.0383
 1134TIP3    H124817   4.077   3.147   3.712 -1.1291  1.7281 -0.3432
 1134TIP3    H224818   4.003   3.015   3.710  2.2521 -0.2963 -0.5951
 1135TIP3   OH224819   3.983   0.387  16.729 -0.2061 -0.2907  0.4025
 1135TIP3    H124820   3.903   0.345  16.701 -0.6576 -0.3273  1.6584
 1135TIP3    H224821   4.008   0.340  16.809  0.7108  0.1319  0.3763
 1136TIP3   OH224822   3.022   2.377  12.876  0.4519 -0.3397  0.0782
 1136TIP3    H124823   3.006   2.296  12.827  1.5464 -1.4451  1.4312
 1136TIP3    H224824   2.956   2.375  12.946 -1.9330  1.8566 -1.9381
 1137TIP3   OH224825   1.716   3.873  16.468  0.3148  0.0793 -0.0461
 1137TIP3    H124826   1.765   3.942  16.423 -2.6538  0.3055 -3.3159
 1137TIP3    H224827   1.638   3.917  16.500 -0.4678 -1.3051  0.0105
 1138TIP3   OH224828   2.716   5.501  14.169 -0.0111  0.1453 -0.4843
 1138TIP3    H124829   2.805   5.474  14.190 -0.2857  0.0319  0.6138
 1138TIP3    H224830   2.675   5.424  14.129  0.7342  0.5813 -2.1927
 1139TIP3   OH224831   1.374   5.037  16.364 -0.4187 -0.0401  0.3079
 1139TIP3    H124832   1.327   5.117  16.385  0.8141  0.3195  1.9866
 1139TIP3    H224833   1.456   5.044  16.414  1.4393 -0.6189 -2.4086
 1140TIP3   OH224834   4.349   2.042  15.815  0.5032  0.1281  0.3612
 1140TIP3    H124835   4.300   2.122  15.834  0.5109  0.3322 -0.4446
 1140TIP3    H224836   4.350   1.994  15.898  0.8740  1.1639  0.9665
 1141TIP3   OH224837   6.261   0.956   1.685 -0.2904  0.0568 -0.2483
 1141TIP3    H124838   6.306   0.895   1.626  0.5263  0.8062 -0.4263
 1141TIP3    H224839   6.329   0.987   1.744 -1.2148 -1.1395  1.5323
 1142TIP3   OH224840   4.424   1.070  15.453  0.4586 -0.0634  0.0623
 1142TIP3    H124841   4.412   1.156  15.491  0.8701 -0.3075  0.7651
 1142TIP3    H224842   4.505   1.037  15.493 -0.4818 -1.3775  0.9684
 1143TIP3   OH224843   1.204   2.713  13.214 -0.0682  0.5893 -0.2331
 1143TIP3    H124844   1.251   2.721  13.296 -0.6570  0.8400  0.0864
 1143TIP3    H224845   1.160   2.628  13.219 -0.4674  0.8005 -0.0904
 1144TIP3   OH224846   3.480   6.627  16.983 -0.4826 -0.6515 -0.2094
 1144TIP3    H124847   3.496   6.543  16.939  0.5306 -0.9548  0.6858
 1144TIP3    H224848   3.480   6.691  16.912  0.9846 -1.1408 -0.6859
 1145TIP3   OH224849   6.024   3.629  14.435  0.4872  0.5491  0.3805
 1145TIP3    H124850   6.018   3.722  14.415  0.0445  0.5444  0.4981
 1145TIP3    H224851   5.937   3.605  14.467  0.4024 -0.0523 -0.2833
 1146TIP3   OH224852   4.278   0.539  11.303  0.0356  0.0032  0.3183
 1146TIP3    H124853   4.349   0.491  11.261 -1.2377 -0.4753 -1.4106
 1146TIP3    H224854   4.293   0.630  11.279  1.9461  0.4890  2.8621
 1147TIP3   OH224855   5.146   3.741   4.102  0.4351  0.1776 -0.0542
 1147TIP3    H124856   5.100   3.799   4.041  0.7402 -0.5632 -1.0121
 1147TIP3    H224857   5.201   3.801   4.154 -1.7541  1.1120  1.3198
 1148TIP3   OH224858   4.900   0.336   3.508  0.2487 -0.2480  0.0136
 1148TIP3    H124859   4.976   0.333   3.565  0.3756  0.6024 -0.0994
 1148TIP3    H224860   4.907   0.420   3.462  0.0745 -0.8397 -1.1396
 1149TIP3   OH224861   0.760   2.369  12.507 -0.3772  0.4559  0.0102
 1149TIP3    H124862   0.811   2.423  12.567 -1.4264  1.5629 -0.0484
 1149TIP3    H224863   0.797   2.387  12.421  0.9968 -0.9770  0.2719
 1150TIP3   OH224864   4.655   3.825   3.536  0.0340 -0.1333  0.3077
 1150TIP3    H124865   4.583   3.825   3.599 -0.1996  0.1515  0.0428
 1150TIP3    H224866   4.719   3.886   3.572 -0.8575  1.3838 -0.5740
 1151TIP3   OH224867   1.168   1.519  17.292  0.0079  0.2579  0.1546
 1151TIP3    H124868   1.248   1.475  17.322  0.1429  0.2643 -0.1876
 1151TIP3    H224869   1.173   1.515  17.197  0.6597  2.1160  0.0566
 1152TIP3   OH224870   0.414   4.400   0.917  0.1092  0.5749  0.0398
 1152TIP3    H124871   0.465   4.388   0.998 -0.8890 -0.3381  0.5574
 1152TIP3    H224872   0.341   4.338   0.925 -0.3823  0.9509 -1.2650
 1153TIP3   OH224873   4.533   6.715  13.990 -0.4515 -0.4578  0.0035
 1153TIP3    H124874   4.442   6.688  13.977  0.2368 -1.9353 -2.4140
 1153TIP3    H224875   4.550   6.776  13.918  0.6413 -0.7484 -0.0026
 1154TIP3   OH224876   5.334   2.010  17.167  0.0301 -0.3408 -0.0210
 1154TIP3    H124877   5.355   1.947  17.236  0.4297 -0.1365  0.0474
 1154TIP3    H224878   5.289   2.081  17.212  2.9910  1.3152  0.6493
 1155TIP3   OH224879   0.345   2.938   5.925  0.3749 -0.5697 -0.2042
 1155TIP3    H124880   0.373   2.903   6.010  0.1685  0.1047  0.1477
 1155TIP3    H224881   0.420   2.923   5.867  0.5536 -0.9502  0.1209
 1156TIP3   OH224882   0.305   2.565  12.626  0.3556  0.8397 -0.6368
 1156TIP3    H124883   0.237   2.632  12.610  1.8227  2.1441 -1.7633
 1156TIP3    H224884   0.292   2.501  12.556 -0.1122  0.7507 -0.4705
 1157TIP3   OH224885   5.589   0.145  11.694  0.2707  0.2232 -0.2538
 1157TIP3    H124886   5.617   0.157  11.604 -0.1292  2.0982 -0.1634
 1157TIP3    H224887   5.581   0.233  11.729 -3.7226 -0.1693  0.3186
 1158TIP3   OH224888   0.946   3.508  17.141 -0.1107  0.6006  0.1696
 1158TIP3    H124889   0.943   3.462  17.056  1.4579  0.8089 -0.0396
 1158TIP3    H224890   0.926   3.599  17.120  0.0563  0.6100  0.0444
 1159TIP3   OH224891   4.502   3.288   3.427  0.1911  0.2596  0.4004
 1159TIP3    H124892   4.508   3.379   3.456  2.9481  0.0174  0.8812
 1159TIP3    H224893   4.534   3.237   3.501 -1.2248 -1.1284  0.1070
 1160TIP3   OH224894   6.454   3.804  11.073  0.0359  0.1746  0.0208
 1160TIP3    H124895   6.479   3.883  11.025 -2.2163  0.5392 -0.7022
 1160TIP3    H224896   6.433   3.740  11.005  1.3704 -0.9382  0.5997
 1161TIP3   OH224897   0.525   5.847  15.132 -0.4741  0.4527  0.0293
 1161TIP3    H124898   0.530   5.759  15.094  1.1800  0.1188  0.9217
 1161TIP3    H224899   0.436   5.876  15.114 -1.0098 -1.3501 -0.4040
 1162TIP3   OH224900   5.080   6.250  16.050  0.0430 -0.4894 -0.5987
 1162TIP3    H124901   5.082   6.155  16.047 -1.5170 -0.6160  0.7379
 1162TIP3    H224902   4.988   6.271  16.067  0.8250  1.0876  2.3675
 1163TIP3   OH224903   1.126   3.639  12.744  0.0610 -0.7486 -0.2284
 1163TIP3    H124904   1.120   3.725  12.703  1.4173 -0.0266  0.9855
 1163TIP3    H224905   1.111   3.577  12.673  1.7244  0.4461 -1.6908
 1164TIP3   OH224906   0.500   0.176  10.745 -0.1299 -0.0964 -0.6824
 1164TIP3    H124907   0.482   0.270  10.753 -3.8535 -0.8099  2.1406
 1164TIP3    H224908   0.522   0.149  10.834 -0.0443 -2.0558 -1.2678
 1165TIP3   OH224909   4.551   6.726   3.639 -0.4887  0.0241 -0.1129
 1165TIP3    H124910   4.538   6.657   3.704  2.6057 -1.9177 -1.3193
 1165TIP3    H224911   4.640   6.757   3.655 -0.2081  0.5888 -2.3849
 1166TIP3   OH224912   5.456   2.494   6.032  0.7174  0.1252 -0.2713
 1166TIP3    H124913   5.414   2.414   6.001  0.4148 -0.1546  0.8278
 1166TIP3    H224914   5.487   2.538   5.952  0.6337 -0.9386 -0.9016
 1167TIP3   OH224915   3.320   6.130  15.773 -0.3417  0.0411 -0.0221
 1167TIP3    H124916   3.297   6.220  15.796 -1.5981  0.3942 -2.2862
 1167TIP3    H224917   3.415   6.130  15.766  0.0324  0.2000  3.4489
 1168TIP3   OH224918   1.392   0.658   2.604 -0.2091 -0.2356 -0.4310
 1168TIP3    H124919   1.375   0.566   2.581 -0.2139 -0.1198 -0.8811
 1168TIP3    H224920   1.488   0.663   2.609 -0.2377 -0.6000  0.9598
 1169TIP3   OH224921   5.831   6.551  12.131 -0.0353  0.2911 -0.3235
 1169TIP3    H124922   5.765   6.550  12.200  1.2431 -0.6724  0.9342
 1169TIP3    H224923   5.781   6.566  12.050 -1.9117 -1.3879  0.4466
 1170TIP3   OH224924   0.129   2.368  14.938 -0.3757 -0.4746  0.1455
 1170TIP3    H124925   0.207   2.420  14.956 -0.8854 -0.4423  2.6784
 1170TIP3    H224926   0.125   2.362  14.843  0.7374  2.5180 -0.1933
 1171TIP3   OH224927   1.128   0.173  14.718  0.1777  0.3863 -0.4423
 1171TIP3    H124928   1.049   0.119  14.718  0.1776  0.3128  1.6255
 1171TIP3    H224929   1.101   0.256  14.679 -0.9972  0.4478  0.4692
 1172TIP3   OH224930   0.009   1.346  14.406  0.3696  0.4393  0.2429
 1172TIP3    H124931   0.074   1.306  14.463  0.8728  0.5714 -0.2351
 1172TIP3    H224932  -0.048   1.273  14.379  1.0306  0.1081 -0.2860
 1173TIP3   OH224933   2.483   5.535  16.209 -0.2272  0.4442  0.4931
 1173TIP3    H124934   2.417   5.603  16.223 -1.0810 -0.6107  1.8774
 1173TIP3    H224935   2.522   5.556  16.124 -1.8048  1.5565  0.0018
 1174TIP3   OH224936   0.416   2.599  13.557 -0.0297 -0.2838 -0.1097
 1174TIP3    H124937   0.326   2.569  13.570  0.4710 -0.7331  3.1940
 1174TIP3    H224938   0.418   2.686  13.598  0.8383  0.0764 -0.8996
 1175TIP3   OH224939   4.181   4.998   5.810  0.4426  0.5462  0.0594
 1175TIP3    H124940   4.208   4.935   5.877 -0.7912  0.9821  1.0138
 1175TIP3    H224941   4.151   4.944   5.737 -0.4772 -0.0177  0.8178
 1176TIP3   OH224942   2.186   4.282  11.855 -0.3420 -0.0290 -0.0052
 1176TIP3    H124943   2.263   4.322  11.896 -0.8828  0.3318  0.6733
 1176TIP3    H224944   2.133   4.355  11.825 -1.0439 -0.2333  0.6983
 1177TIP3   OH224945   4.923   4.679  17.259 -0.4412 -0.3216  0.3539
 1177TIP3    H124946   4.959   4.729  17.332  1.3994  0.5014 -1.0368
 1177TIP3    H224947   4.889   4.745  17.199  0.4761 -0.7959 -0.7247
 1178TIP3   OH224948   6.125   0.274   4.307  0.3550  0.6589 -0.5936
 1178TIP3    H124949   6.108   0.231   4.223 -0.1419  0.5497 -0.4430
 1178TIP3    H224950   6.100   0.208   4.372 -0.3720  1.1486 -0.3570
 1179TIP3   OH224951   0.741   2.597   2.160 -0.1823 -0.3246 -0.2730
 1179TIP3    H124952   0.835   2.593   2.143 -0.1221 -0.7495  0.1201
 1179TIP3    H224953   0.727   2.681   2.204 -0.2926  0.6431 -2.0649
 1180TIP3   OH224954   0.261   4.678  11.762 -0.0674 -0.3712 -0.1968
 1180TIP3    H124955   0.228   4.663  11.851 -1.0420 -1.8443 -0.7753
 1180TIP3    H224956   0.190   4.650  11.705  0.7188  0.1265 -1.4643
 1181TIP3   OH224957   2.553   4.841  15.345  0.3689  0.0878  0.0868
 1181TIP3    H124958   2.580   4.853  15.436 -1.5197 -0.7587  0.8060
 1181TIP3    H224959   2.470   4.888  15.338  0.9190  0.9108 -1.4770
 1182TIP3   OH224960   3.001   5.860  11.583  0.0973  0.0490 -0.1074
 1182TIP3    H124961   3.076   5.839  11.639 -0.5742  1.2085  1.2965
 1182TIP3    H224962   2.940   5.787  11.596  0.6457 -0.5262 -0.6778
 1183TIP3   OH224963   4.687   6.046  16.405 -0.1143 -0.0042 -0.1378
 1183TIP3    H124964   4.681   6.096  16.486  0.1723 -1.5778  0.8996
 1183TIP3    H224965   4.741   6.100  16.347 -2.1058  2.1627 -0.1141
 1184TIP3   OH224966   6.653   0.533  17.394  0.2625  0.3001  0.1049
 1184TIP3    H124967   6.709   0.510  17.320  0.6347  0.9305  0.1795
 1184TIP3    H224968   6.713   0.570  17.459 -0.2355  1.0315  0.1672
 1185TIP3   OH224969   1.677   1.740   5.516  0.0407 -0.4255 -0.1546
 1185TIP3    H124970   1.720   1.688   5.583 -0.1718 -1.4680 -0.7995
 1185TIP3    H224971   1.586   1.710   5.516 -0.1682  0.1818 -0.3166
 1186TIP3   OH224972   1.543   4.347   0.687 -0.0956 -0.0062  0.1803
 1186TIP3    H124973   1.526   4.344   0.781 -0.4592 -1.3012  0.0833
 1186TIP3    H224974   1.461   4.379   0.649 -0.8835 -1.9915  0.1024
 1187TIP3   OH224975   3.920   1.916  14.623 -0.1250 -0.1060 -0.1538
 1187TIP3    H124976   3.965   1.869  14.694  2.1104  2.0375 -0.0115
 1187TIP3    H224977   3.919   2.007  14.652  0.8312  0.8496 -2.8172
 1188TIP3   OH224978   6.423   3.670  16.638 -0.0849 -0.7169 -0.0881
 1188TIP3    H124979   6.488   3.732  16.672  0.6442  0.1261 -2.7699
 1188TIP3    H224980   6.475   3.602  16.596 -0.8815 -0.8328 -0.9319
 1189TIP3   OH224981   6.300   2.323  16.134 -0.3735  0.0855  0.2007
 1189TIP3    H124982   6.384   2.369  16.140  0.0679 -0.6346 -0.3469
 1189TIP3    H224983   6.310   2.248  16.193  0.1950 -1.2326 -1.4910
 1190TIP3   OH224984   5.920   4.818   5.478 -0.3767 -0.3564  0.2452
 1190TIP3    H124985   5.828   4.804   5.452  0.0682 -0.8048 -1.1894
 1190TIP3    H224986   5.961   4.732   5.467  1.0258  0.5619 -2.7386
 1191TIP3   OH224987   1.088   4.958  10.976  0.7567 -0.5408  0.7298
 1191TIP3    H124988   1.029   4.993  10.909  2.2981  0.3765 -0.2031
 1191TIP3    H224989   1.100   5.031  11.037  1.2574 -0.5799  0.6799
 1192TIP3   OH224990   2.072   6.512   5.438 -0.4098 -0.3842  0.0605
 1192TIP3    H124991   2.061   6.593   5.488  0.5447  0.3469 -0.8749
 1192TIP3    H224992   2.116   6.539   5.357  0.7036 -1.9653  0.0984
 1193TIP3   OH224993   4.058   1.416  11.632  0.0915  0.3492 -0.0006
 1193TIP3    H124994   3.986   1.360  11.605 -0.6300  0.7702  0.9904
 1193TIP3    H224995   4.052   1.492  11.574  1.6541 -0.9376 -1.9996
 1194TIP3   OH224996   4.857   3.591   2.353  0.3764  0.0069  0.3206
 1194TIP3    H124997   4.818   3.548   2.429  0.3064  3.1790  2.2732
 1194TIP3    H224998   4.936   3.633   2.387  0.9385  0.6287 -1.6271
 1195TIP3   OH224999   1.402   6.323  15.850  0.8353 -0.6594 -0.4267
 1195TIP3    H125000   1.394   6.416  15.832 -0.3494 -0.6762 -0.1009
 1195TIP3    H225001   1.496   6.305  15.848  1.0093  0.1674 -2.3398
 1196TIP3   OH225002   2.453   4.707   0.818 -0.3107  0.7349 -0.2126
 1196TIP3    H125003   2.523   4.647   0.844 -0.0870  0.4005 -1.5319
 1196TIP3    H225004   2.491   4.760   0.749 -0.6054  2.2301  0.7125
 1197TIP3   OH225005   3.807   4.800  16.709 -0.1603  0.1054 -0.0271
 1197TIP3    H125006   3.747   4.733  16.741  1.7113 -1.9194 -0.5769
 1197TIP3    H225007   3.790   4.806  16.615  0.1913 -0.1326 -0.1044
 1198TIP3   OH225008   1.897   6.218   4.813 -0.4843  0.6597 -0.0363
 1198TIP3    H125009   1.850   6.173   4.743  0.3860 -1.4748  0.6540
 1198TIP3    H225010   1.976   6.251   4.771 -0.3637  0.1210 -0.2398
 1199TIP3   OH225011   6.004   0.102  14.579 -0.1413 -0.1856 -0.1295
 1199TIP3    H125012   6.001   0.022  14.526  0.1173 -0.3306  0.0697
 1199TIP3    H225013   6.097   0.114  14.599  0.1449  1.5093 -2.1678
 1200TIP3   OH225014   4.611   1.601   1.759  0.0920  0.3814  0.9219
 1200TIP3    H125015   4.533   1.653   1.742 -0.9587 -1.3308  0.1832
 1200TIP3    H225016   4.600   1.570   1.849 -1.1352 -1.4481  0.2026
 1201TIP3   OH225017   4.099   5.111  15.626 -0.1611 -0.3300 -0.1434
 1201TIP3    H125018   4.007   5.137  15.634 -0.5412 -1.7931  0.6018
 1201TIP3    H225019   4.148   5.192  15.640 -1.2967  0.1922  1.0846
 1202TIP3   OH225020   1.554   2.538   3.257 -0.2392  0.5426 -0.0286
 1202TIP3    H125021   1.561   2.481   3.334  1.3878  1.1010  0.2726
 1202TIP3    H225022   1.485   2.601   3.280  0.6074  1.0585  1.2529
 1203TIP3   OH225023   5.474   2.008  13.388 -0.3123  0.6008 -0.4135
 1203TIP3    H125024   5.455   2.016  13.481 -2.9905  0.2565 -0.8341
 1203TIP3    H225025   5.456   1.916  13.367 -0.3336  0.8041 -1.3594
 1204TIP3   OH225026   3.711   6.416   6.227  0.1194 -0.3036 -0.1487
 1204TIP3    H125027   3.782   6.454   6.278 -1.5905  1.4758  1.0572
 1204TIP3    H225028   3.733   6.323   6.219  2.1100  0.0357  0.9019
 1205TIP3   OH225029   1.677   1.325   5.682 -0.1496  0.2204  0.0632
 1205TIP3    H125030   1.633   1.382   5.619 -1.8371 -0.6200  0.4203
 1205TIP3    H225031   1.612   1.310   5.750  0.8125 -0.8283  0.7868
 1206TIP3   OH225032   5.590   5.943  12.416 -0.5623 -0.4791  0.6122
 1206TIP3    H125033   5.567   5.892  12.338  0.3299 -0.3199  0.2297
 1206TIP3    H225034   5.656   5.890  12.461 -1.9990 -1.1815  1.9742
 1207TIP3   OH225035   0.145   3.354  17.316  0.8556 -0.3103  0.0267
 1207TIP3    H125036   0.069   3.314  17.359 -1.3717  1.3694 -2.0679
 1207TIP3    H225037   0.195   3.279  17.283  0.1565 -1.4719  1.4481
 1208TIP3   OH225038   6.129   4.935   4.291  0.4918  0.2445  0.7463
 1208TIP3    H125039   6.189   4.919   4.364 -0.6252 -0.5401  1.5272
 1208TIP3    H225040   6.146   4.862   4.231  0.7126  0.3340  0.6990
 1209TIP3   OH225041   3.347   1.110   1.633  0.3043 -0.1348  0.2271
 1209TIP3    H125042   3.268   1.154   1.601  0.3049 -0.4848 -0.2534
 1209TIP3    H225043   3.315   1.048   1.699 -0.0397 -1.5792 -1.2479
 1210TIP3   OH225044   3.337   3.992   5.903 -0.2298 -0.1140  0.7709
 1210TIP3    H125045   3.318   3.941   5.824 -1.5474  0.0126  0.9801
 1210TIP3    H225046   3.352   4.081   5.870  0.4739 -0.3050  0.5565
 1211TIP3   OH225047   5.001   3.240  16.948 -0.0498  0.5281 -0.3401
 1211TIP3    H125048   4.926   3.300  16.946 -1.7299 -1.4756 -1.5960
 1211TIP3    H225049   5.002   3.206  17.037 -2.8413 -1.8758 -1.0654
 1212TIP3   OH225050   6.474   5.465  14.169  0.3676  0.9626 -0.2986
 1212TIP3    H125051   6.394   5.447  14.120 -1.3578  0.5214  2.4826
 1212TIP3    H225052   6.456   5.547  14.215  1.6260  0.9900  0.1910
 1213TIP3   OH225053   5.941   4.801  17.063  0.7754  0.1326 -0.1470
 1213TIP3    H125054   5.947   4.824  16.970  1.2915  0.1884 -0.1006
 1213TIP3    H225055   5.980   4.875  17.109  1.6460 -0.4422  0.0472
 1214TIP3   OH225056   0.567   2.205   1.712  0.3402  0.3006  0.1510
 1214TIP3    H125057   0.593   2.134   1.653 -1.8714  0.8510 -1.6400
 1214TIP3    H225058   0.553   2.162   1.796 -0.3103 -1.2995 -0.7243
 1215TIP3   OH225059   1.992   2.672   1.803  0.5742  0.1780 -0.0394
 1215TIP3    H125060   1.919   2.652   1.745  0.8129 -0.2123 -0.2060
 1215TIP3    H225061   2.058   2.605   1.784  1.1724  0.8051 -0.2271
 1216TIP3   OH225062   6.120   4.660   3.295 -0.1161 -0.5584  0.0594
 1216TIP3    H125063   6.179   4.599   3.337 -0.1148 -0.6700 -0.1040
 1216TIP3    H225064   6.032   4.634   3.325 -0.0314  0.0577  0.8763
 1217TIP3   OH225065   1.330   1.018  15.274  0.0321 -0.2624  0.1960
 1217TIP3    H125066   1.374   0.961  15.211  1.0435 -0.6613  1.2437
 1217TIP3    H225067   1.401   1.065  15.318 -0.6447 -0.2179  1.2567
 1218TIP3   OH225068   4.285   6.402  14.056 -0.3543 -0.2434 -0.4906
 1218TIP3    H125069   4.339   6.415  14.134  0.0886  1.9175 -1.0777
 1218TIP3    H225070   4.226   6.331  14.079  1.0519 -0.9672  1.0949
 1219TIP3   OH225071   2.210   1.849   4.747  0.0750 -0.4395  0.2059
 1219TIP3    H125072   2.163   1.876   4.826  0.2551 -0.3710  0.2910
 1219TIP3    H225073   2.209   1.753   4.750  2.6459 -0.5038  1.8676
 1220TIP3   OH225074   0.505   4.769   2.445 -0.5222  0.2880 -0.1356
 1220TIP3    H125075   0.460   4.839   2.400 -0.7449  1.7919  2.2451
 1220TIP3    H225076   0.597   4.781   2.423 -0.4269  2.0089  0.9832
 1221TIP3   OH225077   2.588   6.354   5.853  0.0628  0.1267 -0.8559
 1221TIP3    H125078   2.604   6.356   5.948  0.2136  1.3833 -0.9022
 1221TIP3    H225079   2.675   6.362   5.814 -0.1499  1.4808 -1.0939
 1222TIP3   OH225080   4.368   1.634  16.493  0.2268  0.1072  0.1174
 1222TIP3    H125081   4.275   1.653  16.478  0.1143 -1.2824 -1.3139
 1222TIP3    H225082   4.372   1.600  16.582 -0.4574  1.1018  0.5521
 1223TIP3   OH225083   1.358   6.582  16.586 -0.1215  0.5083 -0.4828
 1223TIP3    H125084   1.393   6.527  16.516  0.1697  0.3943 -0.2513
 1223TIP3    H225085   1.367   6.528  16.665 -0.2137  0.7319 -0.3187
 1224TIP3   OH225086   4.951   6.630  15.903  0.0382  0.3980 -0.0615
 1224TIP3    H125087   4.862   6.665  15.901 -0.1165 -0.0120 -0.6090
 1224TIP3    H225088   4.970   6.617  15.996 -1.8990 -3.0094  0.0397
 1225TIP3   OH225089   3.196   0.748   0.743 -0.4157  0.4495  0.2423
 1225TIP3    H125090   3.133   0.740   0.814 -1.6276 -0.6360 -0.8816
 1225TIP3    H225091   3.151   0.712   0.667  1.1134  0.8370 -0.9130
 1226TIP3   OH225092   1.681   3.571   3.896 -0.0233 -0.1744  0.3077
 1226TIP3    H125093   1.773   3.577   3.924  0.0957  1.0034 -0.2644
 1226TIP3    H225094   1.651   3.662   3.892 -1.0762 -0.5180  0.0049
 1227TIP3   OH225095   6.381   2.789  16.131  0.6590  0.3366 -0.9470
 1227TIP3    H125096   6.309   2.733  16.159  0.8895  0.4986 -0.0035
 1227TIP3    H225097   6.354   2.877  16.155  0.8771  0.4797 -1.2140
 1228TIP3   OH225098   0.544   6.334   0.125 -0.6687  0.0439 -0.0231
 1228TIP3    H125099   0.570   6.376   0.207 -1.3127  0.3350  0.0346
 1228TIP3    H225100   0.496   6.256   0.152 -0.3216 -0.2075 -0.1280
 1229TIP3   OH225101   2.515   5.137  11.410 -0.1142  0.0900 -0.2157
 1229TIP3    H125102   2.448   5.180  11.463  0.1691  0.1262  0.1079
 1229TIP3    H225103   2.465   5.080  11.351 -0.5141  1.0532 -0.8411
 1230TIP3   OH225104   4.185   4.666  16.466  0.9458 -0.7900 -0.0734
 1230TIP3    H125105   4.120   4.598  16.447 -1.1644  0.5737  1.6930
 1230TIP3    H225106   4.144   4.718  16.536  4.2018 -0.1461  1.5192
 1231TIP3   OH225107   5.738   3.425  16.713  0.1755 -0.4024 -0.2132
 1231TIP3    H125108   5.673   3.396  16.777  0.4183 -1.1355 -0.2881
 1231TIP3    H225109   5.699   3.501  16.672 -0.1076 -0.0995  0.6019
 1232TIP3   OH225110   1.162   4.453  11.727  0.2272 -0.2038  0.0169
 1232TIP3    H125111   1.226   4.396  11.769 -0.0351  0.9295  2.1132
 1232TIP3    H225112   1.207   4.538  11.721 -0.5802  0.2396  0.1783
 1233TIP3   OH225113   1.969   4.292  12.203 -0.5964 -0.4269 -0.1539
 1233TIP3    H125114   1.974   4.364  12.141 -1.1543  0.0085  0.2998
 1233TIP3    H225115   2.003   4.216  12.154 -0.8736 -0.0590 -0.9302
 1234TIP3   OH225116   0.343   5.823  12.732  0.1755 -0.1155  0.7627
 1234TIP3    H125117   0.359   5.766  12.657 -0.3066 -2.2581  2.1851
 1234TIP3    H225118   0.248   5.834  12.734  0.3009  1.1874  0.2190
 1235TIP3   OH225119   1.417   4.322  11.202 -0.5433 -0.6786 -0.4935
 1235TIP3    H125120   1.505   4.310  11.166 -0.1772  1.1301 -0.3174
 1235TIP3    H225121   1.431   4.339  11.295 -0.9203  0.8896 -0.6846
 1236TIP3   OH225122   6.505   6.373  12.141 -0.7350  0.6688  0.4026
 1236TIP3    H125123   6.475   6.446  12.195 -0.6519  1.3183 -0.4030
 1236TIP3    H225124   6.588   6.404  12.103  0.8891 -0.9756  2.3675
 1237TIP3   OH225125   3.121   1.782  13.909  0.1060 -0.6773  0.0522
 1237TIP3    H125126   3.196   1.743  13.863  0.8456 -0.3207  0.9234
 1237TIP3    H225127   3.126   1.746  13.997  1.5384  2.2098  1.2826
 1238TIP3   OH225128   5.889   5.546   3.028  0.1510  0.7436  0.1584
 1238TIP3    H125129   5.895   5.524   2.936 -1.5166  0.7101  0.0260
 1238TIP3    H225130   5.866   5.464   3.071  0.6812  0.8080  0.5719
 1239TIP3   OH225131   3.644   0.624   3.465  0.3364  0.0616 -0.2744
 1239TIP3    H125132   3.595   0.561   3.413 -0.4388  0.4849 -0.0661
 1239TIP3    H225133   3.696   0.672   3.401  0.9635 -0.7977 -0.4320
 1240TIP3   OH225134   0.887   5.755   0.169 -0.5806  0.3226  0.2254
 1240TIP3    H125135   0.796   5.728   0.162 -0.9304  1.3580  0.5311
 1240TIP3    H225136   0.893   5.835   0.116 -0.1420  0.9170  1.1329
 1241TIP3   OH225137   3.856   3.402  17.090 -0.2783  0.8906  0.5315
 1241TIP3    H125138   3.951   3.401  17.104 -0.0451  1.5139 -0.8765
 1241TIP3    H225139   3.833   3.495  17.094 -0.7117  0.8017  0.0831
 1242TIP3   OH225140   5.891   2.935   5.175  0.0034  0.0786  0.5767
 1242TIP3    H125141   5.804   2.948   5.138 -1.2841  0.2612  3.4443
 1242TIP3    H225142   5.884   2.855   5.226  2.0614 -0.8488 -0.4569
 1243TIP3   OH225143   5.785   0.737  16.453  0.3125  0.9491 -0.5988
 1243TIP3    H125144   5.733   0.675  16.403  1.5111 -0.2805 -0.3725
 1243TIP3    H225145   5.771   0.712  16.545  0.1360  1.5714 -0.4465
 1244TIP3   OH225146   1.937   5.147   6.651  0.4527 -0.9228  0.5644
 1244TIP3    H125147   1.867   5.175   6.591 -0.4465  0.0016  1.9893
 1244TIP3    H225148   1.914   5.058   6.675 -0.3521 -0.5663  1.1565
 1245TIP3   OH225149   3.410   4.919   1.406 -0.7041 -0.2003 -0.4250
 1245TIP3    H125150   3.371   5.006   1.409  0.2061  0.2011  1.2216
 1245TIP3    H225151   3.337   4.859   1.416 -1.2323  0.4066 -0.5816
 1246TIP3   OH225152   0.891   6.208   3.955  0.6088  0.0427 -0.1599
 1246TIP3    H125153   0.887   6.112   3.962  0.6738 -0.1192 -1.9806
 1246TIP3    H225154   0.804   6.233   3.924  1.2755  0.3330 -1.8696
 1247TIP3   OH225155   4.571   5.818  17.098 -0.2708 -0.3766 -0.2295
 1247TIP3    H125156   4.627   5.757  17.051 -0.6885 -0.5956 -0.4466
 1247TIP3    H225157   4.486   5.810  17.056 -0.4951 -0.1292  0.1703
 1248TIP3   OH225158   2.243   5.130   3.435 -0.4059  0.0181 -0.0144
 1248TIP3    H125159   2.240   5.052   3.491  1.5743 -1.2248 -1.5283
 1248TIP3    H225160   2.165   5.123   3.380 -1.2613  0.1636  1.1410
 1249TIP3   OH225161   0.762   3.038   2.167  0.9641  0.1772  0.2852
 1249TIP3    H125162   0.694   3.095   2.131  0.4220  0.3262  1.4945
 1249TIP3    H225163   0.821   3.020   2.093  0.8686  1.8952 -0.2401
 1250TIP3   OH225164   6.749   4.829  15.797  0.6714 -0.2041  0.2535
 1250TIP3    H125165   6.721   4.918  15.776 -0.3846 -1.0066 -2.0235
 1250TIP3    H225166   6.787   4.836  15.885  0.2189  2.3847  0.3160
 1251TIP3   OH225167   6.232   1.116  12.976 -0.1697  0.3051 -0.0283
 1251TIP3    H125168   6.210   1.131  12.884 -1.1823  1.6519  0.4050
 1251TIP3    H225169   6.149   1.093  13.017  0.5790 -2.2577  0.2371
 1252TIP3   OH225170   4.031   6.552   1.959  0.0067  0.0553  0.5857
 1252TIP3    H125171   4.107   6.550   1.901  0.7327  0.4310  1.4944
 1252TIP3    H225172   4.019   6.462   1.987 -0.6965 -0.2339 -0.5491
 1253TIP3   OH225173   4.106   1.544   4.539 -0.1665  0.4643 -0.0025
 1253TIP3    H125174   4.188   1.591   4.527  0.8021 -0.9842  0.5194
 1253TIP3    H225175   4.102   1.527   4.634 -0.9715  0.3327 -0.0476
 1254TIP3   OH225176   0.716   4.215  11.660 -0.1655  0.3386  0.4091
 1254TIP3    H125177   0.633   4.219  11.612  0.2037 -0.7474 -0.3584
 1254TIP3    H225178   0.757   4.300  11.645 -0.7935  0.6093  0.1746
 1255TIP3   OH225179   0.263   0.456  15.685  0.2938  0.1061 -0.0060
 1255TIP3    H125180   0.358   0.448  15.682  0.4202  0.9679  1.0505
 1255TIP3    H225181   0.237   0.406  15.763  0.0836  1.3094  0.7279
 1256TIP3   OH225182   2.830   0.502   2.916 -0.0966 -0.1712 -0.1910
 1256TIP3    H125183   2.774   0.560   2.968  0.6731 -0.6184  1.1908
 1256TIP3    H225184   2.783   0.492   2.833 -1.0352  1.1170  0.1437
 1257TIP3   OH225185   6.435   5.633   6.618  0.3348 -0.5170  0.3579
 1257TIP3    H125186   6.448   5.683   6.537  2.5146 -2.8008 -0.8320
 1257TIP3    H225187   6.403   5.548   6.589  0.0286 -1.0037  2.0239
 1258TIP3   OH225188   0.782   5.447  14.552  0.3882 -0.0470 -0.0305
 1258TIP3    H125189   0.709   5.434  14.492  2.2715 -0.0403 -2.4453
 1258TIP3    H225190   0.827   5.362  14.556  1.9007  0.6659 -0.9386
 1259TIP3   OH225191   3.424   2.999   2.637 -0.0507  0.1263  0.2264
 1259TIP3    H125192   3.448   2.923   2.584 -2.3615 -0.6241  0.1520
 1259TIP3    H225193   3.479   3.070   2.604 -0.2844 -0.6876 -2.1076
 1260TIP3   OH225194   5.572   1.309  16.423 -0.4333  0.5586  0.3876
 1260TIP3    H125195   5.593   1.216  16.433  0.7329  0.6319 -1.1002
 1260TIP3    H225196   5.634   1.353  16.482 -1.5475  0.3786  1.7358
 1261TIP3   OH225197   4.913   1.449  16.757 -0.2168  0.0750  0.7348
 1261TIP3    H125198   4.824   1.428  16.785 -0.0678 -1.8768 -0.0905
 1261TIP3    H225199   4.967   1.378  16.792  0.7007  0.2080 -0.3591
 1262TIP3   OH225200   3.042   0.787   0.238 -0.6532  0.0237 -0.4094
 1262TIP3    H125201   2.977   0.789   0.308  1.2740 -0.3046  1.4962
 1262TIP3    H225202   2.996   0.751   0.163 -3.1112  1.3926  0.3196
 1263TIP3   OH225203   2.555   6.083  12.955 -0.1420  0.1658  0.0278
 1263TIP3    H125204   2.583   5.998  12.920 -1.1315  0.8810 -2.7522
 1263TIP3    H225205   2.616   6.146  12.917 -0.6584  0.9075  0.4212
 1264TIP3   OH225206   2.407   2.037   2.427  0.0656 -0.2597  0.3693
 1264TIP3    H125207   2.366   2.054   2.512  0.5830 -1.1176  0.7978
 1264TIP3    H225208   2.497   2.013   2.448  0.4653  0.4258 -0.4909
 1265TIP3   OH225209   4.685   5.936  15.696  0.3790  0.0547 -0.3927
 1265TIP3    H125210   4.746   5.968  15.629  0.2183  1.8937  0.2717
 1265TIP3    H225211   4.706   5.989  15.773 -1.2462 -0.1500  0.2125
 1266TIP3   OH225212   2.431   0.163  13.499  0.4261  0.0095  0.2792
 1266TIP3    H125213   2.456   0.130  13.585 -0.1458  0.0288  0.4557
 1266TIP3    H225214   2.368   0.232  13.517 -1.8342 -1.7773 -0.1926
 1267TIP3   OH225215   3.926   0.829  12.716  0.6293 -0.0250  0.5229
 1267TIP3    H125216   3.846   0.797  12.758 -0.0863  0.8193 -0.1687
 1267TIP3    H225217   3.914   0.811  12.623 -0.3185  3.1143 -0.0935
 1268TIP3   OH225218   0.598   5.643  14.335  0.4982 -0.0040  0.3068
 1268TIP3    H125219   0.683   5.674  14.363  0.5026 -0.4865  0.8637
 1268TIP3    H225220   0.606   5.630  14.240  0.6292  1.2104  0.1432
 1269TIP3   OH225221   6.237   3.965  14.256 -0.3677  0.8841  0.0419
 1269TIP3    H125222   6.264   3.874  14.267  0.1479  1.1605  1.1922
 1269TIP3    H225223   6.215   3.994  14.345  0.4375  2.1674 -0.1571
 1270TIP3   OH225224   5.047   4.749   0.403 -0.9652  0.2154 -0.0068
 1270TIP3    H125225   5.082   4.824   0.452 -0.8006 -0.5697  1.1115
 1270TIP3    H225226   5.113   4.681   0.413  1.1620  1.1575 -4.7751
 1271TIP3   OH225227   1.820   3.233  14.848 -0.4008  0.2603 -0.1097
 1271TIP3    H125228   1.785   3.189  14.771  2.1928 -0.1084 -1.1949
 1271TIP3    H225229   1.860   3.164  14.901 -0.7793  0.6986  0.7764
 1272TIP3   OH225230   3.292   5.323  14.405 -0.2446 -0.2658  0.4120
 1272TIP3    H125231   3.222   5.261  14.426 -0.2009 -0.4406  0.0624
 1272TIP3    H225232   3.342   5.331  14.486 -1.9233  1.5444  1.3305
 1273TIP3   OH225233   5.999   6.716  16.266  0.5240  0.1609 -0.3205
 1273TIP3    H125234   6.056   6.644  16.238 -0.6778 -1.3551  0.9048
 1273TIP3    H225235   6.058   6.778  16.309  1.5221 -0.3928 -0.8454
 1274TIP3   OH225236   6.669   3.869   1.667 -0.0134 -0.2416  0.1830
 1274TIP3    H125237   6.712   3.931   1.727  1.3490  1.3898 -2.2958
 1274TIP3    H225238   6.716   3.787   1.681  1.0556  0.4072  0.5630
 1275TIP3   OH225239   2.510   3.425   1.601  0.0089  0.2697 -0.6955
 1275TIP3    H125240   2.433   3.373   1.577  0.0464  0.0778 -0.4173
 1275TIP3    H225241   2.558   3.437   1.519 -0.1838  0.1637 -0.8240
 1276TIP3   OH225242   0.048   1.042   2.033  0.3751 -0.5159  0.3474
 1276TIP3    H125243   0.035   1.028   1.940  0.6693 -0.1069  0.2413
 1276TIP3    H225244   0.139   1.070   2.041  0.3009 -0.3707  0.7338
 1277TIP3   OH225245   5.570   5.120  17.039 -0.2077  0.1877 -0.3915
 1277TIP3    H125246   5.556   5.169  16.957 -0.4305 -1.1763 -1.2039
 1277TIP3    H225247   5.569   5.028  17.012  0.3310 -0.2732  1.0729
 1278TIP3   OH225248   3.744   3.835  15.841  0.0608  0.3299  0.6353
 1278TIP3    H125249   3.789   3.775  15.901 -0.0716 -0.2868  0.1282
 1278TIP3    H225250   3.815   3.878  15.793  0.1268 -0.7357 -0.2515
 1279TIP3   OH225251   6.540   0.206   2.302 -0.3089  0.2694 -0.2608
 1279TIP3    H125252   6.510   0.288   2.341 -2.2231  0.1359 -1.3238
 1279TIP3    H225253   6.546   0.145   2.375 -0.4273  0.9376  0.3093
 1280TIP3   OH225254   2.095   0.402  12.948 -0.1346 -0.5027 -0.7742
 1280TIP3    H125255   2.033   0.349  12.997  0.2053 -2.0998 -1.9864
 1280TIP3    H225256   2.181   0.367  12.970  0.3470  1.2724  0.3936
 1281TIP3   OH225257   1.568   1.068  16.147  0.2081 -0.0005  0.1019
 1281TIP3    H125258   1.500   1.053  16.081 -2.9809 -0.9239  3.2772
 1281TIP3    H225259   1.611   0.984  16.157  1.0500  0.2655 -1.0271
 1282TIP3   OH225260   2.689   1.873  16.450  0.3785  0.5876 -0.3756
 1282TIP3    H125261   2.761   1.814  16.428 -0.2276 -0.6844  0.8388
 1282TIP3    H225262   2.613   1.835  16.405 -0.1916 -0.1059  1.1005
 1283TIP3   OH225263   3.735   0.934  14.683 -0.2384  0.0270  0.1660
 1283TIP3    H125264   3.807   0.951  14.622 -0.0877 -0.5081  0.1881
 1283TIP3    H225265   3.778   0.918  14.767 -0.4343  0.5348  0.3678
 1284TIP3   OH225266   0.728   5.449   4.329 -0.0295  0.0905  0.1537
 1284TIP3    H125267   0.647   5.448   4.380 -0.9574 -0.7280 -1.2330
 1284TIP3    H225268   0.728   5.535   4.287 -1.7402 -0.8661 -2.0525
 1285TIP3   OH225269   4.052   5.428   0.744 -0.5383 -0.4079 -0.1051
 1285TIP3    H125270   4.138   5.405   0.780 -0.1934  0.4895 -0.3012
 1285TIP3    H225271   4.011   5.482   0.811 -0.8298 -0.6053 -0.1254
 1286TIP3   OH225272   4.212   0.910  12.777  0.3104  0.1183  0.1251
 1286TIP3    H125273   4.161   0.856  12.717  0.3828 -0.7149  0.7867
 1286TIP3    H225274   4.298   0.869  12.779  0.3168  0.1474  0.7679
 1287TIP3   OH225275   3.101   3.570   3.202 -0.3577  0.1198  0.0306
 1287TIP3    H125276   3.178   3.625   3.188 -0.4562 -0.0117 -1.0751
 1287TIP3    H225277   3.030   3.615   3.155 -0.5933 -0.5846 -0.3016
 1288TIP3   OH225278   0.363   6.448  13.425 -0.1552  0.0165  0.3165
 1288TIP3    H125279   0.423   6.440  13.499  0.8064  0.4902 -0.3953
 1288TIP3    H225280   0.411   6.410  13.351 -0.7098  0.4546 -0.2790
 1289TIP3   OH225281   5.417   6.646  13.909  0.4665 -0.5875 -0.4173
 1289TIP3    H125282   5.430   6.709  13.839  1.7959 -1.3855 -0.9271
 1289TIP3    H225283   5.500   6.645  13.957 -0.6592  0.4872  1.6632
 1290TIP3   OH225284   5.703   0.989  16.203 -0.4435 -0.2698 -0.5576
 1290TIP3    H125285   5.711   1.004  16.297 -0.3888 -0.1804 -0.5762
 1290TIP3    H225286   5.614   0.957  16.191 -1.0833  1.4642 -0.6894
 1291TIP3   OH225287   3.264   6.580  14.689 -0.0023  0.2378 -0.0851
 1291TIP3    H125288   3.289   6.540  14.606 -0.4581  0.3335 -0.2654
 1291TIP3    H225289   3.313   6.662  14.692  0.5755 -0.1008  0.0754
 1292TIP3   OH225290   1.425   2.986   1.365  0.4175  0.5879  0.6697
 1292TIP3    H125291   1.337   3.024   1.360  1.0408  1.8906 -1.9851
 1292TIP3    H225292   1.483   3.062   1.361  1.6896 -0.3604  0.7649
 1293TIP3   OH225293   2.228   3.659  16.138 -0.0264 -0.6267 -0.1844
 1293TIP3    H125294   2.239   3.564  16.148 -0.6030 -0.9589 -2.1998
 1293TIP3    H225295   2.143   3.677  16.179  0.9297 -0.6152  1.9008
 1294TIP3   OH225296   6.608   4.644  11.181 -0.4484 -0.1033  0.4577
 1294TIP3    H125297   6.547   4.610  11.115 -1.4014  0.7949  0.8556
 1294TIP3    H225298   6.559   4.641  11.263  0.1130  0.4430  0.8254
 1295TIP3   OH225299   3.145   3.731  11.446  0.3905  0.1223 -0.1314
 1295TIP3    H125300   3.184   3.725  11.359 -1.2004 -1.7393 -0.7864
 1295TIP3    H225301   3.065   3.680  11.440 -0.0560  0.4136  2.2919
 1296TIP3   OH225302   4.823   4.357  15.421 -0.3220 -0.6905 -0.3625
 1296TIP3    H125303   4.827   4.431  15.481  1.9850  0.4974 -1.8613
 1296TIP3    H225304   4.859   4.283  15.472 -0.6003 -0.2830  0.4439
 1297TIP3   OH225305   3.312   0.958  14.679  0.4898  0.2986  0.2427
 1297TIP3    H125306   3.373   1.020  14.718  1.9524  1.8599 -3.9619
 1297TIP3    H225307   3.244   1.013  14.640 -1.9150 -1.2497  1.9662
 1298TIP3   OH225308   1.243   0.076   1.513 -0.3527  0.7364  0.4589
 1298TIP3    H125309   1.298   0.072   1.435 -0.3974 -0.7930  0.4837
 1298TIP3    H225310   1.279   0.149   1.564 -1.2305  2.7664 -1.6063
 1299TIP3   OH225311   1.112   2.905   2.148 -0.0988 -0.1060 -0.0847
 1299TIP3    H125312   1.194   2.876   2.107  0.2981  1.6384 -0.6618
 1299TIP3    H225313   1.058   2.935   2.075 -1.6674 -2.0743  0.2001
 1300TIP3   OH225314   5.826   3.380  12.243  0.7736  0.3948 -0.0289
 1300TIP3    H125315   5.806   3.305  12.298 -1.1226  1.8029  1.3279
 1300TIP3    H225316   5.921   3.386  12.245  0.8906 -1.1750  0.8989
 1301TIP3   OH225317   2.650   6.483   2.725  0.1352  0.1302  0.1154
 1301TIP3    H125318   2.659   6.475   2.630 -0.5080  0.3672  0.0354
 1301TIP3    H225319   2.591   6.557   2.738  0.0032 -0.0702  0.6941
 1302TIP3   OH225320   0.148   0.215  14.766  0.0010 -0.1488 -0.0819
 1302TIP3    H125321   0.073   0.210  14.705 -1.9263  3.5640  1.6578
 1302TIP3    H225322   0.213   0.267  14.719 -1.0567  1.7930  0.4812
 1303TIP3   OH225323   0.147   6.692   1.187 -0.5787 -0.3893  0.4340
 1303TIP3    H125324   0.194   6.628   1.240  0.2828 -2.0020 -2.0507
 1303TIP3    H225325   0.055   6.679   1.208 -0.4702 -2.7861 -0.2022
 1304TIP3   OH225326   4.228   4.579  16.184  0.2166  0.7936  0.2750
 1304TIP3    H125327   4.236   4.489  16.214  1.4036  0.7262 -0.1612
 1304TIP3    H225328   4.247   4.632  16.261  0.5128  0.6516  0.3023
 1305TIP3   OH225329   3.364   6.351   0.555  0.5137 -0.6330  0.5110
 1305TIP3    H125330   3.295   6.413   0.576  1.6825  0.5123  1.1334
 1305TIP3    H225331   3.397   6.322   0.640  1.3515 -0.5151  0.2387
 1306TIP3   OH225332   2.673   0.646   2.352  1.1976  0.3382 -0.2436
 1306TIP3    H125333   2.626   0.683   2.427  2.5113  0.4095  0.5637
 1306TIP3    H225334   2.665   0.712   2.283  2.2420  1.4958  0.6990
 1307TIP3   OH225335   3.783   0.374  15.223 -0.6173 -0.5607  0.2417
 1307TIP3    H125336   3.736   0.291  15.221  0.7090 -1.3313 -0.1496
 1307TIP3    H225337   3.778   0.403  15.314 -0.6400 -1.3422  0.4938
 1308TIP3   OH225338   3.442   6.711   2.493 -0.2247  0.8356 -0.2350
 1308TIP3    H125339   3.361   6.718   2.543  0.0991 -2.3672  0.9446
 1308TIP3    H225340   3.414   6.710   2.402 -1.4873  0.0393  0.1421
 1309TIP3   OH225341   2.998   0.484  12.565  0.3894 -0.0222  0.5777
 1309TIP3    H125342   2.992   0.441  12.479 -1.7901  0.6894  0.3041
 1309TIP3    H225343   3.052   0.561  12.549  1.2235 -0.6703  0.2039
 1310TIP3   OH225344   0.646   6.427  12.954  0.0758  0.0649 -0.4123
 1310TIP3    H125345   0.737   6.458  12.958  0.5089 -0.7262 -2.7714
 1310TIP3    H225346   0.647   6.359  12.887 -2.4740  0.7379 -1.2227
 1311TIP3   OH225347   1.401   5.580  16.724 -0.0756 -0.0930 -0.0903
 1311TIP3    H125348   1.366   5.667  16.703 -0.5475 -0.2124  0.1859
 1311TIP3    H225349   1.331   5.537  16.772  0.3440 -0.4502  0.2085
 1312TIP3   OH225350   1.122   5.274  15.585 -0.3193 -0.2481 -0.0795
 1312TIP3    H125351   1.144   5.207  15.650  0.9031  0.9855  0.8405
 1312TIP3    H225352   1.048   5.321  15.623 -0.6582 -0.5728 -0.3428
 1313TIP3   OH225353   5.932   0.937   3.592 -0.1189  0.0612 -0.2507
 1313TIP3    H125354   6.025   0.927   3.612 -0.1986  2.1158  1.5152
 1313TIP3    H225355   5.930   0.995   3.516  0.2301  5.4809  3.3092
 1314TIP3   OH225356   3.516   4.914   0.200 -0.6041  0.5823  0.5118
 1314TIP3    H125357   3.493   4.822   0.212 -0.3125  0.4149 -0.1579
 1314TIP3    H225358   3.436   4.954   0.165 -0.5889  0.4827  0.3620
 1315TIP3   OH225359   1.688   2.176   0.319 -0.0138  0.1660  0.0512
 1315TIP3    H125360   1.710   2.093   0.278  0.7188  1.2850 -1.9260
 1315TIP3    H225361   1.768   2.203   0.364 -0.0168  0.1856  0.0445
 1316TIP3   OH225362   4.901   0.614  17.122 -0.1218  0.2161 -0.2544
 1316TIP3    H125363   4.856   0.688  17.163  1.1502 -0.1749  2.0054
 1316TIP3    H225364   4.986   0.611  17.165 -0.3425 -2.9145  0.1777
 1317TIP3   OH225365   0.135   0.325  16.575 -0.2319 -0.0172 -0.0524
 1317TIP3    H125366   0.214   0.372  16.600  1.3231 -1.6224 -1.6522
 1317TIP3    H225367   0.146   0.306  16.482 -1.6302 -1.8723  0.0919
 1318TIP3   OH225368   6.031   2.617  14.285  0.6831  0.0105 -0.0109
 1318TIP3    H125369   6.060   2.703  14.315 -1.6626  0.9973 -0.3495
 1318TIP3    H225370   6.048   2.617  14.191  0.1373  0.3802 -0.1181
 1319TIP3   OH225371   2.343   4.063   4.077 -0.2319 -0.0429  0.5751
 1319TIP3    H125372   2.372   4.113   4.153 -0.8512  0.5525  0.4201
 1319TIP3    H225373   2.249   4.055   4.087 -0.3847  0.4582 -0.3750
 1320TIP3   OH225374   2.382   3.923  15.763 -0.1686  0.0759 -0.1079
 1320TIP3    H125375   2.399   3.968  15.846  0.3434 -1.1296  0.4850
 1320TIP3    H225376   2.346   3.838  15.790 -0.9206  0.0456 -1.1704
 1321TIP3   OH225377   5.023   2.304   3.961  0.0132  0.0591  0.0529
 1321TIP3    H125378   4.940   2.292   3.916  0.4912 -1.7793 -0.3943
 1321TIP3    H225379   5.006   2.280   4.052  0.0412 -0.2707 -0.0290
 1322TIP3   OH225380   2.998   4.017   3.565 -0.1513 -0.1738 -0.5108
 1322TIP3    H125381   2.979   4.106   3.533 -1.4601  0.3308  1.5237
 1322TIP3    H225382   3.093   4.013   3.566 -0.0233  1.7465  0.6780
 1323TIP3   OH225383   3.264   3.480  17.199  0.2648  0.2373 -0.7033
 1323TIP3    H125384   3.299   3.548  17.257 -0.2875 -0.1698  0.1291
 1323TIP3    H225385   3.309   3.400  17.226 -0.4863 -0.0799 -0.3857
 1324TIP3   OH225386   6.378   2.314  16.630  0.0612  0.2619 -0.1054
 1324TIP3    H125387   6.316   2.333  16.559 -0.1072  0.3647  0.0687
 1324TIP3    H225388   6.421   2.233  16.603 -0.9614 -0.4502  0.3141
 1325TIP3   OH225389   3.359   6.612  13.751 -0.3354  0.0760  0.5381
 1325TIP3    H125390   3.365   6.687  13.691  0.0018  1.8643  2.7088
 1325TIP3    H225391   3.421   6.548  13.715  0.8568  1.6335 -0.3006
 1326TIP3   OH225392   2.574   6.674  11.780  0.2060 -0.2334  0.1355
 1326TIP3    H125393   2.485   6.639  11.773  0.5597 -0.8929 -1.4742
 1326TIP3    H225394   2.590   6.717  11.696  1.6353 -0.6691  0.1581
 1327TIP3   OH225395   3.931   6.198   0.611  0.8025  0.3351  0.3069
 1327TIP3    H125396   3.969   6.280   0.640  0.6067  1.0228 -1.3056
 1327TIP3    H225397   3.837   6.207   0.631  1.0574 -0.3446  1.9715
 1328TIP3   OH225398   0.155   2.745  17.244  0.6328 -0.1795  0.2585
 1328TIP3    H125399   0.103   2.760  17.323  0.6899  0.3494  0.1993
 1328TIP3    H225400   0.182   2.832  17.216  0.2019 -0.3223 -0.6269
 1329TIP3   OH225401   3.524   1.119  14.754 -0.3801 -0.0645  0.1029
 1329TIP3    H125402   3.574   1.141  14.832  0.1211  1.3020 -0.5683
 1329TIP3    H225403   3.588   1.080  14.694 -0.9727 -2.1191  0.7292
 1330TIP3   OH225404   5.741   5.301   2.649  0.2696 -0.1463  0.4569
 1330TIP3    H125405   5.779   5.377   2.694 -0.3216  0.2366  0.3221
 1330TIP3    H225406   5.816   5.259   2.606  0.6897  0.0230  1.0190
 1331TIP3   OH225407   4.724   3.706   0.314  0.2304 -0.1105  0.4905
 1331TIP3    H125408   4.669   3.746   0.247  1.7784 -0.7429 -1.2531
 1331TIP3    H225409   4.705   3.613   0.309  1.6599 -0.3949 -0.4210
 1332TIP3   OH225410   2.287   1.791   2.404  0.1852 -0.4689  0.6614
 1332TIP3    H125411   2.322   1.724   2.345  0.2623  0.2796 -0.1783
 1332TIP3    H225412   2.342   1.868   2.387  0.5671 -0.3961  2.1397
 1333TIP3   OH225413   5.458   3.356   1.240  0.1504  0.3418 -0.0187
 1333TIP3    H125414   5.456   3.441   1.283  0.5192  1.0921 -1.4310
 1333TIP3    H225415   5.550   3.327   1.247  0.7782  1.5611 -2.2709
 1334TIP3   OH225416   2.785   5.698  16.192  0.1201  0.7153  0.1172
 1334TIP3    H125417   2.795   5.685  16.286 -1.4322  0.6916  0.2973
 1334TIP3    H225418   2.710   5.756  16.183 -1.8030 -1.7781 -1.1875
 1335TIP3   OH225419   0.931   2.471   1.035 -0.1565 -0.0602 -0.1546
 1335TIP3    H125420   0.980   2.534   0.983  0.2149  0.0811  0.3540
 1335TIP3    H225421   0.864   2.436   0.975 -1.7921  2.3692  0.1250
 1336TIP3   OH225422   3.127   6.070  12.114 -0.5924 -0.2212  0.2278
 1336TIP3    H125423   3.036   6.048  12.134 -0.4918  0.5035  1.5914
 1336TIP3    H225424   3.125   6.163  12.090 -0.3036 -0.3871 -0.4769
 1337TIP3   OH225425   0.346   6.069  13.396  0.2640 -0.0080 -0.1147
 1337TIP3    H125426   0.422   6.075  13.339 -0.0151 -0.0875 -0.4992
 1337TIP3    H225427   0.356   5.986  13.442 -0.4831 -0.8679 -1.4617
 1338TIP3   OH225428   4.710   5.696   1.891 -0.5461  0.0267  0.0717
 1338TIP3    H125429   4.695   5.654   1.976 -1.6214 -0.3237 -0.2729
 1338TIP3    H225430   4.750   5.627   1.837 -2.0964 -0.5417 -0.4222
 1339TIP3   OH225431   2.400   1.798  11.407 -0.5722  0.7152  0.3582
 1339TIP3    H125432   2.471   1.770  11.349  0.4012  0.8463  1.4301
 1339TIP3    H225433   2.413   1.892  11.416  0.0256  0.5280  1.6868
 1340TIP3   OH225434   1.668   3.755   4.661 -0.2555  0.8997 -0.5265
 1340TIP3    H125435   1.631   3.838   4.689 -0.9605  0.8908 -1.3611
 1340TIP3    H225436   1.693   3.769   4.569  1.1587  0.6765 -0.1935
 1341TIP3   OH225437   0.154   2.617  15.456 -0.4783  0.7110 -0.4006
 1341TIP3    H125438   0.240   2.588  15.488 -1.1517 -0.7055  0.2274
 1341TIP3    H225439   0.155   2.712  15.467  1.6842  0.9725 -2.1370
 1342TIP3   OH225440   2.249   6.592   2.254 -0.1814 -0.5390 -0.0523
 1342TIP3    H125441   2.241   6.680   2.217 -1.0598 -0.6712 -0.2028
 1342TIP3    H225442   2.175   6.544   2.217 -0.5365 -0.9340  1.1312
 1343TIP3   OH225443   0.204   4.069  15.185  0.1430 -0.5704 -0.1238
 1343TIP3    H125444   0.249   4.143  15.225  1.2004  0.0922 -2.3288
 1343TIP3    H225445   0.146   4.109  15.120  0.4756 -1.6279 -1.1114
 1344TIP3   OH225446   0.361   5.753  12.456  0.0249 -0.1320 -0.4392
 1344TIP3    H125447   0.422   5.827  12.457  0.3486 -0.3940  0.6026
 1344TIP3    H225448   0.299   5.774  12.386 -0.6351  1.7388  0.6273
 1345TIP3   OH225449   2.055   4.285  17.170  0.2422  0.4783 -0.1385
 1345TIP3    H125450   2.034   4.249  17.083 -1.1950  0.3081  0.2483
 1345TIP3    H225451   2.128   4.344  17.154 -0.0086  0.4741 -1.4806
 1346TIP3   OH225452   6.317   6.408  15.847 -0.3068  0.4274 -0.3103
 1346TIP3    H125453   6.410   6.392  15.858 -0.2092 -0.0052 -1.6154
 1346TIP3    H225454   6.311   6.462  15.767 -1.2159 -0.2376 -0.7055
 1347TIP3   OH225455   0.863   0.456  15.851 -0.2257 -0.5149  0.4095
 1347TIP3    H125456   0.890   0.487  15.938 -0.8472 -0.1928  0.5008
 1347TIP3    H225457   0.940   0.412  15.816  1.1544  2.1972 -0.2409
 1348TIP3   OH225458   5.023   5.151  15.200 -0.2497  0.2573 -0.3085
 1348TIP3    H125459   5.093   5.216  15.211  0.2118 -0.4788  1.4845
 1348TIP3    H225460   5.069   5.067  15.201 -0.9775 -0.1797 -1.2936
 1349TIP3   OH225461   2.713   1.078   3.522 -0.1034 -0.1863  0.6349
 1349TIP3    H125462   2.791   1.132   3.507  0.9440 -1.6258  0.7422
 1349TIP3    H225463   2.738   1.019   3.592 -1.6179 -0.0988  1.2889
 1350TIP3   OH225464   3.214   5.474   2.226 -0.1603  0.2599  0.2988
 1350TIP3    H125465   3.294   5.524   2.241 -0.9002  2.0907 -1.4581
 1350TIP3    H225466   3.212   5.459   2.131 -0.4667 -2.3550  0.6384
 1351TIP3   OH225467   2.707   2.130  13.780  0.2101 -0.3185 -0.5934
 1351TIP3    H125468   2.623   2.098  13.812  0.6095  0.1656  1.0491
 1351TIP3    H225469   2.767   2.118  13.854  1.2245  0.7819 -1.1984
 1352TIP3   OH225470   1.779   1.508  16.051  0.0699  0.2312 -0.1085
 1352TIP3    H125471   1.823   1.544  15.975  0.3513  0.6555  0.2503
 1352TIP3    H225472   1.725   1.436  16.016  0.1902  0.4247 -0.7012
 1353TIP3   OH225473   5.279   6.110   0.586  0.5378  0.0956 -0.4597
 1353TIP3    H125474   5.337   6.081   0.656  0.0495  1.0709  0.3813
 1353TIP3    H225475   5.213   6.163   0.630  0.6123  1.3122 -1.7225
 1354TIP3   OH225476   5.407   6.336  17.009  0.3206  0.4049 -0.4621
 1354TIP3    H125477   5.343   6.354  17.078  1.2394 -1.9414  1.1350
 1354TIP3    H225478   5.355   6.305  16.935 -0.4927 -0.0436  0.2812
 1355TIP3   OH225479   3.553   1.476   0.569  0.4690  0.1915  0.4721
 1355TIP3    H125480   3.589   1.449   0.653  0.5916 -1.0724  0.0363
 1355TIP3    H225481   3.464   1.443   0.569 -0.1233  1.6894  0.7799
 1356TIP3   OH225482   2.978   1.288  16.896 -0.1140 -0.3814 -0.3654
 1356TIP3    H125483   2.939   1.251  16.976  0.0899  0.1141 -0.0338
 1356TIP3    H225484   3.011   1.373  16.923  1.6777 -0.9984 -0.5116
 1357TIP3   OH225485   3.112   1.129  13.415 -0.3182  0.6075  0.2441
 1357TIP3    H125486   3.122   1.105  13.323 -1.0582 -1.1161  0.5697
 1357TIP3    H225487   3.050   1.202  13.414  0.5517  1.3566 -0.6807
 1358TIP3   OH225488   1.067   2.307  15.315 -0.1090  0.6463 -0.1586
 1358TIP3    H125489   1.089   2.400  15.305  1.3481  0.3862  0.3647
 1358TIP3    H225490   1.131   2.261  15.260 -1.0930 -0.0420 -0.7573
 1359TIP3   OH225491   3.517   4.287   1.436  0.3198  0.0643  0.8232
 1359TIP3    H125492   3.556   4.214   1.485  1.1975 -0.5889 -0.7505
 1359TIP3    H225493   3.542   4.270   1.345 -3.3655 -0.2084 -0.2980
 1360TIP3   OH225494   0.886   2.706  14.772 -0.6602 -0.4964  0.5215
 1360TIP3    H125495   0.841   2.645  14.714  1.0013 -0.2346 -1.1312
 1360TIP3    H225496   0.975   2.671  14.780 -0.1293  0.8468  0.8145
 1361TIP3   OH225497   5.151   4.241  15.433 -0.6402 -0.4117  0.0833
 1361TIP3    H125498   5.242   4.270  15.431 -0.6196 -0.3925  0.9556
 1361TIP3    H225499   5.122   4.248  15.342  0.2227 -0.4083 -0.2039
 1362TIP3   OH225500   0.218   2.142  11.705  0.4050 -0.0532 -0.0388
 1362TIP3    H125501   0.166   2.200  11.650 -0.4756 -1.2496 -0.5197
 1362TIP3    H225502   0.196   2.167  11.795  0.4339  0.6831 -0.2356
 1363TIP3   OH225503   3.768   2.852   2.495  0.3693  0.1684 -0.3415
 1363TIP3    H125504   3.798   2.943   2.504 -0.8353  0.4874  0.7782
 1363TIP3    H225505   3.843   2.806   2.458  1.6673  1.2557  0.8104
 1364TIP3   OH225506   5.893   2.176   5.385 -0.0320  0.0690 -0.2799
 1364TIP3    H125507   5.977   2.133   5.401  0.6758  1.5126 -0.0297
 1364TIP3    H225508   5.830   2.104   5.383  1.1852 -1.0308 -0.3911
 1365TIP3   OH225509   0.300   2.911  16.580 -0.1153  0.9341 -0.1583
 1365TIP3    H125510   0.264   2.884  16.495 -1.1677  1.2527  0.1823
 1365TIP3    H225511   0.324   2.829  16.623 -1.9164  0.5948  0.2550
 1366TIP3   OH225512   0.943   1.228   3.562 -0.1719 -0.1191 -0.1071
 1366TIP3    H125513   0.934   1.169   3.637 -1.3072 -3.5859 -2.6966
 1366TIP3    H225514   0.853   1.251   3.538  0.0982  0.0358 -1.0209
 1367TIP3   OH225515   3.274   4.696   4.980 -0.5980  0.5160  0.3145
 1367TIP3    H125516   3.283   4.673   5.073 -0.2008 -0.1876  0.1081
 1367TIP3    H225517   3.349   4.753   4.962  0.2109 -0.6104  0.0470
 1368TIP3   OH225518   4.082   2.748   5.729 -0.7752  0.1959 -0.1115
 1368TIP3    H125519   4.159   2.780   5.681  0.4216  1.2625  2.3239
 1368TIP3    H225520   4.008   2.793   5.688  0.1236  0.7006 -1.2432
 1369TIP3   OH225521   1.828   3.851   2.004 -0.3130 -1.0896  0.1647
 1369TIP3    H125522   1.860   3.919   2.063 -0.2815 -0.7104 -0.2894
 1369TIP3    H225523   1.907   3.817   1.962 -0.4255 -0.6549 -0.4138
 1370TIP3   OH225524   1.445   2.377   0.980  0.0408 -0.5170 -0.4161
 1370TIP3    H125525   1.385   2.448   0.956 -0.2678 -0.7519 -0.3452
 1370TIP3    H225526   1.475   2.399   1.068 -0.0382 -0.4601 -0.4033
 1371TIP3   OH225527   3.434   4.166   2.195  0.0978 -0.0824 -0.0655
 1371TIP3    H125528   3.349   4.162   2.239 -1.0506  2.6240 -1.8348
 1371TIP3    H225529   3.419   4.124   2.110  0.2569  1.1539 -0.7222
 1372TIP3   OH225530   6.341   3.075   1.595 -0.4381  0.2800  0.0487
 1372TIP3    H125531   6.258   3.032   1.616 -0.1824  0.3656  1.2839
 1372TIP3    H225532   6.318   3.137   1.526 -1.3799  0.2047  0.2765
 1373TIP3   OH225533   5.293   5.356   5.091 -0.1272  0.5006  0.0455
 1373TIP3    H125534   5.363   5.403   5.046 -0.5599  0.9238 -0.1920
 1373TIP3    H225535   5.222   5.352   5.027  0.2149 -1.2873 -0.2770
 1374TIP3   OH225536   3.652   1.790  14.127  0.7790  0.3445  0.6324
 1374TIP3    H125537   3.729   1.739  14.152  0.3420 -1.5740 -1.5729
 1374TIP3    H225538   3.586   1.769  14.193  1.1264 -0.6843  0.6647
 1375TIP3   OH225539   4.027   5.099   4.463  0.1139  0.1946 -0.4044
 1375TIP3    H125540   4.120   5.085   4.446 -0.4151 -2.4296 -1.6331
 1375TIP3    H225541   4.007   5.043   4.537 -0.7124 -0.1758 -0.8906
 1376TIP3   OH225542   1.424   2.586  14.278  0.3392  1.2550 -0.8527
 1376TIP3    H125543   1.410   2.491  14.280 -1.8897  1.5038 -1.8515
 1376TIP3    H225544   1.517   2.597  14.301  0.3582 -1.0639  0.4787
 1377TIP3   OH225545   0.072   5.956   0.436  0.0451  0.5506 -0.1588
 1377TIP3    H125546   0.104   5.874   0.399  0.5832 -0.0353  1.5305
 1377TIP3    H225547   0.124   6.024   0.394 -0.1129  0.0129 -1.2532
 1378TIP3   OH225548   0.641   3.782   4.926  0.7042  0.0749  0.3184
 1378TIP3    H125549   0.731   3.810   4.941  1.1924 -1.2437  0.0618
 1378TIP3    H225550   0.599   3.856   4.882  1.5484  0.8570  0.7986
 1379TIP3   OH225551   6.011   2.209  13.442 -0.2507 -0.0491 -0.5489
 1379TIP3    H125552   6.043   2.119  13.452  0.2627  0.1192 -0.6520
 1379TIP3    H225553   5.981   2.234  13.530  0.1728 -0.1072 -0.3875
 1380TIP3   OH225554   1.796   1.105   4.773 -0.2379  0.4266  0.1374
 1380TIP3    H125555   1.738   1.038   4.738 -0.7105  0.4871  0.7714
 1380TIP3    H225556   1.737   1.179   4.792  0.5308  1.7605 -2.3283
 1381TIP3   OH225557   0.580   6.054   4.110  0.2182  0.1718 -0.0930
 1381TIP3    H125558   0.513   6.106   4.155  0.7817  1.3713 -0.6228
 1381TIP3    H225559   0.580   6.087   4.021 -0.6787 -1.9832 -0.9528
 1382TIP3   OH225560   0.923   6.239   3.545  0.2570 -0.5430  0.0981
 1382TIP3    H125561   0.913   6.312   3.483  0.9155 -0.2058  0.3810
 1382TIP3    H225562   0.978   6.274   3.615 -1.5502 -0.4991  1.5695
 1383TIP3   OH225563   6.430   2.889  11.124 -0.5624 -0.5503  0.3190
 1383TIP3    H125564   6.468   2.924  11.205 -1.4084  1.2032  0.0180
 1383TIP3    H225565   6.402   2.967  11.076 -1.1739 -1.6206 -1.1223
 1384TIP3   OH225566   6.416   1.437   0.207  0.3939  0.1515  0.1367
 1384TIP3    H125567   6.399   1.451   0.114 -0.6649  0.4582  0.3679
 1384TIP3    H225568   6.505   1.402   0.210  0.2941 -0.2334 -1.0182
 1385TIP3   OH225569   3.616   6.465   2.067  0.3792 -0.4031  0.0404
 1385TIP3    H125570   3.671   6.538   2.039 -2.1450  1.4773 -0.4427
 1385TIP3    H225571   3.611   6.408   1.990  0.8215 -0.0777 -0.2375
 1386TIP3   OH225572   0.339   1.318  14.426 -0.5487  0.4050 -0.4499
 1386TIP3    H125573   0.386   1.303  14.345  0.4989  0.7556  0.0739
 1386TIP3    H225574   0.346   1.236  14.474 -0.1883  0.5625 -0.2320
 1387TIP3   OH225575   6.218   3.492  14.599 -0.0213 -0.1357  0.0518
 1387TIP3    H125576   6.259   3.537  14.673 -1.8746 -2.6371  2.8320
 1387TIP3    H225577   6.148   3.550  14.571 -1.5173 -0.5657  2.6675
 1388TIP3   OH225578   5.305   1.812   3.661  0.2188 -0.1031  0.6737
 1388TIP3    H125579   5.229   1.813   3.602  0.4810 -4.0372 -0.0011
 1388TIP3    H225580   5.268   1.832   3.747 -0.8879  1.6304 -0.1411
 1389TIP3   OH225581   4.727   1.030   0.705 -0.2984 -0.3474 -0.4999
 1389TIP3    H125582   4.712   0.937   0.719 -1.4497 -0.1623 -0.3945
 1389TIP3    H225583   4.701   1.071   0.787 -1.4107  0.2055 -1.1010
 1390TIP3   OH225584   2.028   5.104   3.288 -0.0767 -0.1081 -0.0606
 1390TIP3    H125585   1.977   5.180   3.316  2.2464  0.9181  1.6544
 1390TIP3    H225586   1.982   5.030   3.328 -2.1921  0.3334 -1.4973
 1391TIP3   OH225587   1.154   5.175   2.126 -0.4632  0.5244 -0.2206
 1391TIP3    H125588   1.092   5.104   2.106  0.7810  0.0153 -2.7029
 1391TIP3    H225589   1.222   5.133   2.178 -0.3262  0.1471 -0.6895
 1392TIP3   OH225590   5.276   4.597   3.182 -0.2499  0.4856 -0.6940
 1392TIP3    H125591   5.320   4.593   3.267 -0.3761  0.3133 -0.6361
 1392TIP3    H225592   5.266   4.690   3.165 -0.5620  0.5207 -0.3406
 1393TIP3   OH225593   1.790   2.993  15.361 -0.7566  0.1639  0.0986
 1393TIP3    H125594   1.756   2.964  15.446  2.4058  0.4576  1.6151
 1393TIP3    H225595   1.791   2.913  15.308 -1.5170 -0.3118  0.7683
 1394TIP3   OH225596   6.220   2.642  13.849  0.6472 -0.3623 -0.1978
 1394TIP3    H125597   6.136   2.675  13.818 -0.7735 -1.2666  2.4265
 1394TIP3    H225598   6.244   2.700  13.921  1.8874 -0.6162 -0.3713
 1395TIP3   OH225599   3.417   1.023  16.565  0.0337 -0.1208 -0.0544
 1395TIP3    H125600   3.408   1.112  16.598  2.2083 -0.4121  1.5452
 1395TIP3    H225601   3.421   1.033  16.469 -0.8589  1.3471  0.0349
 1396TIP3   OH225602   1.894   0.292  12.719 -0.1004 -0.3534 -0.2164
 1396TIP3    H125603   1.871   0.332  12.635  0.4624  0.1046 -0.1591
 1396TIP3    H225604   1.990   0.300  12.724 -0.2972  1.7933  1.5439
 1397TIP3   OH225605   6.724   1.871   2.466 -0.3482 -0.3241 -0.4245
 1397TIP3    H125606   6.643   1.841   2.424 -0.3740 -1.6442  0.5447
 1397TIP3    H225607   6.694   1.929   2.536 -0.4238 -0.4599 -0.3454
 1398TIP3   OH225608   0.135   4.629  12.805 -0.1004  0.2600  0.5888
 1398TIP3    H125609   0.125   4.611  12.899  0.8772 -1.3809  0.4205
 1398TIP3    H225610   0.170   4.718  12.802  0.8371 -0.0304  1.8531
 1399TIP3   OH225611   2.800   3.843  17.208 -0.2697 -0.6262 -0.5066
 1399TIP3    H125612   2.828   3.934  17.213 -1.6465 -0.2320  0.6902
 1399TIP3    H225613   2.780   3.829  17.115 -0.8942  0.5685 -0.5676
 1400TIP3   OH225614   4.187   4.402   2.012 -0.1147  0.5050 -0.2441
 1400TIP3    H125615   4.209   4.320   2.055 -2.5600 -1.2220 -2.0334
 1400TIP3    H225616   4.117   4.439   2.065  2.1957  2.5525  1.6304
 1401TIP3   OH225617   2.286   6.464   4.103  0.3535 -0.3260  0.3323
 1401TIP3    H125618   2.347   6.391   4.118 -0.5240 -1.6165 -1.9541
 1401TIP3    H225619   2.200   6.423   4.097 -0.5285  1.2454  1.5184
 1402TIP3   OH225620   2.740   0.139   2.218  0.2774 -0.4134  0.2103
 1402TIP3    H125621   2.713   0.221   2.258  0.5865  0.1181 -0.6369
 1402TIP3    H225622   2.799   0.099   2.282 -0.2481 -0.2088  0.8289
 1403TIP3   OH225623   5.698   3.653  12.225  0.1091 -0.2320 -0.2136
 1403TIP3    H125624   5.732   3.565  12.243  0.3207 -0.0507  0.2719
 1403TIP3    H225625   5.723   3.670  12.134  3.7139  0.9669  0.8610
 1404TIP3   OH225626   4.297   3.456   0.652  0.2355 -0.0571  0.3138
 1404TIP3    H125627   4.309   3.487   0.562 -0.9711 -1.4279 -0.3663
 1404TIP3    H225628   4.236   3.519   0.690  1.6453  1.1965  0.5822
 1405TIP3   OH225629   1.799   4.101   0.383  0.0382  0.3681 -0.0664
 1405TIP3    H125630   1.843   4.172   0.336  0.7425 -0.1863 -0.2713
 1405TIP3    H225631   1.756   4.050   0.315  2.0303 -1.1189 -0.3298
 1406TIP3   OH225632   0.288   4.842  15.997  0.3274  0.0537 -0.0841
 1406TIP3    H125633   0.214   4.782  16.011 -0.0339  0.6679  0.7131
 1406TIP3    H225634   0.247   4.927  15.985  0.9066  0.4164  0.4717
 1407TIP3   OH225635   2.454   1.383  14.120  0.5658  0.2189 -0.7035
 1407TIP3    H125636   2.490   1.301  14.153  1.1534  0.9759  0.6556
 1407TIP3    H225637   2.531   1.437  14.101  0.2087  1.2927  0.7097
 1408TIP3   OH225638   4.068   3.114  12.184 -0.2650 -0.6305  0.2018
 1408TIP3    H125639   4.061   3.040  12.245  0.3303  0.1392  1.2490
 1408TIP3    H225640   4.006   3.179  12.218  1.4361  0.5664  1.1649
 1409TIP3   OH225641   6.734   4.589   4.063  0.1704  0.5004 -0.4699
 1409TIP3    H125642   6.716   4.651   4.134 -1.9668 -0.4733 -0.0864
 1409TIP3    H225643   6.801   4.531   4.100 -0.4792  0.3713  0.5631
 1410TIP3   OH225644   1.596   2.296   2.788  0.4683  0.4701 -0.0332
 1410TIP3    H125645   1.562   2.309   2.877 -0.3484  1.5524 -0.4952
 1410TIP3    H225646   1.675   2.243   2.801 -0.0066  0.0404  1.2762
 1411TIP3   OH225647   0.112   3.175  14.397  0.4240 -0.9824  0.2648
 1411TIP3    H125648   0.035   3.225  14.423  1.0626  0.5497 -0.6156
 1411TIP3    H225649   0.185   3.218  14.442  0.9438 -1.4274 -0.1342
 1412TIP3   OH225650   1.948   0.475  16.225  0.2808  0.6421  0.7950
 1412TIP3    H125651   1.873   0.418  16.240 -0.0083  0.5005 -0.9389
 1412TIP3    H225652   1.929   0.555  16.274 -1.6935  1.1596 -0.6823
 1413TIP3   OH225653   5.507   1.275  16.850 -0.6854  0.4654 -0.1464
 1413TIP3    H125654   5.464   1.209  16.795 -2.8941  0.6639  1.2327
 1413TIP3    H225655   5.588   1.296  16.803 -0.1592 -2.7709 -0.9363
 1414TIP3   OH225656   1.361   1.472   6.026 -0.1593  0.1248  0.4595
 1414TIP3    H125657   1.278   1.453   6.070 -1.3514  1.4132 -1.1268
 1414TIP3    H225658   1.383   1.562   6.053  1.2925 -0.5223  1.6373
 1415TIP3   OH225659   3.049   1.941  11.871  0.4497  0.4913 -0.0655
 1415TIP3    H125660   3.099   1.996  11.932  0.8187  1.0721 -0.8739
 1415TIP3    H225661   2.989   1.892  11.927  2.1401 -0.4866  0.9950
 1416TIP3   OH225662   4.285   3.547  17.080 -0.5428  0.0659 -0.2424
 1416TIP3    H125663   4.353   3.531  17.145 -0.0170  0.8509 -0.5926
 1416TIP3    H225664   4.317   3.620  17.027  0.0691 -1.8652 -2.7841
 1417TIP3   OH225665   4.744   4.660  15.322 -0.0628  0.1296 -0.6200
 1417TIP3    H125666   4.837   4.683  15.326  0.1073 -0.4047 -1.2481
 1417TIP3    H225667   4.698   4.737  15.354  0.6588 -0.1655  1.2473
 1418TIP3   OH225668   5.628   3.458  16.079  0.8687 -0.2592 -0.1386
 1418TIP3    H125669   5.599   3.483  15.991 -1.4763  1.1870  0.9687
 1418TIP3    H225670   5.589   3.372  16.094  0.9733 -0.3458 -0.3563
 1419TIP3   OH225671   2.763   2.507   0.015 -0.2066 -0.0946 -0.4342
 1419TIP3    H125672   2.692   2.555   0.058 -0.2008 -0.2386 -0.2621
 1419TIP3    H225673   2.826   2.574  -0.009 -0.1448 -0.0259 -0.0899
 1420TIP3   OH225674   3.247   0.697  14.699  0.2484  0.2591 -0.1063
 1420TIP3    H125675   3.248   0.793  14.698 -3.0403  0.3880 -0.9866
 1420TIP3    H225676   3.275   0.672  14.611  2.3977  0.2680  0.5084
 1421TIP3   OH225677   2.088   2.119   6.039  1.0315  0.2435  0.2478
 1421TIP3    H125678   2.037   2.086   6.113  1.3506  1.0647  0.8357
 1421TIP3    H225679   2.168   2.068   6.040  0.3765 -0.8528 -0.5051
 1422TIP3   OH225680   0.702   2.472  15.460  0.1327  0.0889  0.3254
 1422TIP3    H125681   0.613   2.487  15.492  0.1122 -1.2494  0.9561
 1422TIP3    H225682   0.716   2.543  15.397 -0.0789  2.4376  2.7385
 1423TIP3   OH225683   0.837   4.156   3.347 -0.5886 -0.7416 -0.4833
 1423TIP3    H125684   0.773   4.122   3.410 -0.4101  1.2609  0.8799
 1423TIP3    H225685   0.803   4.242   3.322  2.2745  1.1805  1.6080
 1424TIP3   OH225686   4.490   4.613   6.142  0.4914 -0.2355  0.0163
 1424TIP3    H125687   4.523   4.524   6.128  0.9424 -0.0447 -0.1243
 1424TIP3    H225688   4.397   4.607   6.120  0.3703 -0.8274  0.6518
 1425TIP3   OH225689   5.213   3.087   2.102  0.1336  0.0081  0.0427
 1425TIP3    H125690   5.294   3.090   2.153  0.1146 -0.3825  0.0974
 1425TIP3    H225691   5.239   3.112   2.014  0.3639 -0.3872 -0.0008
 1426TIP3   OH225692   4.173   4.353   5.789  0.6756 -0.2693 -0.0154
 1426TIP3    H125693   4.166   4.341   5.695  2.7436  0.7955 -0.3582
 1426TIP3    H225694   4.240   4.292   5.817 -0.7951 -1.4962  1.0302
 1427TIP3   OH225695   6.713   2.609  13.133 -0.4850 -0.1998  0.4808
 1427TIP3    H125696   6.741   2.659  13.210 -0.4434  2.5336 -1.1732
 1427TIP3    H225697   6.619   2.600  13.143 -0.4659  0.0478  0.9144
 1428TIP3   OH225698   0.287   2.796   3.159  0.1461 -0.4258 -0.1866
 1428TIP3    H125699   0.284   2.831   3.248 -0.3051 -1.3671  0.1786
 1428TIP3    H225700   0.316   2.870   3.105  0.8377  0.0409  0.7952
 1429TIP3   OH225701   3.296   6.237   5.311  0.1681  0.1130  0.5586
 1429TIP3    H125702   3.220   6.182   5.294 -0.2717  0.3989  1.4858
 1429TIP3    H225703   3.334   6.254   5.225 -0.1726 -0.9463  0.1916
 1430TIP3   OH225704   6.514   1.460  14.175  0.7075 -0.2647  0.6499
 1430TIP3    H125705   6.515   1.427  14.085 -0.5486 -1.7121  1.1235
 1430TIP3    H225706   6.603   1.446  14.207  0.6719 -1.5088  0.2322
 1431TIP3   OH225707   4.360   1.647   0.277  0.0436 -0.0076 -0.5631
 1431TIP3    H125708   4.274   1.676   0.307  0.8609  1.1189  0.8162
 1431TIP3    H225709   4.381   1.573   0.335  0.1955  0.0057 -0.6017
 1432TIP3   OH225710   4.120   1.683   4.813  0.6520 -1.0281 -0.6030
 1432TIP3    H125711   4.075   1.692   4.729  0.3833 -0.8377 -0.4418
 1432TIP3    H225712   4.150   1.771   4.834 -1.5953 -0.5190  0.7704
 1433TIP3   OH225713   6.075   0.362   1.493  0.2942 -0.4905  0.4928
 1433TIP3    H125714   6.149   0.335   1.546 -1.7314 -3.4968  2.0914
 1433TIP3    H225715   6.036   0.435   1.541  2.1104  1.1553 -0.3946
 1434TIP3   OH225716   1.127   0.833   5.198 -0.7224  0.1672 -0.1992
 1434TIP3    H125717   1.201   0.840   5.137 -0.8721  0.9384 -0.2938
 1434TIP3    H225718   1.118   0.739   5.213  0.6499  0.0835  0.2733
 1435TIP3   OH225719   0.414   3.206   5.179  0.2861 -0.0295 -0.1615
 1435TIP3    H125720   0.395   3.298   5.199  0.4722  0.1256 -0.7006
 1435TIP3    H225721   0.486   3.184   5.239  1.3056  0.6411 -1.0985
 1436TIP3   OH225722   6.172   2.437   0.280  0.0324  0.0934  0.0054
 1436TIP3    H125723   6.103   2.471   0.338  0.6775 -1.2723  1.6801
 1436TIP3    H225724   6.215   2.515   0.246  0.0400  0.9878  1.9061
 1437TIP3   OH225725   3.124   0.254   1.305  0.0190 -0.4985  0.0391
 1437TIP3    H125726   3.189   0.312   1.345  0.6904 -0.1871 -1.4289
 1437TIP3    H225727   3.158   0.237   1.217 -2.1080  0.0893 -0.9748
 1438TIP3   OH225728   0.804   5.388   0.465  0.4262 -0.2981 -0.2506
 1438TIP3    H125729   0.893   5.382   0.500 -0.0351  2.4076  1.7490
 1438TIP3    H225730   0.747   5.367   0.538 -0.5510  2.4740 -0.0825
 1439TIP3   OH225731   5.286   1.763   3.282 -0.0516  0.2530 -0.3061
 1439TIP3    H125732   5.202   1.782   3.325 -0.4564 -0.6109 -0.6780
 1439TIP3    H225733   5.328   1.848   3.273 -0.5996  0.6218  0.4827
 1440TIP3   OH225734   0.600   6.244  14.648  0.6286  0.0756  0.0712
 1440TIP3    H125735   0.563   6.193  14.720 -0.9132  0.8974 -0.0892
 1440TIP3    H225736   0.564   6.332  14.661  1.3944  0.5516 -0.9569
 1441TIP3   OH225737   5.400   1.506  13.521  0.0498 -0.4194  0.3856
 1441TIP3    H125738   5.323   1.507  13.577  2.2839 -0.2047  3.7279
 1441TIP3    H225739   5.403   1.418  13.484 -1.9738 -0.2870 -0.1910
 1442TIP3   OH225740   6.320   6.609  15.643  1.0759 -0.0406 -0.5415
 1442TIP3    H125741   6.234   6.626  15.604  1.9162  1.0342 -2.0530
 1442TIP3    H225742   6.356   6.696  15.662  2.1033 -0.4293 -0.6071
 1443TIP3   OH225743   5.359   0.717  12.078 -0.5480  0.6141  0.2385
 1443TIP3    H125744   5.270   0.683  12.088  0.1788 -1.0745  1.5754
 1443TIP3    H225745   5.377   0.763  12.159 -0.1108  0.7281  0.0828
 1444TIP3   OH225746   1.811   1.499   1.436 -0.7191  0.0651  0.8102
 1444TIP3    H125747   1.797   1.555   1.359 -0.6239  0.8826  1.3797
 1444TIP3    H225748   1.866   1.428   1.404 -1.5395 -0.1676 -0.1264
 1445TIP3   OH225749   4.947   3.173   5.249 -0.2851  0.0929  0.2441
 1445TIP3    H125750   4.875   3.205   5.303 -0.7694  0.7501 -0.7548
 1445TIP3    H225751   4.904   3.130   5.175  0.3650 -0.6476  0.2843
 1446TIP3   OH225752   1.607   2.154   1.032 -0.2369  0.1139 -0.5222
 1446TIP3    H125753   1.561   2.228   0.994 -1.1975 -0.0593  0.2481
 1446TIP3    H225754   1.693   2.188   1.056 -0.8504  1.1352  0.3052
 1447TIP3   OH225755   0.031   2.651  16.080  0.1318 -0.1159 -0.3285
 1447TIP3    H125756   0.018   2.667  15.987  0.1145 -0.5737 -0.4061
 1447TIP3    H225757  -0.041   2.594  16.105  0.5449 -0.5814 -0.1944
 1448TIP3   OH225758   0.861   0.818  13.134 -0.2362  0.3494  0.0751
 1448TIP3    H125759   0.828   0.815  13.044  0.1998  0.9759 -0.1131
 1448TIP3    H225760   0.901   0.733  13.148 -1.1704 -0.1175  0.0185
 1449TIP3   OH225761   6.308   3.178  11.110  0.5525  0.0582  0.8276
 1449TIP3    H125762   6.328   3.223  11.192  0.2951  0.6555  0.5672
 1449TIP3    H225763   6.214   3.186  11.100  0.4942 -0.6026  0.8067
 1450TIP3   OH225764   1.770   3.542   6.722 -0.6996 -0.3874 -0.4083
 1450TIP3    H125765   1.760   3.463   6.669 -0.5820  0.2658 -1.4200
 1450TIP3    H225766   1.680   3.563   6.749 -0.8000 -0.5501 -0.6040
 1451TIP3   OH225767   1.736   5.546  15.642  0.0688 -0.0258 -0.3522
 1451TIP3    H125768   1.722   5.454  15.663  0.6881  0.1351  0.8705
 1451TIP3    H225769   1.812   5.571  15.695 -0.9605  1.5555  0.4562
 1452TIP3   OH225770   5.587   1.576   3.758 -0.2364 -0.2878  0.3919
 1452TIP3    H125771   5.539   1.606   3.681 -0.0853 -0.2406  0.3162
 1452TIP3    H225772   5.668   1.627   3.757  0.3935 -1.2771 -0.1804
 1453TIP3   OH225773   3.474   0.867   1.194 -0.0979 -0.0534  0.3708
 1453TIP3    H125774   3.397   0.886   1.140 -2.3926 -1.6765  2.8119
 1453TIP3    H225775   3.450   0.897   1.281  0.5300 -3.7518  1.9812
 1454TIP3   OH225776   6.615   2.569   5.035  0.0017 -0.0683 -0.6025
 1454TIP3    H125777   6.622   2.480   5.071  1.4637  0.1037 -0.3701
 1454TIP3    H225778   6.570   2.619   5.103  1.2990 -0.1172  0.3318
 1455TIP3   OH225779   6.552   1.885  13.335  0.6120 -0.6600  0.1239
 1455TIP3    H125780   6.494   1.909  13.407  0.0737 -0.8062 -0.2490
 1455TIP3    H225781   6.505   1.814  13.290  0.5324  0.0011 -0.8700
 1456TIP3   OH225782   0.927   2.847   2.934  0.0760 -0.1596 -0.4391
 1456TIP3    H125783   0.953   2.768   2.887  2.2560 -0.4574  1.1154
 1456TIP3    H225784   1.007   2.879   2.975 -1.1905  1.5681  0.8892
 1457TIP3   OH225785   5.570   1.615   5.212  0.4176 -0.5018 -0.4113
 1457TIP3    H125786   5.641   1.579   5.266  0.4502  0.0708 -0.0670
 1457TIP3    H225787   5.613   1.640   5.130  1.2757  2.6305  0.8490
 1458TIP3   OH225788   5.419   3.071  11.825 -0.0392  0.0292  0.2877
 1458TIP3    H125789   5.460   3.150  11.791 -1.3188  1.2026  1.3621
 1458TIP3    H225790   5.486   3.030  11.879  0.5363  0.5439 -0.0355
 1459TIP3   OH225791   4.660   5.005   2.573 -0.0617 -0.7388 -0.2761
 1459TIP3    H125792   4.684   4.913   2.586  0.3962 -0.6442 -0.4303
 1459TIP3    H225793   4.633   5.036   2.660 -0.9304 -1.2151 -0.3631
 1460TIP3   OH225794   1.502   6.676  17.247 -0.1657 -0.4381  0.0229
 1460TIP3    H125795   1.588   6.636  17.250 -0.6201 -1.4156  1.7313
 1460TIP3    H225796   1.509   6.754  17.303 -0.1945 -0.0801 -0.4654
 1461TIP3   OH225797   3.215   0.986   5.910 -0.1115  0.5816 -0.0035
 1461TIP3    H125798   3.233   1.049   5.840 -0.7873  2.1625  1.1653
 1461TIP3    H225799   3.159   0.920   5.869  0.9891  0.4609 -1.3905
 1462TIP3   OH225800   5.910   5.472  15.197  0.0066 -0.5249  0.6001
 1462TIP3    H125801   5.824   5.437  15.223  0.7285 -1.7748  1.4004
 1462TIP3    H225802   5.895   5.566  15.189 -1.1647 -0.5471  1.9478
 1463TIP3   OH225803   0.768   1.657  14.831 -0.1326  0.4947 -0.2355
 1463TIP3    H125804   0.716   1.647  14.751  1.0925  0.0504 -1.0019
 1463TIP3    H225805   0.858   1.662  14.801  0.5185 -1.3728  1.2004
 1464TIP3   OH225806   0.930   3.129  13.340 -0.1120  0.0284  0.0170
 1464TIP3    H125807   0.835   3.127  13.330 -0.2009 -2.7399  0.7026
 1464TIP3    H225808   0.963   3.065  13.277  1.0531 -0.8886  1.4801
 1465TIP3   OH225809   5.354   0.024   3.695  0.5110 -0.3219  0.1002
 1465TIP3    H125810   5.388  -0.062   3.719  0.2044 -0.1994  1.0448
 1465TIP3    H225811   5.395   0.084   3.758  0.2794  0.1316 -0.1783
 1466TIP3   OH225812   4.173   0.140   0.790  0.2223 -0.2972 -0.5168
 1466TIP3    H125813   4.126   0.075   0.842  0.4862 -0.7287 -0.8087
 1466TIP3    H225814   4.249   0.093   0.756  0.1172  0.0077 -1.1943
 1467TIP3   OH225815   1.104   6.199   5.599 -0.0218 -0.7214  0.1480
 1467TIP3    H125816   1.195   6.168   5.605  0.5362  0.7777 -0.1397
 1467TIP3    H225817   1.066   6.181   5.685  0.8058 -0.6061  0.5464
 1468TIP3   OH225818   1.292   4.803  16.262 -0.5910 -0.2653 -0.3836
 1468TIP3    H125819   1.313   4.893  16.239 -1.7464  0.2483  0.4400
 1468TIP3    H225820   1.248   4.768  16.185 -1.6508  0.4338 -0.1171
 1469TIP3   OH225821   1.122   0.786  14.130  0.7997 -0.4042  0.2315
 1469TIP3    H125822   1.040   0.796  14.081 -0.1364 -1.8411  1.4137
 1469TIP3    H225823   1.128   0.865  14.184 -0.0827 -0.4951  0.4846
 1470TIP3   OH225824   2.446   2.333   1.973 -0.1590  0.0159  0.6495
 1470TIP3    H125825   2.447   2.274   1.898 -0.7791 -0.2939  0.8739
 1470TIP3    H225826   2.355   2.364   1.978  0.0475  0.6052  0.8310
 1471TIP3   OH225827   2.600   4.157  12.118  0.0183  0.3327 -0.1465
 1471TIP3    H125828   2.639   4.244  12.102 -0.6343  0.6891  0.1756
 1471TIP3    H225829   2.670   4.107  12.160 -0.1486  1.2664  1.3032
 1472TIP3   OH225830   4.120   0.411  14.626 -0.1374  0.1129 -0.1850
 1472TIP3    H125831   4.120   0.480  14.560  1.7406 -0.4261 -0.8019
 1472TIP3    H225832   4.158   0.451  14.703 -1.7656  0.5646  0.4283
 1473TIP3   OH225833   1.043   5.071  16.346  0.3662 -0.3849  0.2809
 1473TIP3    H125834   1.076   5.030  16.425  0.6562 -0.2636  0.2237
 1473TIP3    H225835   1.044   5.165  16.366  1.3774 -0.2766 -0.2115
 1474TIP3   OH225836   4.043   2.609  16.980 -0.7092  0.2371  0.4411
 1474TIP3    H125837   4.133   2.636  16.999 -0.6715  0.5639 -0.1973
 1474TIP3    H225838   3.989   2.666  17.035 -0.6020  1.1628 -0.4007
 1475TIP3   OH225839   2.287   4.421   0.091  0.7789 -0.3696 -0.5856
 1475TIP3    H125840   2.310   4.463   0.008 -0.2891 -0.8283 -1.1365
 1475TIP3    H225841   2.364   4.368   0.114  2.0466  1.6306 -0.0046
 1476TIP3   OH225842   0.156   4.104   2.495  0.5150 -0.4572 -0.3399
 1476TIP3    H125843   0.153   4.072   2.405  0.3526  0.7203 -0.7579
 1476TIP3    H225844   0.199   4.033   2.544  1.4312 -0.7288 -1.5044
 1477TIP3   OH225845   4.891   3.563   0.733  0.3822  0.1957  0.0265
 1477TIP3    H125846   4.862   3.505   0.662 -0.2300  1.8952 -1.1889
 1477TIP3    H225847   4.820   3.559   0.797  0.3393 -0.3516 -0.0433
 1478TIP3   OH225848   4.008   3.027  14.492  0.6116  0.3934 -0.4267
 1478TIP3    H125849   3.964   2.996  14.412  0.4438 -0.2206 -0.1022
 1478TIP3    H225850   3.966   3.110  14.512 -0.0326  0.0718 -0.4224
 1479TIP3   OH225851   3.273   1.835  12.345  0.2175  0.2937  0.1676
 1479TIP3    H125852   3.298   1.907  12.403  1.1317  0.6277 -0.6175
 1479TIP3    H225853   3.201   1.870  12.293  0.6227  0.6211 -0.1730
 1480TIP3   OH225854   0.008   2.363   2.535 -0.4848  0.2178  0.0678
 1480TIP3    H125855   0.093   2.370   2.492 -0.5837  4.1622  0.1271
 1480TIP3    H225856   0.024   2.390   2.625 -1.8077  1.7832 -0.1019
 1481TIP3   OH225857   4.409   4.920   1.770  0.3738  0.2161 -0.1275
 1481TIP3    H125858   4.433   4.853   1.706  0.3417  2.0592 -2.1879
 1481TIP3    H225859   4.402   4.872   1.853  1.6884 -2.0611 -1.2193
 1482TIP3   OH225860   2.228   6.215  13.773  0.3324  0.0926 -0.1327
 1482TIP3    H125861   2.301   6.275  13.786  0.3166  0.8165 -2.7370
 1482TIP3    H225862   2.164   6.265  13.723 -1.1268 -1.1275  0.4254
 1483TIP3   OH225863   5.375   0.400  14.738  0.7405 -0.2560  0.0182
 1483TIP3    H125864   5.451   0.372  14.789  0.4394  0.9929  1.2019
 1483TIP3    H225865   5.410   0.470  14.681  0.5244  0.1813  0.4205
 1484TIP3   OH225866   0.065   2.271   6.370 -0.2027  0.0994 -0.2187
 1484TIP3    H125867   0.025   2.187   6.347 -1.0238 -0.0763  1.6659
 1484TIP3    H225868   0.154   2.249   6.397  0.3469  0.1570 -1.8711
 1485TIP3   OH225869   6.231   2.993  11.984  0.0727 -0.2762 -0.2936
 1485TIP3    H125870   6.300   3.051  11.952  1.2774 -0.0833  2.3369
 1485TIP3    H225871   6.208   3.029  12.070  0.2580 -3.1249  1.0936
 1486TIP3   OH225872   0.998   6.133   5.847  0.0012  0.0367  0.1082
 1486TIP3    H125873   0.939   6.058   5.853 -1.1960  0.7503 -1.7021
 1486TIP3    H225874   1.076   6.108   5.897 -1.3887 -1.3710  1.6637
 1487TIP3   OH225875   6.260   6.199   4.565  0.1899  0.1596 -0.3412
 1487TIP3    H125876   6.186   6.163   4.517  0.7088 -0.1756 -0.9132
 1487TIP3    H225877   6.331   6.201   4.501  1.2510 -1.4162  0.7140
 1488TIP3   OH225878   1.445   3.994   0.003 -0.2900 -0.0630  0.2734
 1488TIP3    H125879   1.486   3.908  -0.005 -1.2952 -0.7431  1.8050
 1488TIP3    H225880   1.370   3.990  -0.055  0.6360  0.4454 -0.9930
 1489TIP3   OH225881   0.766   3.945   3.766 -0.0954 -0.3205 -0.5464
 1489TIP3    H125882   0.840   3.920   3.821 -0.5353  0.7402  0.5777
 1489TIP3    H225883   0.797   4.024   3.720 -0.4602  0.0349 -0.1894
 1490TIP3   OH225884   4.116   0.727   6.066 -0.1686 -0.1269  0.0026
 1490TIP3    H125885   4.088   0.679   5.987 -0.9280  0.0124  0.1777
 1490TIP3    H225886   4.165   0.662   6.117 -2.4423 -1.2048  0.9418
 1491TIP3   OH225887   6.512   1.021   1.872 -0.3960  0.0751 -0.0572
 1491TIP3    H125888   6.535   1.009   1.964 -0.0124  0.8094 -0.0532
 1491TIP3    H225889   6.595   1.037   1.828 -0.6190  0.1076 -0.4689
 1492TIP3   OH225890   6.433   5.754  17.128 -0.1427  0.3990 -0.0980
 1492TIP3    H125891   6.443   5.811  17.205 -1.8722  1.6527 -0.7166
 1492TIP3    H225892   6.498   5.786  17.066 -0.0856  0.7230  0.1239
 1493TIP3   OH225893   0.670   0.167  15.344 -0.2704 -0.4109  0.3402
 1493TIP3    H125894   0.737   0.108  15.379 -0.2451 -1.1808 -0.9234
 1493TIP3    H225895   0.647   0.224  15.417  2.6828  0.7260  0.4895
 1494TIP3   OH225896   0.017   0.222  15.563 -0.1704 -0.3396  0.3314
 1494TIP3    H125897  -0.005   0.313  15.585  0.5368 -0.4901  1.7062
 1494TIP3    H225898  -0.052   0.195  15.502 -0.0118  1.3298 -0.6547
 1495TIP3   OH225899   5.954   5.050  10.873  0.4602 -0.0213 -0.3659
 1495TIP3    H125900   5.887   5.005  10.923  0.6592 -0.0744 -0.1452
 1495TIP3    H225901   5.907   5.090  10.799 -0.3709  2.5444  1.3935
 1496TIP3   OH225902   5.120   6.079   2.758 -0.2211  0.2601  0.8390
 1496TIP3    H125903   5.170   6.027   2.820  0.1545 -0.1310  0.2254
 1496TIP3    H225904   5.068   6.015   2.709  1.5619  0.1929 -1.1460
 1497TIP3   OH225905   3.793   0.533   4.022 -0.3172 -0.7887  0.1644
 1497TIP3    H125906   3.700   0.513   4.034 -0.6775  0.7507  0.0913
 1497TIP3    H225907   3.820   0.571   4.106  0.5766 -2.3123  0.6066
 1498TIP3   OH225908   0.810   4.591  14.063  0.1981 -0.0285  0.1202
 1498TIP3    H125909   0.833   4.504  14.096  1.1923 -0.1572 -0.8744
 1498TIP3    H225910   0.723   4.580  14.024  0.0134 -0.3948  0.6190
 1499TIP3   OH225911   2.850   5.710  17.077 -0.4024 -0.1988  0.0462
 1499TIP3    H125912   2.803   5.643  17.127  0.3829  1.7347  3.6989
 1499TIP3    H225913   2.787   5.781  17.068 -0.0821  0.0190 -0.4704
 1500TIP3   OH225914   5.931   6.203   1.089  1.0948 -0.2482  0.2926
 1500TIP3    H125915   5.958   6.160   1.007  1.6462  1.6464 -0.5592
 1500TIP3    H225916   5.964   6.145   1.158  3.8746 -0.0963 -0.7610
 1501TIP3   OH225917   1.947   5.535   0.926 -0.0013 -0.2019  0.2186
 1501TIP3    H125918   2.029   5.576   0.898 -0.4635  0.1621 -0.6368
 1501TIP3    H225919   1.928   5.576   1.011  1.5029 -1.4439  1.2174
 1502TIP3   OH225920   1.836   0.149   4.887  0.0743  0.1101 -0.2992
 1502TIP3    H125921   1.871   0.118   4.803 -0.9601  0.7156 -0.9673
 1502TIP3    H225922   1.820   0.242   4.874  1.7211  0.6563  1.2138
 1503TIP3   OH225923   6.200   0.775   4.212  0.3176 -0.2016 -0.4543
 1503TIP3    H125924   6.204   0.853   4.156 -0.2748 -0.9592 -1.6055
 1503TIP3    H225925   6.229   0.805   4.298 -0.2527  1.3748 -0.7772
 1504TIP3   OH225926   5.263   6.700  13.192  0.1214 -0.2530  0.7331
 1504TIP3    H125927   5.181   6.739  13.221  0.6014  0.4839  1.1300
 1504TIP3    H225928   5.281   6.631  13.255 -1.7505 -2.5655 -1.0744
 1505TIP3   OH225929   3.729   5.508  11.141  0.3111  0.4009  0.0482
 1505TIP3    H125930   3.747   5.435  11.082  1.5029 -0.3839  1.3193
 1505TIP3    H225931   3.735   5.470  11.229  0.9992  2.0210  0.7469
 1506TIP3   OH225932   0.146   6.510   0.630 -0.4206  0.4860 -0.0272
 1506TIP3    H125933   0.060   6.533   0.664  0.6019  0.5511  2.7112
 1506TIP3    H225934   0.205   6.520   0.704  1.7634 -0.8690 -1.4674
 1507TIP3   OH225935   2.545   4.707  13.227 -0.1684  0.2837 -0.0972
 1507TIP3    H125936   2.479   4.777  13.230  0.3808  0.9093 -1.4927
 1507TIP3    H225937   2.494   4.626  13.235 -1.2302  0.7205 -1.7582
 1508TIP3   OH225938   0.079   5.530  17.383 -0.2195  0.5201  0.1662
 1508TIP3    H125939  -0.011   5.563  17.391 -0.4610  0.0676 -0.5713
 1508TIP3    H225940   0.071   5.436  17.396 -0.0131  0.3366 -0.8994
 1509TIP3   OH225941   1.601   2.057  13.895  0.3351  0.1508 -0.4529
 1509TIP3    H125942   1.683   2.093  13.926 -1.1846  2.3221  1.3338
 1509TIP3    H225943   1.535   2.121  13.920 -2.1534 -2.2757 -0.2473
 1510TIP3   OH225944   2.431   1.225   3.985  0.0205 -0.0045 -0.2248
 1510TIP3    H125945   2.362   1.257   4.043 -0.7438 -1.3340 -0.3568
 1510TIP3    H225946   2.492   1.298   3.977 -0.3076  0.5043  1.5520
 1511TIP3   OH225947   1.629   1.038  13.055  0.2260  0.5220 -0.5793
 1511TIP3    H125948   1.678   1.119  13.042  0.1278  0.4544 -1.4253
 1511TIP3    H225949   1.695   0.975  13.084  0.3204  0.8668 -0.0215
 1512TIP3   OH225950   2.946   4.580   0.191  0.2321  0.5165 -0.1332
 1512TIP3    H125951   2.878   4.592   0.124  1.2575 -0.2334 -1.3555
 1512TIP3    H225952   3.000   4.509   0.157  0.4962 -0.2500  1.7603
 1513TIP3   OH225953   1.612   1.847  15.623  0.0807  0.0283 -0.4456
 1513TIP3    H125954   1.621   1.929  15.672 -2.0439 -0.9690  1.7846
 1513TIP3    H225955   1.539   1.863  15.563 -1.5462 -0.6946  1.2419
 1514TIP3   OH225956   4.663   5.905   5.436  0.4588 -0.5262  0.4544
 1514TIP3    H125957   4.606   5.842   5.393  0.7949 -1.5461  1.4417
 1514TIP3    H225958   4.752   5.875   5.416  0.6241 -1.2849  2.1584
 1515TIP3   OH225959   1.274   2.306  16.211 -0.4829  0.1276  0.1364
 1515TIP3    H125960   1.248   2.295  16.303 -2.0758  0.7422 -0.1945
 1515TIP3    H225961   1.343   2.242  16.197 -0.0089  0.2204  1.8350
 1516TIP3   OH225962   2.560   0.374   6.125 -0.1798  0.3138 -1.0984
 1516TIP3    H125963   2.641   0.397   6.171 -0.5413 -1.4832  0.6169
 1516TIP3    H225964   2.559   0.278   6.124 -1.8295  0.2929 -1.9194
 1517TIP3   OH225965   5.445   1.221  12.968 -0.1063  0.0717 -1.0017
 1517TIP3    H125966   5.536   1.251  12.968 -0.1590  0.3864  1.1183
 1517TIP3    H225967   5.447   1.140  13.020 -1.4295  1.6799  1.7990
 1518TIP3   OH225968   1.883   5.442  14.246 -0.5699 -0.2499 -0.2745
 1518TIP3    H125969   1.872   5.444  14.341 -1.6765 -2.2692 -0.2897
 1518TIP3    H225970   1.882   5.533  14.219 -0.7177  0.3425  1.6038
 1519TIP3   OH225971   1.976   5.375  13.323  0.0060  0.0258  0.7320
 1519TIP3    H125972   1.883   5.361  13.342 -0.0852  0.1923  0.4185
 1519TIP3    H225973   1.976   5.439  13.251  0.3492 -0.2639  0.4708
 1520TIP3   OH225974   1.778   3.125   4.383 -0.4948  0.3023  0.2251
 1520TIP3    H125975   1.769   3.202   4.439  2.1436 -0.0637  1.3212
 1520TIP3    H225976   1.845   3.072   4.426  0.1082 -1.0463 -2.1790
 1521TIP3   OH225977   0.279   2.707  15.790  0.4120  0.1229  0.4906
 1521TIP3    H125978   0.345   2.771  15.815 -1.1702  1.1831  2.2455
 1521TIP3    H225979   0.328   2.638  15.746  2.6879  0.7898  1.7989
 1522TIP3   OH225980   4.550   2.462   3.745 -0.1450  0.2759 -0.1339
 1522TIP3    H125981   4.509   2.378   3.726  1.3171 -0.1904 -1.4693
 1522TIP3    H225982   4.628   2.440   3.797 -0.8245  1.0096  1.2395
 1523TIP3   OH225983   4.429   0.309   2.255 -0.3640 -0.7708  0.3903
 1523TIP3    H125984   4.406   0.383   2.312  1.0991 -0.7509  0.9821
 1523TIP3    H225985   4.374   0.237   2.286 -0.4282 -0.4400  1.0565
 1524TIP3   OH225986   5.650   5.720   5.146 -0.3361 -0.0930 -0.1951
 1524TIP3    H125987   5.702   5.763   5.213  1.6533 -0.7668 -1.2333
 1524TIP3    H225988   5.561   5.752   5.161  0.1756  0.4104  2.2037
 1525TIP3   OH225989   4.422   1.435  14.142  0.0994  0.0179  0.4895
 1525TIP3    H125990   4.426   1.516  14.093 -1.7671 -0.5435 -0.7080
 1525TIP3    H225991   4.415   1.462  14.234  2.7423  1.0897  0.4513
 1526TIP3   OH225992   5.387   6.412   2.415 -0.3890  0.5117  0.2854
 1526TIP3    H125993   5.387   6.355   2.491  0.9947 -2.2942 -1.6319
 1526TIP3    H225994   5.343   6.492   2.444 -2.5712 -1.5287  3.1491
 1527TIP3   OH225995   2.766   5.913   0.613 -0.1428  0.7608 -0.3005
 1527TIP3    H125996   2.792   5.980   0.550 -3.5024  1.7929 -0.8287
 1527TIP3    H225997   2.720   5.961   0.682  1.6669 -0.5754  1.9707
 1528TIP3   OH225998   4.981   3.491  12.750 -0.1969 -0.1163 -0.4352
 1528TIP3    H125999   4.896   3.498  12.792  0.1239  0.7267  0.1019
 1528TIP3    H226000   4.966   3.436  12.672 -1.4223  0.8432 -0.8951
 1529TIP3   OH226001   1.937   0.077   4.214 -0.2204  0.0536 -0.1873
 1529TIP3    H126002   1.874   0.043   4.150  0.7858 -2.3759  0.0441
 1529TIP3    H226003   1.890   0.076   4.297  0.2673 -2.4551  0.1189
 1530TIP3   OH226004   3.085   0.148  12.663  0.4275 -0.5435  0.1561
 1530TIP3    H126005   3.046   0.170  12.578  0.4025 -2.0778 -0.2635
 1530TIP3    H226006   3.132   0.066  12.647  0.9051 -0.5461  1.4902
 1531TIP3   OH226007   6.063   5.584   0.848 -0.1249  0.3028 -0.1513
 1531TIP3    H126008   6.109   5.502   0.865 -1.5801 -0.3859  0.6507
 1531TIP3    H226009   5.996   5.589   0.917 -2.2141  0.5109 -2.0932
 1532TIP3   OH226010   0.526   1.851  12.704  0.4212  0.1384 -0.4370
 1532TIP3    H126011   0.510   1.812  12.790  3.7294  0.5328  0.4988
 1532TIP3    H226012   0.542   1.777  12.646  0.4495 -0.0627 -0.1708
 1533TIP3   OH226013   6.148   6.319   3.152  0.3259 -0.9090  0.0196
 1533TIP3    H126014   6.173   6.322   3.060  0.6058  1.4184  0.1173
 1533TIP3    H226015   6.196   6.244   3.188  2.2931 -0.2617 -1.1551
 1534TIP3   OH226016   3.623   3.115   2.240 -0.1535 -0.4936 -0.2992
 1534TIP3    H126017   3.609   3.100   2.146 -0.1888  2.5216 -0.8627
 1534TIP3    H226018   3.718   3.115   2.250 -0.1034  0.5243 -0.6345
 1535TIP3   OH226019   0.842   1.680   2.675  0.7748  0.4386  0.2996
 1535TIP3    H126020   0.768   1.742   2.680  0.6653  0.4188 -0.8038
 1535TIP3    H226021   0.802   1.595   2.690  0.8397  0.5803  1.3072
 1536TIP3   OH226022   4.886   0.156  15.992 -0.0569  0.0617 -0.1557
 1536TIP3    H126023   4.908   0.232  16.046  1.0344 -0.8400  0.7441
 1536TIP3    H226024   4.886   0.083  16.054  0.2206 -0.8527 -1.2158
 1537TIP3   OH226025   6.714   0.734  10.574  0.2425 -0.3495  0.5399
 1537TIP3    H126026   6.687   0.678  10.501  0.8280  1.6320 -1.3145
 1537TIP3    H226027   6.765   0.676  10.631  0.2171 -1.8543 -0.8793
 1538TIP3   OH226028   1.522   1.843   0.610 -0.1764 -0.3176  0.4561
 1538TIP3    H126029   1.573   1.814   0.685  1.0188 -1.4314 -0.7438
 1538TIP3    H226030   1.553   1.932   0.594  1.5164 -1.0086 -0.3084
 1539TIP3   OH226031   1.106   4.658  12.020  0.3018  0.8087 -0.2993
 1539TIP3    H126032   1.098   4.564  12.040  1.6861  0.9041  0.9209
 1539TIP3    H226033   1.018   4.692  12.031 -0.1906 -0.3195 -0.5849
 1540TIP3   OH226034   4.332   0.631   5.627 -0.1042  0.0970  0.0154
 1540TIP3    H126035   4.303   0.550   5.585  1.1620 -1.3543  1.7507
 1540TIP3    H226036   4.356   0.689   5.555 -0.2617 -1.3790 -1.2701
 1541TIP3   OH226037   2.334   4.543  14.578 -0.1663 -0.2151 -0.4607
 1541TIP3    H126038   2.306   4.466  14.529 -2.2831 -0.2093  0.6385
 1541TIP3    H226039   2.323   4.615  14.516 -0.0833 -0.5490 -0.8724
 1542TIP3   OH226040   2.485   2.148   4.349 -0.5246  0.2177 -0.2771
 1542TIP3    H126041   2.554   2.182   4.292 -0.0302 -1.4987 -0.7571
 1542TIP3    H226042   2.406   2.150   4.295 -0.7655  1.6793  0.0956
 1543TIP3   OH226043   4.641   3.664  15.996  0.2035  0.1733  0.0544
 1543TIP3    H126044   4.621   3.747  16.038 -0.4093 -0.6237  1.3975
 1543TIP3    H226045   4.567   3.607  16.017 -0.4648 -0.1281 -2.6557
 1544TIP3   OH226046   6.395   0.556   5.541 -0.2233 -0.0940  0.1087
 1544TIP3    H126047   6.452   0.624   5.577 -0.3234 -0.7116  1.5366
 1544TIP3    H226048   6.380   0.582   5.450  0.1608  1.5052  0.4661
 1545TIP3   OH226049   4.016   0.759   1.053 -0.3867 -0.3789  0.2854
 1545TIP3    H126050   3.923   0.734   1.047 -1.0487  1.3325  2.1083
 1545TIP3    H226051   4.020   0.845   1.011  0.1427  0.0338  1.1658
 1546TIP3   OH226052   4.793   6.550  14.436 -0.1283 -0.0322  0.5859
 1546TIP3    H126053   4.819   6.631  14.480 -2.3108  0.3018  1.3668
 1546TIP3    H226054   4.741   6.579  14.361 -0.5244 -0.7013  0.5935
 1547TIP3   OH226055   4.444   0.521  14.138 -0.2893 -0.4327 -0.7556
 1547TIP3    H126056   4.447   0.458  14.211 -2.8090  0.4080  0.1883
 1547TIP3    H226057   4.488   0.599  14.172 -1.0635 -0.1968 -0.2655
 1548TIP3   OH226058   0.310   2.668   1.960  0.1720 -0.1953  0.0032
 1548TIP3    H126059   0.289   2.694   1.870 -0.3102  1.1081  0.4648
 1548TIP3    H226060   0.394   2.711   1.978 -0.4941  0.8613  0.6825
 1549TIP3   OH226061   2.126   1.995   1.110 -0.4602 -0.0171  0.0994
 1549TIP3    H126062   2.207   2.025   1.069  0.1582 -2.0834 -0.3337
 1549TIP3    H226063   2.139   1.901   1.122 -2.0127 -0.0711  1.8745
 1550TIP3   OH226064   2.710   2.426   3.818 -0.8598 -0.0452  0.5433
 1550TIP3    H126065   2.662   2.400   3.739  0.3350 -1.1108  0.1290
 1550TIP3    H226066   2.661   2.385   3.890 -0.4889 -1.3282  0.1045
 1551TIP3   OH226067   2.531   6.473   3.642 -0.1899 -0.1186 -0.6949
 1551TIP3    H126068   2.490   6.393   3.611 -0.4840 -0.6991  1.0993
 1551TIP3    H226069   2.469   6.509   3.706  1.4642 -0.3208  1.0993
 1552TIP3   OH226070   5.328   6.702  15.828  0.5802 -0.1932 -0.3129
 1552TIP3    H126071   5.311   6.764  15.757  0.6110 -1.8598 -1.8393
 1552TIP3    H226072   5.423   6.687  15.825  0.6579  0.1132  0.4310
 1553TIP3   OH226073   2.523   0.854   1.593 -0.5334  0.1425 -0.3380
 1553TIP3    H126074   2.474   0.926   1.554 -2.1427 -0.1114  1.0680
 1553TIP3    H226075   2.537   0.881   1.684  0.1068 -0.7052 -0.1693
 1554TIP3   OH226076   3.267   1.554   1.567 -0.0733  0.6817  0.1064
 1554TIP3    H126077   3.259   1.460   1.582  2.9432 -0.4977 -3.8350
 1554TIP3    H226078   3.353   1.577   1.601 -0.0192  1.5844 -0.5964
 1555TIP3   OH226079   0.802   5.689  13.036 -0.0396 -0.0136 -0.0252
 1555TIP3    H126080   0.827   5.706  13.127 -1.2369  2.6696 -0.1080
 1555TIP3    H226081   0.709   5.712  13.032  0.3040  1.3139 -2.2001
 1556TIP3   OH226082   6.577   2.312  10.982 -0.1041 -0.3365  0.2940
 1556TIP3    H126083   6.489   2.344  10.966 -0.1703 -0.7997 -0.3013
 1556TIP3    H226084   6.612   2.293  10.895  0.2120 -1.1171  0.5842
 1557TIP3   OH226085   1.862   3.866   3.599 -0.0329  0.0121 -0.3447
 1557TIP3    H126086   1.859   3.774   3.571  1.1693 -0.2703  0.4094
 1557TIP3    H226087   1.804   3.911   3.537 -1.7612 -1.4551  0.1111
 1558TIP3   OH226088   0.959   3.555  16.060  0.2609  0.1294  0.2354
 1558TIP3    H126089   0.983   3.478  16.008 -3.8428 -1.2650 -0.0135
 1558TIP3    H226090   1.004   3.543  16.143 -0.1940 -2.6252  0.1935
 1559TIP3   OH226091   1.695   5.022  15.991 -0.0263  0.2518 -0.2533
 1559TIP3    H126092   1.697   5.100  16.046  0.7868 -0.5526  0.9140
 1559TIP3    H226093   1.685   4.950  16.053 -3.4759 -0.4692 -1.4392
 1560TIP3   OH226094   2.762   6.472  15.421  0.0459  0.1889  0.5309
 1560TIP3    H126095   2.751   6.384  15.457 -1.4539  0.3372  0.4786
 1560TIP3    H226096   2.803   6.521  15.493  0.5729 -0.4463  0.6799
 1561TIP3   OH226097   4.560   0.189   6.021 -0.4894  0.1181 -0.0356
 1561TIP3    H126098   4.576   0.241   6.100  2.0623 -1.1109  0.3636
 1561TIP3    H226099   4.534   0.253   5.955 -1.6458  1.3017  1.4913
 1562TIP3   OH226100   4.693   5.351   3.372 -0.1923  0.0337  0.4455
 1562TIP3    H126101   4.674   5.296   3.296  3.6410  0.9939 -1.4257
 1562TIP3    H226102   4.769   5.311   3.412 -0.1804  1.3905  1.8489
 1563TIP3   OH226103   0.844   2.230   3.194  0.3994  0.5154  0.3081
 1563TIP3    H126104   0.751   2.242   3.213  0.1879 -0.0793 -0.3419
 1563TIP3    H226105   0.870   2.312   3.152 -0.5765 -0.4054 -2.2968
 1564TIP3   OH226106   0.256   1.367  11.864 -0.4485  0.4952  0.0722
 1564TIP3    H126107   0.237   1.355  11.771 -0.3418  0.6589  0.0307
 1564TIP3    H226108   0.332   1.424  11.867  0.6362 -0.9176  0.2293
 1565TIP3   OH226109   5.461   1.584   3.519 -0.1374  0.0501 -0.8380
 1565TIP3    H126110   5.434   1.675   3.513 -1.3246 -0.1289  1.1349
 1565TIP3    H226111   5.381   1.534   3.500  0.3304 -0.5900 -1.1772
 1566TIP3   OH226112   5.890   6.561  16.617 -0.1992 -0.5955 -0.0274
 1566TIP3    H126113   5.962   6.499  16.630 -0.5000 -0.6915  1.2878
 1566TIP3    H226114   5.838   6.522  16.546 -0.1550 -1.6368  0.4954
 1567TIP3   OH226115   2.987   4.769   3.479 -0.1211 -0.1512  0.4748
 1567TIP3    H126116   3.061   4.729   3.526  0.7077 -0.8341 -1.3385
 1567TIP3    H226117   2.912   4.717   3.507  0.5114 -1.1750  0.3516
 1568TIP3   OH226118   0.897   3.386   2.147  0.3082 -0.0167  0.0256
 1568TIP3    H126119   0.878   3.418   2.059 -1.3033  2.2147  1.0868
 1568TIP3    H226120   0.847   3.306   2.155  0.6374 -0.3573 -1.1349
 1569TIP3   OH226121   4.590   6.377  15.210 -0.4502  0.3961  0.2639
 1569TIP3    H126122   4.681   6.363  15.185 -1.0993 -2.0085 -0.9891
 1569TIP3    H226123   4.579   6.328  15.292 -0.9436 -0.5111 -0.3307
 1570TIP3   OH226124   6.462   4.421   6.047 -0.2220  0.3807  0.5870
 1570TIP3    H126125   6.407   4.361   5.997  0.2001 -0.5282  1.1949
 1570TIP3    H226126   6.501   4.367   6.115 -0.5851  1.5435  1.7535
 1571TIP3   OH226127   3.350   4.133  13.873  0.3702  0.3339 -0.1774
 1571TIP3    H126128   3.433   4.086  13.879 -0.2120 -0.9126 -1.2369
 1571TIP3    H226129   3.287   4.066  13.847 -1.0616  1.1559  1.0453
 1572TIP3   OH226130   6.739   5.381  16.287  0.0624  0.5495 -0.4503
 1572TIP3    H126131   6.752   5.321  16.361  0.7722  2.1198  0.7699
 1572TIP3    H226132   6.683   5.333  16.227  1.4736 -1.7638 -0.0626
 1573TIP3   OH226133   5.593   0.707   5.194  0.5076  0.1827 -0.8216
 1573TIP3    H126134   5.601   0.705   5.099  2.0764 -0.1585 -0.7158
 1573TIP3    H226135   5.684   0.702   5.226 -0.0123 -0.2446  0.6985
 1574TIP3   OH226136   1.001   5.582  13.513  0.0331  0.3198 -0.1285
 1574TIP3    H126137   0.934   5.575  13.581 -1.1953  1.4140 -1.1827
 1574TIP3    H226138   0.952   5.584  13.431  1.4428 -0.1153 -1.0115
 1575TIP3   OH226139   2.267   5.668   1.539  0.1289  0.5223 -0.2405
 1575TIP3    H126140   2.341   5.710   1.582  0.1936 -0.3621  0.5447
 1575TIP3    H226141   2.296   5.578   1.524 -1.6019 -0.5724  2.2922
 1576TIP3   OH226142   2.165   2.112   2.532  0.6256 -0.3572  0.6783
 1576TIP3    H126143   2.107   2.185   2.553  3.1730  2.0260 -0.0740
 1576TIP3    H226144   2.166   2.108   2.436  1.0066 -0.9648  0.6990
 1577TIP3   OH226145   3.016   2.464   1.583 -0.4725  0.2608 -0.0183
 1577TIP3    H126146   3.056   2.377   1.595 -0.0951  0.3824 -0.3928
 1577TIP3    H226147   3.077   2.524   1.625  0.5245  0.6183 -1.8619
 1578TIP3   OH226148   4.479   5.516   3.478 -0.3140  0.3349 -0.3710
 1578TIP3    H126149   4.552   5.477   3.430  0.0131 -0.1300  0.4842
 1578TIP3    H226150   4.476   5.607   3.448 -0.1497  0.0464 -1.2915
 1579TIP3   OH226151   0.234   6.252  17.016  0.0550 -0.0855 -0.1513
 1579TIP3    H126152   0.318   6.236  16.973 -0.2269 -1.2725 -0.3085
 1579TIP3    H226153   0.233   6.346  17.034  1.9130 -0.2200  0.8885
 1580TIP3   OH226154   4.039   2.356  16.083 -0.0705 -0.5894  0.0174
 1580TIP3    H126155   3.954   2.390  16.109 -0.5618  0.5270 -2.6928
 1580TIP3    H226156   4.102   2.402  16.139 -1.0860  0.6127  0.1957
 1581TIP3   OH226157   2.345   5.760   3.183 -0.4369  0.7317  0.1392
 1581TIP3    H126158   2.373   5.670   3.200  0.0851  0.6522 -1.0834
 1581TIP3    H226159   2.423   5.813   3.202  0.4661  0.5665 -2.6373
 1582TIP3   OH226160   2.092   3.205  12.206  0.1241  0.4369  0.2747
 1582TIP3    H126161   2.034   3.245  12.270 -0.0360 -0.0087  0.4162
 1582TIP3    H226162   2.090   3.111  12.227 -0.6669  0.1553 -0.9772
 1583TIP3   OH226163   2.596   4.170  11.618  0.0688 -0.1295  0.5029
 1583TIP3    H126164   2.540   4.217  11.680 -0.0673 -0.6695  0.7945
 1583TIP3    H226165   2.584   4.078  11.640  1.3411 -0.2379  0.7991
 1584TIP3   OH226166   3.773   1.019   1.467 -0.1215  0.1272  0.0803
 1584TIP3    H126167   3.708   1.041   1.400  1.6595 -0.9787 -2.1438
 1584TIP3    H226168   3.749   0.931   1.495  0.1506 -0.1073 -0.4151
 1585TIP3   OH226169   3.021   3.325  12.077 -0.2671  0.3954 -0.2003
 1585TIP3    H126170   3.095   3.354  12.131  0.7692 -1.7113 -0.4170
 1585TIP3    H226171   2.963   3.280  12.139  0.2830 -0.8724 -0.5852
 1586TIP3   OH226172   2.947   6.224  12.567  0.0313  0.4436  0.3296
 1586TIP3    H126173   3.024   6.230  12.622  1.0734  2.0111 -1.1954
 1586TIP3    H226174   2.918   6.133  12.575  1.4426  0.0841  1.6831
 1587TIP3   OH226175   6.368   1.260   1.915 -0.5883 -0.1160  0.1564
 1587TIP3    H126176   6.395   1.169   1.927 -1.0943 -0.2046  0.6622
 1587TIP3    H226177   6.398   1.283   1.827  1.9798  0.0859  1.0074
 1588TIP3   OH226178   5.315   0.106  12.626 -0.0758  0.2158 -0.3366
 1588TIP3    H126179   5.339   0.033  12.684 -1.5126  0.9335  1.2535
 1588TIP3    H226180   5.394   0.125  12.576  1.5590  0.1875  2.1057
 1589TIP3   OH226181   3.329   1.786  11.876  0.4004 -0.6883  0.1110
 1589TIP3    H126182   3.398   1.720  11.882  0.2330 -0.9068 -0.3337
 1589TIP3    H226183   3.357   1.856  11.935 -0.4822 -2.1090  2.3281
 1590TIP3   OH226184   4.951   0.748  15.809  0.6083 -0.4327  0.5557
 1590TIP3    H126185   5.004   0.704  15.875  0.3165 -2.2057 -0.3037
 1590TIP3    H226186   5.004   0.823  15.781  2.1578 -1.4595  0.5772
 1591TIP3   OH226187   3.566   4.699   1.931  0.3637  0.6701 -0.3848
 1591TIP3    H126188   3.499   4.757   1.967  0.6509  1.0445 -0.4474
 1591TIP3    H226189   3.570   4.626   1.992 -0.6658  0.2465 -0.7942
 1592TIP3   OH226190   4.014   4.710  12.378  0.0695  0.1211 -0.0752
 1592TIP3    H126191   3.944   4.651  12.353  0.9726 -0.3381 -1.6975
 1592TIP3    H226192   4.028   4.693  12.471 -0.5607 -1.2828 -0.2127
 1593TIP3   OH226193   0.326   1.444   0.427 -0.4777 -0.0713 -0.0423
 1593TIP3    H126194   0.314   1.391   0.348  1.6124 -0.1499 -0.3704
 1593TIP3    H226195   0.331   1.379   0.498  2.4697 -0.4850 -0.4878
 1594TIP3   OH226196   4.638   4.984   6.391  0.0352  0.1694  0.1890
 1594TIP3    H126197   4.621   5.012   6.482 -0.9809 -2.4384  0.8754
 1594TIP3    H226198   4.677   4.897   6.400 -3.0776 -1.5808 -1.8919
 1595TIP3   OH226199   1.067   2.696  11.644 -0.1790 -0.3021  0.1857
 1595TIP3    H126200   1.112   2.780  11.635 -2.5897  1.0833  0.3660
 1595TIP3    H226201   1.042   2.672  11.555  1.2225 -1.3176  0.0258
 1596TIP3   OH226202   1.478   1.945  15.390  0.3659  0.3933  0.6579
 1596TIP3    H126203   1.531   1.971  15.314  1.2794 -1.8817  0.4338
 1596TIP3    H226204   1.411   1.888  15.353  1.1731 -1.2184  1.5608
 1597TIP3   OH226205   2.030   2.444   1.345  0.4244  0.3087  0.2644
 1597TIP3    H126206   2.049   2.408   1.259  0.8878  0.2817  0.3743
 1597TIP3    H226207   1.935   2.439   1.354  0.5739 -3.6243  1.4641
 1598TIP3   OH226208   1.729   5.728  15.236  0.4434 -0.1218  1.1031
 1598TIP3    H126209   1.698   5.653  15.288 -0.0318 -0.8166 -0.1409
 1598TIP3    H226210   1.824   5.724  15.243  0.3649  0.6199  3.0306
 1599TIP3   OH226211   5.265   0.486  14.336 -0.1636 -0.5944 -0.1882
 1599TIP3    H126212   5.349   0.443  14.326 -0.7112 -1.3205 -2.1565
 1599TIP3    H226213   5.210   0.422  14.380 -0.0960 -0.6778 -0.2250
 1600TIP3   OH226214   6.285   1.398   0.913  0.2508  0.2694 -1.1299
 1600TIP3    H126215   6.257   1.370   0.826 -1.6019  0.8756 -0.7833
 1600TIP3    H226216   6.204   1.411   0.961  1.1987 -3.0569  1.7397
 1601TIP3   OH226217   1.535   1.429  13.965  0.5720 -0.2099  0.0093
 1601TIP3    H126218   1.584   1.491  14.019 -0.2276 -0.5886  1.1993
 1601TIP3    H226219   1.531   1.471  13.879  0.8225  0.9678  0.5531
 1602TIP3   OH226220   6.605   0.697  14.518  0.0818  0.3286  0.0356
 1602TIP3    H126221   6.701   0.700  14.513  0.0982  2.7747  0.5684
 1602TIP3    H226222   6.576   0.780  14.481 -1.9541 -0.8816 -1.3012
 1603TIP3   OH226223   3.052   5.531   1.775 -0.0247 -0.4632 -0.5628
 1603TIP3    H126224   3.099   5.561   1.697 -0.0121  0.3562 -0.2454
 1603TIP3    H226225   3.118   5.481   1.824  0.5613  0.7076 -0.1019
 1604TIP3   OH226226   0.022   0.978  10.819  0.9338  0.1765 -0.2216
 1604TIP3    H126227   0.022   0.882  10.830 -1.3974  0.0903 -0.6405
 1604TIP3    H226228   0.026   0.991  10.725 -0.0147  0.4449 -0.2322
 1605TIP3   OH226229   4.432   1.938   3.973 -0.4473  0.2340  0.0773
 1605TIP3    H126230   4.366   1.932   3.904 -1.2067 -1.5611  0.8763
 1605TIP3    H226231   4.469   1.849   3.978 -0.0786  0.4437  1.6502
 1606TIP3   OH226232   3.187   3.160   3.667  0.8205 -0.0385  0.0776
 1606TIP3    H126233   3.177   3.247   3.629  2.0950  0.3264  0.5116
 1606TIP3    H226234   3.282   3.149   3.677  0.7404 -1.8196 -0.7504
 1607TIP3   OH226235   3.004   2.341   4.706 -0.4238 -0.0706 -0.2551
 1607TIP3    H126236   2.937   2.280   4.675 -0.4126 -0.5035  0.5465
 1607TIP3    H226237   3.015   2.319   4.798  1.6497 -0.7955 -0.6142
 1608TIP3   OH226238   1.737   1.191  14.548 -0.0810  0.5009 -0.1365
 1608TIP3    H126239   1.675   1.214  14.479 -1.4588 -0.8360  0.6037
 1608TIP3    H226240   1.823   1.213  14.512 -0.8596  0.9666 -1.7808
 1609TIP3   OH226241   4.581   3.665  13.753  0.1727  0.2067 -0.0437
 1609TIP3    H126242   4.652   3.618  13.797  1.3429 -1.4502 -3.3158
 1609TIP3    H226243   4.615   3.753  13.740  1.1530 -0.2094 -0.4112
 1610TIP3   OH226244   1.359   1.645  14.920  0.3133  0.5968  0.4510
 1610TIP3    H126245   1.300   1.582  14.961  0.3643  0.0247 -0.3259
 1610TIP3    H226246   1.421   1.592  14.870 -0.8994  1.2688 -1.9274
 1611TIP3   OH226247   4.734   4.500  16.233  0.1901 -0.2328  0.1536
 1611TIP3    H126248   4.691   4.424  16.192  0.0059  0.2087 -0.4855
 1611TIP3    H226249   4.818   4.508  16.187  0.1418  0.0402  0.1101
 1612TIP3   OH226250   1.936   5.246   1.216 -0.0835 -0.3854 -0.3574
 1612TIP3    H126251   1.915   5.337   1.239  2.3330  0.2081 -0.2168
 1612TIP3    H226252   1.892   5.232   1.132 -1.5609  0.4608  0.2420
 1613TIP3   OH226253   1.807   5.736   4.104 -0.3420 -0.5277 -0.0924
 1613TIP3    H126254   1.784   5.782   4.023 -0.4846  0.0926  0.2976
 1613TIP3    H226255   1.881   5.784   4.139  1.2007 -2.1255 -0.9999
 1614TIP3   OH226256   0.274   6.465   1.290  0.5660 -0.4861  0.8666
 1614TIP3    H126257   0.244   6.454   1.380 -0.2897  0.0009  0.6465
 1614TIP3    H226258   0.277   6.376   1.254  0.2612 -0.6168  1.1646
 1615TIP3   OH226259   3.000   4.027   1.764  0.2043 -0.3209  0.2906
 1615TIP3    H126260   2.971   4.118   1.761  2.1727  0.4444  1.8531
 1615TIP3    H226261   2.950   3.988   1.835  0.4990  0.0129  0.6874
 1616TIP3   OH226262   1.981   0.450  14.602 -0.4664  0.0317 -0.0720
 1616TIP3    H126263   1.905   0.500  14.571 -0.1008  0.3879 -0.4137
 1616TIP3    H226264   2.006   0.397  14.526 -0.5603 -0.3124  0.1379
 1617TIP3   OH226265   5.559   4.999   4.133  0.2961  0.1911 -0.2407
 1617TIP3    H126266   5.565   4.906   4.156 -0.0558  0.2927  0.2753
 1617TIP3    H226267   5.606   5.045   4.203 -0.5071  0.4774  0.1232
 1618TIP3   OH226268   0.497   5.889   2.640  0.1454  0.3838 -0.6842
 1618TIP3    H126269   0.563   5.830   2.676 -0.5637 -0.2622 -0.4119
 1618TIP3    H226270   0.510   5.972   2.686  0.1660 -0.0181  0.0380
 1619TIP3   OH226271   0.392   5.055  12.803  0.6150 -0.0348 -0.1150
 1619TIP3    H126272   0.387   5.108  12.883  2.6008  0.5599 -0.3298
 1619TIP3    H226273   0.467   5.090  12.756 -1.6067  0.9456 -3.2766
 1620TIP3   OH226274   6.729   2.191   4.125  0.4921  0.1490  0.0599
 1620TIP3    H126275   6.726   2.284   4.147 -0.7649 -0.3087  2.1446
 1620TIP3    H226276   6.766   2.188   4.037  0.6378  2.6015 -0.0320
 1621TIP3   OH226277   3.521   5.862   2.155 -0.0791 -0.4542 -0.3930
 1621TIP3    H126278   3.544   5.854   2.247 -1.4797 -0.7011 -0.0393
 1621TIP3    H226279   3.564   5.787   2.113 -2.3595 -2.5231  0.7012
 1622TIP3   OH226280   0.721   1.684   0.344  0.7070 -0.6832 -0.2071
 1622TIP3    H126281   0.636   1.640   0.349  0.1908  0.4440  2.6267
 1622TIP3    H226282   0.704   1.761   0.289  0.0294 -0.7403 -0.0919
 1623TIP3   OH226283   4.093   5.121   1.281 -0.1081 -0.5325  0.2827
 1623TIP3    H126284   4.042   5.202   1.275 -1.2578 -1.3229 -3.1600
 1623TIP3    H226285   4.169   5.137   1.225 -0.6600 -1.9569 -0.9483
 1624TIP3   OH226286   0.413   5.496   5.735 -0.1051 -0.2642 -0.6211
 1624TIP3    H126287   0.469   5.437   5.787  0.7274  0.5741 -0.5434
 1624TIP3    H226288   0.328   5.493   5.779  0.0385 -1.0910 -0.3771
 1625TIP3   OH226289   2.685   0.041  11.977  0.2036 -0.4773  0.2711
 1625TIP3    H126290   2.613   0.055  12.038  0.7201 -0.1189  0.8056
 1625TIP3    H226291   2.644  -0.000  11.901 -0.9354  1.5509 -0.2962
 1626TIP3   OH226292   4.310   1.477  15.419 -0.3506 -0.0705 -0.2670
 1626TIP3    H126293   4.374   1.518  15.361 -0.0908 -1.5170 -1.0573
 1626TIP3    H226294   4.362   1.422  15.477 -0.7578  0.0002  0.1710
 1627TIP3   OH226295   3.871   5.141   0.990 -0.1730 -0.2364  0.1625
 1627TIP3    H126296   3.813   5.088   1.045 -0.7387  1.0439  0.8163
 1627TIP3    H226297   3.900   5.213   1.046 -1.3596  1.5454 -1.3990
 1628TIP3   OH226298   0.405   0.917   1.423 -0.1439  0.0069  0.5251
 1628TIP3    H126299   0.407   1.006   1.458  1.8971 -1.1119  3.7144
 1628TIP3    H226300   0.495   0.900   1.396 -1.0799 -0.2112 -2.9251
 1629TIP3   OH226301   5.200   5.763  12.409  0.0258  0.3611 -0.1456
 1629TIP3    H126302   5.192   5.850  12.370  0.6621  0.3050 -0.4163
 1629TIP3    H226303   5.219   5.706  12.334 -1.1277 -0.1341 -0.0775
 1630TIP3   OH226304   6.202   6.223   2.681  0.1232  0.5246 -0.1290
 1630TIP3    H126305   6.158   6.147   2.644  0.6434  0.2392 -0.1755
 1630TIP3    H226306   6.132   6.275   2.719 -0.1981 -0.1524  0.2174
 1631TIP3   OH226307   0.390   4.412  15.145  0.0454  0.2708 -0.5073
 1631TIP3    H126308   0.386   4.380  15.055 -1.0597  1.4664 -0.9011
 1631TIP3    H226309   0.369   4.335  15.198  0.2886 -0.3409 -1.2745
 1632TIP3   OH226310   0.906   3.225  12.328  0.4252 -0.2879  0.1968
 1632TIP3    H126311   0.957   3.153  12.365  0.2103 -0.6407 -0.1827
 1632TIP3    H226312   0.951   3.304  12.358  1.2033 -0.5898 -0.1305
 1633TIP3   OH226313   1.548   2.599   4.228  0.0007  0.6439 -0.0912
 1633TIP3    H126314   1.531   2.671   4.167  2.3479  3.1055  1.8841
 1633TIP3    H226315   1.629   2.560   4.197  0.9610  1.6138  1.1066
 1634TIP3   OH226316   6.662   3.478  11.440 -0.7737 -0.2367  0.2780
 1634TIP3    H126317   6.626   3.533  11.371 -0.7164  0.4737  0.8037
 1634TIP3    H226318   6.680   3.394  11.397  2.1395  1.0938 -1.3900
 1635TIP3   OH226319   4.493   4.101   3.246 -0.7680 -0.2254  0.0338
 1635TIP3    H126320   4.493   4.016   3.290 -1.1353  0.0805  0.6375
 1635TIP3    H226321   4.543   4.158   3.304 -3.1623  0.7664  1.2683
 1636TIP3   OH226322   0.236   1.983   4.909 -0.1106  0.1352  0.2004
 1636TIP3    H126323   0.276   1.988   4.996  0.0893  0.8445  0.0751
 1636TIP3    H226324   0.261   2.065   4.866 -1.3384  0.4174 -0.0301
 1637TIP3   OH226325   5.948   0.965  10.871 -0.4172 -0.3852 -0.2977
 1637TIP3    H126326   5.928   0.890  10.816  0.1050  1.4711 -3.2435
 1637TIP3    H226327   5.872   1.023  10.861  0.1601  0.4524  0.0508
 1638TIP3   OH226328   2.810   1.713  12.615  0.4568  0.2991  0.2819
 1638TIP3    H126329   2.812   1.617  12.622 -0.6107 -0.2722 -3.9461
 1638TIP3    H226330   2.717   1.735  12.624  0.5101  0.7251 -0.1666
 1639TIP3   OH226331   2.884   1.767   1.892  0.6193 -0.2350 -0.4397
 1639TIP3    H126332   2.940   1.757   1.815 -0.2142 -1.8567 -0.8955
 1639TIP3    H226333   2.811   1.707   1.876 -0.2676  0.4086  1.0039
 1640TIP3   OH226334   0.775   3.886   2.898  0.0991 -0.1042 -0.3431
 1640TIP3    H126335   0.705   3.883   2.833  0.2176  0.7742 -0.5283
 1640TIP3    H226336   0.776   3.977   2.927 -1.4803 -0.8926  2.5697
 1641TIP3   OH226337   0.607   5.359   5.913 -0.0345 -0.2059 -0.1274
 1641TIP3    H126338   0.646   5.275   5.887 -0.4420  0.2908 -2.6596
 1641TIP3    H226339   0.673   5.399   5.970  0.4071 -1.9819  0.6927
 1642TIP3   OH226340   4.703   3.211  12.949 -0.1526 -0.6053 -0.4745
 1642TIP3    H126341   4.654   3.236  13.028 -0.1943 -1.2889 -0.2803
 1642TIP3    H226342   4.651   3.247  12.877 -0.6791 -0.8824 -0.2404
 1643TIP3   OH226343   2.416   4.533   2.984  0.3523  0.3756 -0.6398
 1643TIP3    H126344   2.444   4.554   2.895  0.9312 -0.2633 -0.6114
 1643TIP3    H226345   2.430   4.439   2.992  1.9822  0.6820  0.7039
 1644TIP3   OH226346   5.741   3.632   1.266  0.5760 -0.1672  0.6114
 1644TIP3    H126347   5.818   3.687   1.255 -1.2799  2.4782 -0.4570
 1644TIP3    H226348   5.706   3.622   1.177 -0.5598 -0.8862  1.1074
 1645TIP3   OH226349   1.473   2.894   3.236 -0.4086 -0.5855  0.5396
 1645TIP3    H126350   1.451   2.882   3.143  1.3837 -2.0336  0.2364
 1645TIP3    H226351   1.540   2.827   3.253 -0.4103 -0.0857  2.7865
 1646TIP3   OH226352   5.662   0.212  12.114  0.5898 -0.3156  0.1490
 1646TIP3    H126353   5.615   0.287  12.077 -0.2549 -0.4903  0.8221
 1646TIP3    H226354   5.603   0.138  12.103  0.0898 -0.2915  2.2005
 1647TIP3   OH226355   4.143   4.680   6.287 -0.8761 -0.2626 -0.1053
 1647TIP3    H126356   4.103   4.631   6.215 -1.8326 -0.3065  0.4374
 1647TIP3    H226357   4.151   4.617   6.358  0.7423 -0.4090 -0.3821
 1648TIP3   OH226358   4.372   1.033   4.645  0.0192  0.2652  0.2499
 1648TIP3    H126359   4.368   0.956   4.703  1.5103  0.6094  0.8447
 1648TIP3    H226360   4.290   1.079   4.661  0.0468 -0.0851  1.4862
 1649TIP3   OH226361   0.247   4.958  14.016 -0.0306 -0.4812 -0.0447
 1649TIP3    H126362   0.241   5.002  13.931 -0.8118 -1.8008 -0.7072
 1649TIP3    H226363   0.307   5.012  14.066 -0.4526  0.9841 -1.0289
 1650TIP3   OH226364   4.285   3.817  14.939 -0.1228  0.3084 -0.0982
 1650TIP3    H126365   4.267   3.780  15.025  2.4257 -1.9499 -0.4143
 1650TIP3    H226366   4.278   3.743  14.879 -0.0541  1.4656 -1.5865
 1651TIP3   OH226367   5.007   2.645   2.556  0.5508  0.2993 -0.0770
 1651TIP3    H126368   5.051   2.699   2.491  1.9206 -0.0006  0.5702
 1651TIP3    H226369   5.023   2.555   2.528 -0.5095  0.1841 -0.3669
 1652TIP3   OH226370   6.071   4.404  12.246  0.2845  0.1194 -0.3959
 1652TIP3    H126371   6.080   4.347  12.170  0.2713 -1.1672  0.5469
 1652TIP3    H226372   6.044   4.346  12.317  2.4486  0.8735  1.1476
 1653TIP3   OH226373   0.681   3.626   2.473 -0.0578 -0.2582  0.0729
 1653TIP3    H126374   0.777   3.631   2.472  0.0811 -2.2102  0.1182
 1653TIP3    H226375   0.652   3.709   2.436  1.6459  0.4348  0.2236
 1654TIP3   OH226376   5.128   3.158  15.040 -0.7307 -0.3981 -0.4493
 1654TIP3    H126377   5.052   3.209  15.068 -1.9436 -1.8363 -0.9644
 1654TIP3    H226378   5.183   3.153  15.119 -0.3353  1.9864 -0.4935
 1655TIP3   OH226379   1.351   0.779   3.001  0.0687  0.5252 -0.4043
 1655TIP3    H126380   1.311   0.771   2.914  0.5786 -0.4549 -0.5638
 1655TIP3    H226381   1.313   0.707   3.051 -0.6242  1.4114  0.3537
 1656TIP3   OH226382   2.774   2.136   1.121  0.0313  0.0631 -0.1292
 1656TIP3    H126383   2.869   2.142   1.120  0.0895 -0.7991 -1.4602
 1656TIP3    H226384   2.749   2.126   1.030 -1.2716 -0.7056  0.2830
 1657TIP3   OH226385   0.197   1.773  16.891 -0.3440 -0.1566 -1.0158
 1657TIP3    H126386   0.251   1.761  16.812  1.8483  0.8052  0.2563
 1657TIP3    H226387   0.243   1.724  16.959 -2.2265 -0.9945 -0.2659
 1658TIP3   OH226388   1.830   4.047  12.281  0.2012  1.0423 -0.0168
 1658TIP3    H126389   1.745   4.038  12.325 -0.4697  1.6706 -1.1415
 1658TIP3    H226390   1.834   4.140  12.257  1.5508  1.1797  0.6810
 1659TIP3   OH226391   4.425   5.356   1.347 -0.5579  0.1326 -0.0922
 1659TIP3    H126392   4.412   5.394   1.434  0.3151  1.7867 -0.6501
 1659TIP3    H226393   4.432   5.261   1.364 -2.3171  0.2012  1.3885
 1660TIP3   OH226394   2.040   1.647   5.848 -0.0277 -0.5027  0.5937
 1660TIP3    H126395   2.012   1.714   5.785 -2.0038 -1.5201  0.3113
 1660TIP3    H226396   2.033   1.690   5.933  0.3218  0.1439  0.3022
 1661TIP3   OH226397   0.408   4.339  13.121  0.4837  0.1001 -0.1462
 1661TIP3    H126398   0.473   4.318  13.054  1.1078 -0.9437  0.7564
 1661TIP3    H226399   0.435   4.425  13.155  0.9012  0.0476 -0.3426
 1662TIP3   OH226400   6.513   6.293  13.978 -0.1231  0.1855  0.1059
 1662TIP3    H126401   6.548   6.205  13.984  2.5646  1.1090 -0.6254
 1662TIP3    H226402   6.492   6.304  13.885 -0.6066  0.2680  0.2220
 1663TIP3   OH226403   5.172   5.072  11.099  0.4194  0.5508 -0.2620
 1663TIP3    H126404   5.260   5.086  11.064  0.0449  1.8326 -0.7394
 1663TIP3    H226405   5.174   5.110  11.186  0.1901  1.1003 -0.4905
 1664TIP3   OH226406   3.290   2.859  17.293  0.2483 -0.5275  0.1014
 1664TIP3    H126407   3.277   2.866  17.388 -0.3561  0.9988 -0.0481
 1664TIP3    H226408   3.379   2.890  17.279  0.5847 -1.4141  0.2192
 1665TIP3   OH226409   3.394   0.196  13.306  0.3084  0.3378  0.7703
 1665TIP3    H126410   3.348   0.112  13.310  2.4072 -1.0677 -1.3034
 1665TIP3    H226411   3.480   0.177  13.343  0.3700  1.9896  1.5415
 1666TIP3   OH226412   6.512   0.602   1.687  0.0165 -0.3347  0.2802
 1666TIP3    H126413   6.479   0.598   1.777 -0.0172 -0.7057  0.2495
 1666TIP3    H226414   6.529   0.511   1.663 -0.1506 -0.2510 -0.1572
 1667TIP3   OH226415   5.828   0.756   0.622  0.3530 -0.3873 -0.0619
 1667TIP3    H126416   5.848   0.719   0.708 -0.3317  0.8196  0.6468
 1667TIP3    H226417   5.767   0.827   0.641  1.5405  1.0379 -1.3665
 1668TIP3   OH226418   5.822   0.659  13.962  0.3488  0.0203  0.7012
 1668TIP3    H126419   5.872   0.664  14.044  1.1929 -2.1601  0.3645
 1668TIP3    H226420   5.752   0.597  13.981 -0.8283  1.2182  0.4155
 1669TIP3   OH226421   1.172   3.752   0.775  0.0723  0.1436  0.5007
 1669TIP3    H126422   1.158   3.846   0.783  1.2270  0.7114 -2.6643
 1669TIP3    H226423   1.257   3.744   0.731  0.1797 -2.3961  1.0219
 1670TIP3   OH226424   3.334   0.376   2.548 -0.2761  0.4730  0.3884
 1670TIP3    H126425   3.376   0.349   2.466 -2.1165 -0.9252 -0.1837
 1670TIP3    H226426   3.310   0.467   2.534  0.5105  0.6085 -0.1409
 1671TIP3   OH226427   6.683   4.984  11.205  0.0634  0.4651  0.0368
 1671TIP3    H126428   6.737   5.042  11.151  0.1057  0.7571  0.3927
 1671TIP3    H226429   6.593   5.002  11.177  0.1693 -0.3673 -0.8981
 1672TIP3   OH226430   4.870   0.889   0.210  0.4965  0.0755 -0.1226
 1672TIP3    H126431   4.866   0.980   0.238  1.2635 -0.6083  2.5019
 1672TIP3    H226432   4.954   0.881   0.165  0.7117  0.5251  0.2004
 1673TIP3   OH226433   6.555   6.118  17.141 -0.2561  0.0191 -0.0755
 1673TIP3    H126434   6.477   6.129  17.195 -0.2890 -1.2131  0.1546
 1673TIP3    H226435   6.526   6.137  17.052 -0.1222  2.4350  0.3229
 1674TIP3   OH226436   5.179   2.873   0.197  0.0419  0.1762  0.3870
 1674TIP3    H126437   5.135   2.931   0.259  1.5390  2.9808 -0.9752
 1674TIP3    H226438   5.152   2.906   0.111  0.8618 -1.2524 -0.4461
 1675TIP3   OH226439   3.009   4.990   0.277 -1.1766 -0.1107  0.1100
 1675TIP3    H126440   2.928   5.011   0.231 -1.1046 -1.4602 -0.6929
 1675TIP3    H226441   3.065   5.066   0.262 -0.8496 -0.8145 -2.8174
 1676TIP3   OH226442   5.509   0.255  12.906  0.4029  0.2237 -0.2797
 1676TIP3    H126443   5.476   0.166  12.898  0.7599  0.0094  0.5364
 1676TIP3    H226444   5.597   0.245  12.941  0.9977  0.8387 -1.5299
 1677TIP3   OH226445   5.259   5.972  11.456 -0.4423 -0.0973 -0.1783
 1677TIP3    H126446   5.285   5.961  11.548  1.1537 -2.4297 -0.8087
 1677TIP3    H226447   5.216   5.889  11.434 -0.3231  0.2171 -1.6747
 1678TIP3   OH226448   6.739   4.819   5.396 -0.0605  0.5346  0.2186
 1678TIP3    H126449   6.772   4.767   5.469 -1.4249  0.6332  0.9411
 1678TIP3    H226450   6.779   4.780   5.318  1.0522  0.1304  0.9749
 1679TIP3   OH226451   1.869   6.675   0.564  0.5212  0.1831  0.1395
 1679TIP3    H126452   1.867   6.767   0.591 -0.9616  0.5426 -1.0969
 1679TIP3    H226453   1.949   6.668   0.511 -1.2279  1.8147 -3.0332
 1680TIP3   OH226454   5.191   2.427   0.508 -0.0663 -0.7076  0.5180
 1680TIP3    H126455   5.107   2.384   0.524 -0.2226 -0.5072  0.2422
 1680TIP3    H226456   5.254   2.355   0.498 -0.1855 -0.8565  0.8180
 1681TIP3   OH226457   3.184   4.416   3.895 -0.4445  0.1512 -0.5277
 1681TIP3    H126458   3.126   4.378   3.960  0.5888 -1.9964 -0.7748
 1681TIP3    H226459   3.146   4.391   3.811  0.6584 -1.0580 -0.6917
 1682TIP3   OH226460   6.616   4.923   5.030 -1.0284 -0.0118 -0.5601
 1682TIP3    H126461   6.697   4.896   5.074 -0.2424  1.7029 -0.8531
 1682TIP3    H226462   6.572   4.842   5.007 -1.1329 -1.0160  2.7388
 1683TIP3   OH226463   1.459   4.954  11.476 -0.0365 -0.9482 -0.1946
 1683TIP3    H126464   1.418   4.883  11.426 -0.6181 -1.1077  0.4877
 1683TIP3    H226465   1.416   5.033  11.444 -0.3157 -1.0371 -0.0462
 1684TIP3   OH226466   3.406   0.544   2.018  0.0204 -0.1400 -0.1102
 1684TIP3    H126467   3.433   0.454   1.998  0.5242 -0.0874  0.3092
 1684TIP3    H226468   3.460   0.569   2.093 -1.1962 -0.0174  0.7563
 1685TIP3   OH226469   4.568   5.933   0.528  0.3592 -0.3354  0.0127
 1685TIP3    H126470   4.546   6.011   0.477  0.4877  0.5639  1.2945
 1685TIP3    H226471   4.630   5.885   0.472 -0.0359  0.2616 -0.9647
 1686TIP3   OH226472   3.504   5.800   3.744 -0.0725 -0.7720  0.5652
 1686TIP3    H126473   3.586   5.773   3.784 -0.8895 -2.1280  1.4102
 1686TIP3    H226474   3.518   5.789   3.650  1.0531  0.0534  0.6253
 1687TIP3   OH226475   0.900   1.035  16.869 -0.0066  0.0802  0.4717
 1687TIP3    H126476   0.844   0.986  16.929 -1.3301  2.1607  1.0226
 1687TIP3    H226477   0.989   1.020  16.902 -0.5475 -0.3218  1.8125
 1688TIP3   OH226478   3.740   6.211   6.826  0.0647  0.2058 -0.1335
 1688TIP3    H126479   3.771   6.256   6.747 -0.3167 -0.2389 -0.5405
 1688TIP3    H226480   3.772   6.121   6.816  1.4921  0.5322  1.0388
 1689TIP3   OH226481   4.045   2.872   3.069  0.1240  0.3433  0.0163
 1689TIP3    H126482   4.045   2.801   3.005  2.4837  1.2650 -1.1432
 1689TIP3    H226483   4.129   2.864   3.114 -0.3515  1.3287  1.1515
 1690TIP3   OH226484   1.742   2.987  14.342 -0.2389  0.5764 -0.3295
 1690TIP3    H126485   1.806   2.946  14.400 -0.0475 -0.3802 -1.2043
 1690TIP3    H226486   1.781   3.072  14.319 -0.4035  1.0598  1.0688
 1691TIP3   OH226487   2.407   3.564   4.324  0.5544  0.0410  0.1253
 1691TIP3    H126488   2.462   3.608   4.259  0.3216 -2.2152 -1.7437
 1691TIP3    H226489   2.458   3.488   4.351 -0.0952  0.0016  1.3025
 1692TIP3   OH226490   6.131   1.586   5.317 -0.2027  0.0653  0.3070
 1692TIP3    H126491   6.180   1.646   5.261 -0.4755 -0.7817 -0.8810
 1692TIP3    H226492   6.195   1.557   5.382  0.5554 -0.1109 -0.5012
 1693TIP3   OH226493   3.092   5.872   6.327  0.2293 -0.8244 -0.5191
 1693TIP3    H126494   3.047   5.824   6.397 -0.1160  0.7129  0.3683
 1693TIP3    H226495   3.024   5.927   6.288  0.9714  0.2907 -0.2790
 1694TIP3   OH226496   3.560   0.986  12.345 -0.2217  0.1209  0.0498
 1694TIP3    H126497   3.489   1.049  12.333 -0.4677 -0.1157  0.2531
 1694TIP3    H226498   3.631   1.037  12.384 -0.1632  0.4290 -0.4483
 1695TIP3   OH226499   4.239   6.633   2.868 -0.5791  0.4426 -0.3353
 1695TIP3    H126500   4.227   6.727   2.857  0.2271  0.8088  1.5426
 1695TIP3    H226501   4.334   6.621   2.865 -0.5533 -0.0002  1.4503
 1696TIP3   OH226502   3.083   0.860   2.481 -0.1180 -0.7554  0.5617
 1696TIP3    H126503   3.074   0.873   2.387  0.2410 -0.9044  0.5040
 1696TIP3    H226504   3.125   0.941   2.512 -1.5560 -0.0843  0.8209
 1697TIP3   OH226505   2.518   6.664  15.861 -0.3198  1.0242 -0.4374
 1697TIP3    H126506   2.534   6.604  15.934 -1.9214 -0.1301 -0.9640
 1697TIP3    H226507   2.506   6.749  15.902 -0.1695  0.5893  0.5503
 1698TIP3   OH226508   3.558   4.172  15.403  0.0425 -0.2480  0.2074
 1698TIP3    H126509   3.485   4.119  15.372  1.7507 -1.4573 -2.1030
 1698TIP3    H226510   3.594   4.212  15.324  0.6074  2.0557  1.5434
 1699TIP3   OH226511   0.432   2.636   4.022  0.2466 -0.2498 -0.4378
 1699TIP3    H126512   0.483   2.604   4.097 -0.1442 -0.5955 -0.3096
 1699TIP3    H226513   0.494   2.640   3.950  0.7727  0.6807  0.0534
 1700TIP3   OH226514   4.529   0.946   3.742  0.2497 -0.3356 -0.2309
 1700TIP3    H126515   4.538   0.871   3.683 -1.4727 -0.2974 -0.5872
 1700TIP3    H226516   4.600   0.935   3.805  1.8836 -0.6273 -2.0031
 1701TIP3   OH226517   4.731   4.915  12.600 -0.0719  0.2437 -0.3864
 1701TIP3    H126518   4.654   4.924  12.656 -0.1813  0.5466 -0.5785
 1701TIP3    H226519   4.696   4.889  12.515  0.2494 -2.1876  0.1668
 1702TIP3   OH226520   6.576   6.076   0.496 -0.0745  0.5153  0.0862
 1702TIP3    H126521   6.549   6.143   0.433 -0.5873  1.9485  1.7707
 1702TIP3    H226522   6.654   6.037   0.456 -0.5691  1.1288 -1.5868
 1703TIP3   OH226523   3.793   1.674  11.791  0.6424  0.6744  0.0683
 1703TIP3    H126524   3.861   1.684  11.724  0.5334  0.2204 -0.1099
 1703TIP3    H226525   3.711   1.667  11.742  0.8999 -4.2741 -0.1203
 1704TIP3   OH226526   5.702   2.172  16.341  0.0690  0.1411  0.3475
 1704TIP3    H126527   5.628   2.162  16.282 -0.2388  1.0618  0.5523
 1704TIP3    H226528   5.667   2.221  16.415 -0.0870 -2.7365  2.3390
 1705TIP3   OH226529   5.362   5.575  15.374  0.2772  0.2650 -0.4574
 1705TIP3    H126530   5.447   5.583  15.330  0.8641 -0.8622  0.4099
 1705TIP3    H226531   5.381   5.594  15.466 -0.1727 -1.0932 -0.0659
 1706TIP3   OH226532   5.947   1.260  14.980 -0.2269 -0.1045 -0.7344
 1706TIP3    H126533   5.867   1.310  14.994 -0.6540 -0.4923 -1.6686
 1706TIP3    H226534   5.977   1.235  15.067 -0.1253  1.5689 -0.2682
 1707TIP3   OH226535   1.997   1.460   2.449 -0.1214  0.7117 -0.2094
 1707TIP3    H126536   2.083   1.490   2.420 -0.0839 -0.2413 -1.1519
 1707TIP3    H226537   1.936   1.522   2.409  0.0918  1.0849  0.0345
 1708TIP3   OH226538   6.261   3.689  14.321 -0.2241  0.1511 -0.5181
 1708TIP3    H126539   6.347   3.647  14.322  0.8083  1.9748 -3.0729
 1708TIP3    H226540   6.201   3.621  14.353  1.8670 -1.8663 -0.6530
 1709TIP3   OH226541   0.899   0.954  15.433  0.0360  0.3569 -0.3300
 1709TIP3    H126542   0.840   1.029  15.433  0.2945  0.6343  1.6560
 1709TIP3    H226543   0.984   0.990  15.458  0.2486 -0.5372  0.3073
 1710TIP3   OH226544   1.132   3.652  13.295 -0.0831 -0.3385  0.3556
 1710TIP3    H126545   1.178   3.588  13.350  1.5485 -0.7568 -1.3900
 1710TIP3    H226546   1.070   3.599  13.245  0.4246 -0.4134 -0.2146
 1711TIP3   OH226547   5.694   2.365   3.610  0.3878 -0.6790 -0.0201
 1711TIP3    H126548   5.636   2.297   3.574  0.5454 -0.5508 -0.5193
 1711TIP3    H226549   5.708   2.338   3.701 -0.8489 -0.4600  0.2617
 1712TIP3   OH226550   5.160   4.620   6.080  0.1104  1.0115  0.1320
 1712TIP3    H126551   5.104   4.661   6.147  0.9354  1.6954  0.4224
 1712TIP3    H226552   5.221   4.689   6.055 -0.8904  1.1587 -2.2023
 1713TIP3   OH226553   3.688   2.661   3.503  0.7128  0.0739  0.8480
 1713TIP3    H126554   3.630   2.585   3.513 -0.6143  0.8118 -0.6853
 1713TIP3    H226555   3.725   2.674   3.590 -2.2530  0.1690  2.2456
 1714TIP3   OH226556   1.996   2.733   6.799 -0.4103 -0.1576 -0.0677
 1714TIP3    H126557   1.929   2.771   6.743  2.4694  0.5077 -3.4320
 1714TIP3    H226558   2.072   2.790   6.788  1.3897 -2.0029  1.8069
 1715TIP3   OH226559   2.185   2.766   0.025 -0.3734 -0.4630  0.1833
 1715TIP3    H126560   2.140   2.811   0.097  0.9814 -0.3084  0.9744
 1715TIP3    H226561   2.240   2.702   0.069 -0.3863 -1.1681 -0.8045
 1716TIP3   OH226562   0.253   6.158   3.257  0.5535  0.0688  1.0127
 1716TIP3    H126563   0.191   6.224   3.226 -0.8579 -1.3207  0.7718
 1716TIP3    H226564   0.206   6.110   3.325  0.3246 -2.6451 -0.8818
 1717TIP3   OH226565   3.683   3.353   5.542  0.4556 -0.0731  0.7051
 1717TIP3    H126566   3.587   3.348   5.541  0.5064 -3.4110 -0.7921
 1717TIP3    H226567   3.705   3.393   5.458  0.3474 -2.4068 -0.4954
 1718TIP3   OH226568   5.579   3.564   4.075 -0.4019  0.0932  0.5156
 1718TIP3    H126569   5.567   3.584   4.168  0.3553  0.5051  0.5374
 1718TIP3    H226570   5.491   3.559   4.039 -0.6757  2.9097  0.6436
 1719TIP3   OH226571   6.203   5.523  16.910 -0.4570  0.6738 -0.0952
 1719TIP3    H126572   6.220   5.533  17.004 -0.8006 -1.8443  0.3110
 1719TIP3    H226573   6.112   5.550  16.899 -0.6563  0.2541  0.4637
 1720TIP3   OH226574   1.496   6.348  11.841  0.3511 -0.3004 -0.1094
 1720TIP3    H126575   1.425   6.334  11.777 -1.9670  1.5397  1.8556
 1720TIP3    H226576   1.565   6.390  11.790 -0.8729 -0.0652 -1.6893
 1721TIP3   OH226577   4.440   6.664   3.399 -0.1206  0.6707 -0.3184
 1721TIP3    H126578   4.452   6.703   3.485  0.0942  2.3008 -1.0543
 1721TIP3    H226579   4.358   6.700   3.367 -0.4151 -0.2483 -0.6504
 1722TIP3   OH226580   4.892   6.371  14.191  0.0305  0.4182  0.0792
 1722TIP3    H126581   4.878   6.280  14.216  0.6641  0.2424 -0.1826
 1722TIP3    H226582   4.812   6.416  14.217 -0.4767 -0.2981 -0.2148
 1723TIP3   OH226583   3.620   6.307  10.998 -0.1925  0.1262 -0.3994
 1723TIP3    H126584   3.667   6.273  11.074  1.1871  1.7111 -0.4650
 1723TIP3    H226585   3.573   6.384  11.031 -2.4691 -1.1710 -0.4439
 1724TIP3   OH226586   0.572   6.678   5.761 -0.1238 -0.4981  0.1083
 1724TIP3    H126587   0.657   6.691   5.803 -0.2155  0.2358  0.0747
 1724TIP3    H226588   0.512   6.662   5.834 -0.4623  1.7132  0.3774
 1725TIP3   OH226589   1.712   0.054  11.760  0.7718 -0.8666 -0.5703
 1725TIP3    H126590   1.800   0.081  11.786 -0.0588  1.4446  0.0010
 1725TIP3    H226591   1.682  -0.002  11.832  0.8068  0.5093  0.5611
 1726TIP3   OH226592   1.439   0.820  12.149  0.0549  0.1840 -0.1582
 1726TIP3    H126593   1.510   0.827  12.084 -0.4055  0.5109 -0.6331
 1726TIP3    H226594   1.415   0.910  12.168  0.3313  0.0972  0.6433
 1727TIP3   OH226595   1.986   5.364  16.574 -0.0865 -0.0534 -0.6262
 1727TIP3    H126596   1.968   5.432  16.639 -0.3397  0.4691 -1.2234
 1727TIP3    H226597   2.064   5.396  16.528 -0.4245  0.0231 -1.1567
 1728TIP3   OH226598   5.284   6.277   3.805 -0.3433  0.4683 -0.1501
 1728TIP3    H126599   5.324   6.202   3.848 -0.7993  0.2578 -0.0952
 1728TIP3    H226600   5.331   6.353   3.840 -0.0566  0.2286 -0.0157
 1729TIP3   OH226601   1.857   1.366   2.701 -0.2066 -0.7203 -0.3886
 1729TIP3    H126602   1.846   1.435   2.636 -1.4230 -0.3478  0.1724
 1729TIP3    H226603   1.951   1.350   2.704 -0.1606 -1.2735 -2.7401
 1730TIP3   OH226604   1.449   5.830  14.566 -0.4751  0.1749  0.6489
 1730TIP3    H126605   1.491   5.846  14.651  1.4804 -2.5418  0.3572
 1730TIP3    H226606   1.385   5.761  14.584 -1.4272  0.9134  0.1954
 1731TIP3   OH226607   6.041   5.365   1.597 -0.0617 -0.4733  0.3834
 1731TIP3    H126608   5.980   5.385   1.526 -2.0162 -1.7966  1.5773
 1731TIP3    H226609   6.015   5.423   1.669  1.0701 -0.0267  0.4543
 1732TIP3   OH226610   1.618   2.220  11.359 -0.7831  0.2853  1.2351
 1732TIP3    H126611   1.697   2.260  11.324 -1.4429 -0.6756 -1.6365
 1732TIP3    H226612   1.649   2.149  11.416  0.3394  1.7368  2.5325
 1733TIP3   OH226613   4.984   2.832   5.311 -0.2249  0.1266 -0.1523
 1733TIP3    H126614   4.998   2.840   5.216 -0.9056 -2.1447 -0.4955
 1733TIP3    H226615   4.923   2.759   5.320 -1.4873  1.3662  1.9752
 1734TIP3   OH226616   2.057   4.925   2.873  0.4116 -0.2381 -0.3916
 1734TIP3    H126617   2.130   4.907   2.933  0.1554 -2.5877 -0.6598
 1734TIP3    H226618   2.098   4.961   2.795  1.2800 -1.2742 -0.4326
 1735TIP3   OH226619   1.887   2.554   3.489  0.3788  0.1265  0.2807
 1735TIP3    H126620   1.824   2.616   3.527 -0.7949 -0.7064 -0.2511
 1735TIP3    H226621   1.837   2.506   3.423  0.8706 -2.2944  1.5480
 1736TIP3   OH226622   4.096   3.950   3.093  0.3446 -1.0838 -0.4299
 1736TIP3    H126623   4.042   3.943   3.172 -2.5785  0.5199 -2.1121
 1736TIP3    H226624   4.160   4.018   3.114 -0.1850 -0.8993  0.6624
 1737TIP3   OH226625   4.635   0.130  13.813  0.7786 -0.2079  0.2586
 1737TIP3    H126626   4.580   0.176  13.750  0.7344 -2.3384 -1.3782
 1737TIP3    H226627   4.720   0.174  13.808  1.2528 -1.2187 -2.5195
 1738TIP3   OH226628   4.464   2.157   3.296 -0.2831  0.6403 -0.0257
 1738TIP3    H126629   4.511   2.156   3.380 -0.1971 -0.5776 -0.0623
 1738TIP3    H226630   4.422   2.071   3.292  1.2770 -0.1126 -2.0859
 1739TIP3   OH226631   2.637   1.771   1.358  0.2892  0.0851 -0.1998
 1739TIP3    H126632   2.654   1.846   1.415  1.9851 -0.4165  0.0066
 1739TIP3    H226633   2.547   1.745   1.378 -0.7049  2.5921 -0.9334
 1740TIP3   OH226634   2.976   3.792   1.209 -0.4382  0.0902 -0.0497
 1740TIP3    H126635   3.013   3.767   1.294 -1.4806  0.4871  0.5339
 1740TIP3    H226636   2.885   3.761   1.213 -0.0996 -1.2291 -1.6199
 1741TIP3   OH226637   5.307   1.364  14.733 -0.3228 -0.3036 -0.1979
 1741TIP3    H126638   5.363   1.438  14.709 -0.7575  0.2798  0.5516
 1741TIP3    H226639   5.359   1.315  14.796 -0.8948  0.6183  1.0280
 1742TIP3   OH226640   0.848   0.689  12.051 -0.5857 -0.1268  0.0658
 1742TIP3    H126641   0.893   0.766  12.087  0.4835 -0.8798  0.4038
 1742TIP3    H226642   0.757   0.716  12.044 -0.0742  1.5330 -0.8353
 1743TIP3   OH226643   1.882   4.339   6.002  0.0581 -0.0398 -0.0033
 1743TIP3    H126644   1.923   4.289   5.931  0.5262  1.0293 -0.4976
 1743TIP3    H226645   1.948   4.402   6.028 -1.1107  1.4878 -0.5695
 1744TIP3   OH226646   3.449   1.245  16.753 -0.2929 -0.5919 -0.2365
 1744TIP3    H126647   3.486   1.332  16.773 -0.3525 -0.1908 -1.7566
 1744TIP3    H226648   3.526   1.190  16.738 -0.2645 -0.4930 -0.4647
 1745TIP3   OH226649   5.177   3.683   3.268  0.5851  0.3879  0.0224
 1745TIP3    H126650   5.091   3.654   3.297  0.0204  1.8913 -0.0698
 1745TIP3    H226651   5.158   3.754   3.206  1.8868  0.5066 -0.2598
 1746TIP3   OH226652   4.254   4.980   3.171  0.3067  0.2985  0.0521
 1746TIP3    H126653   4.198   4.993   3.248  0.7071 -0.3404  0.4684
 1746TIP3    H226654   4.240   5.057   3.117  0.5250  1.0915  1.0969
 1747TIP3   OH226655   2.077   2.434  12.867 -0.3312 -0.2545  0.0800
 1747TIP3    H126656   1.989   2.462  12.841 -1.1405 -0.5746  2.3232
 1747TIP3    H226657   2.078   2.441  12.962  1.9505 -0.6693  0.1452
 1748TIP3   OH226658   1.748   1.359  13.384  0.1943 -0.2444  0.4340
 1748TIP3    H126659   1.792   1.438  13.416  0.5872 -0.5570  0.6804
 1748TIP3    H226660   1.815   1.291  13.390  0.5407 -0.1830 -1.7000
 1749TIP3   OH226661   5.522   5.065   3.353  0.3408  0.1679  0.5322
 1749TIP3    H126662   5.601   5.046   3.302 -0.3023  0.7390 -0.7208
 1749TIP3    H226663   5.532   5.013   3.433  3.3328  2.3421  1.7685
 1750TIP3   OH226664   2.394   6.346   1.000 -0.4925 -0.2764 -0.1924
 1750TIP3    H126665   2.440   6.263   0.988  0.1057  0.2447 -1.7148
 1750TIP3    H226666   2.318   6.340   0.941 -0.8094 -0.0008  0.1833
 1751TIP3   OH226667   3.375   0.845   4.687 -0.5329  0.7914 -0.1528
 1751TIP3    H126668   3.442   0.800   4.738  0.3094  0.3474 -1.5934
 1751TIP3    H226669   3.419   0.922   4.651 -0.1366 -0.4829 -2.6657
 1752TIP3   OH226670   2.282   1.171  11.384  0.6908 -0.0725 -0.7102
 1752TIP3    H126671   2.334   1.215  11.316 -0.0216  1.0962 -0.5233
 1752TIP3    H226672   2.191   1.184  11.357  0.4366 -0.6968 -0.1806
 1753TIP3   OH226673   0.832   6.526  11.824  0.1885 -0.4122  0.7706
 1753TIP3    H126674   0.760   6.585  11.801  0.1872 -0.4968  0.5562
 1753TIP3    H226675   0.881   6.514  11.743 -0.0134 -0.9790  0.7273
 1754TIP3   OH226676   1.490   0.019   1.315  0.4371 -0.3581 -0.0910
 1754TIP3    H126677   1.556  -0.044   1.288  1.1326 -0.4339  1.6705
 1754TIP3    H226678   1.532   0.071   1.383 -0.7489  0.7633 -0.1670
 1755TIP3   OH226679   2.715   1.025  12.342 -0.4351  0.2787  0.6321
 1755TIP3    H126680   2.687   1.115  12.325 -1.7521 -0.0125  1.1278
 1755TIP3    H226681   2.809   1.025  12.323 -0.4107  1.7559  0.6341
 1756TIP3   OH226682   4.359   1.662  16.762  0.0280  0.1584 -0.2990
 1756TIP3    H126683   4.264   1.661  16.770 -0.0779  1.0572 -1.2300
 1756TIP3    H226684   4.390   1.609  16.836 -1.2696 -2.4437 -1.4811
 1757TIP3   OH226685   0.547   4.424  11.982  0.1517 -0.4897  0.1408
 1757TIP3    H126686   0.462   4.421  12.027 -0.6768  2.1957 -1.0162
 1757TIP3    H226687   0.525   4.431  11.889  1.3780  3.1359 -0.0538
 1758TIP3   OH226688   4.291   0.171  12.911 -0.3050 -0.6690  0.4350
 1758TIP3    H126689   4.347   0.109  12.864  0.8399  0.9057 -0.3585
 1758TIP3    H226690   4.238   0.212  12.843  1.8434  2.1287  0.2433
 1759TIP3   OH226691   5.278   4.309  11.411 -0.3524  0.0946  0.1960
 1759TIP3    H126692   5.205   4.255  11.444 -0.6005  0.4886  0.2957
 1759TIP3    H226693   5.238   4.366  11.345  0.2444 -1.0848 -1.2396
 1760TIP3   OH226694   0.873   1.900  14.570 -0.0015 -0.2456 -0.0677
 1760TIP3    H126695   0.945   1.911  14.507  0.0199  0.7016  0.1108
 1760TIP3    H226696   0.914   1.910  14.656 -0.4590  1.0757  0.0163
 1761TIP3   OH226697   5.315   5.579   1.024 -0.0454 -0.1773  0.5051
 1761TIP3    H126698   5.382   5.564   0.957  1.5142 -2.2532  2.3824
 1761TIP3    H226699   5.365   5.591   1.105 -1.9281 -0.8631  1.8383
 1762TIP3   OH226700   5.401   6.349  16.624 -0.3064 -0.1998  0.5666
 1762TIP3    H126701   5.306   6.341  16.619 -0.3641 -0.2403  1.5436
 1762TIP3    H226702   5.416   6.433  16.667  0.0585 -0.7691  1.5903
 1763TIP3   OH226703   1.098   4.326   3.709  0.2021  0.1962  0.1919
 1763TIP3    H126704   1.140   4.260   3.653  0.1730 -1.4805  2.0411
 1763TIP3    H226705   1.155   4.332   3.786 -1.1753  0.3599  1.2405
 1764TIP3   OH226706   0.356   1.390  12.987  0.2946 -0.2898  0.0382
 1764TIP3    H126707   0.344   1.443  13.066  1.0896 -1.3267  0.8869
 1764TIP3    H226708   0.292   1.425  12.925  1.2247  2.0872  0.3138
 1765TIP3   OH226709   1.996   1.049  13.741 -0.2131  0.5293 -0.2290
 1765TIP3    H126710   2.086   1.024  13.721 -0.3846  0.1397 -0.5416
 1765TIP3    H226711   1.944   1.002  13.676 -0.6229  0.9348 -0.1953
 1766TIP3   OH226712   2.952   0.872  11.251  0.0533  0.3502 -0.1605
 1766TIP3    H126713   2.917   0.843  11.335  2.3246 -0.3691  0.6091
 1766TIP3    H226714   2.951   0.967  11.255  0.8535  0.3314  1.0388
 1767TIP3   OH226715   0.496   5.291   1.931 -0.1460 -0.3229 -0.0610
 1767TIP3    H126716   0.536   5.374   1.903  0.6375 -0.2053  1.3158
 1767TIP3    H226717   0.506   5.233   1.856  0.9071  0.2989 -0.4178
 1768TIP3   OH226718   3.912   2.889  13.576 -0.0409 -0.4105  0.2120
 1768TIP3    H126719   3.979   2.921  13.636  0.4540  1.7237 -1.3659
 1768TIP3    H226720   3.835   2.941  13.597 -0.0976 -0.2212 -0.4524
 1769TIP3   OH226721   0.463   3.122  13.891 -0.2466 -0.2156 -1.0307
 1769TIP3    H126722   0.438   3.092  13.978 -2.3592 -1.5803 -2.0299
 1769TIP3    H226723   0.382   3.153  13.852  0.5125 -0.2703 -2.7552
 1770TIP3   OH226724   2.604   4.443  17.071  0.2095  0.0524  0.1045
 1770TIP3    H126725   2.523   4.459  17.023  0.2087  2.3767  0.7818
 1770TIP3    H226726   2.665   4.411  17.004 -0.7587 -0.0751 -0.7479
 1771TIP3   OH226727   3.308   4.015   0.617  0.1015 -0.0125 -0.6211
 1771TIP3    H126728   3.302   4.005   0.712  2.1354 -0.1998 -0.4541
 1771TIP3    H226729   3.400   4.038   0.601 -0.0019 -0.7114 -2.5884
 1772TIP3   OH226730   4.428   2.812  16.882 -0.3197  0.2271  0.8965
 1772TIP3    H126731   4.435   2.898  16.923  0.4058  0.2578  0.7311
 1772TIP3    H226732   4.352   2.772  16.923  0.1858  0.3892  2.0249
 1773TIP3   OH226733   4.359   4.376   2.620  0.1421 -0.1186 -0.0164
 1773TIP3    H126734   4.413   4.451   2.645 -0.7711  0.0558  1.5688
 1773TIP3    H226735   4.269   4.406   2.631 -0.2881 -0.8584 -1.2230
 1774TIP3   OH226736   5.433   1.248  13.418 -0.0036 -0.5551 -0.0141
 1774TIP3    H126737   5.425   1.157  13.448 -0.8640 -0.0370  1.4078
 1774TIP3    H226738   5.495   1.244  13.345 -0.1932 -2.3125 -0.1146
 1775TIP3   OH226739   0.170   0.883   0.421  0.3068 -0.2678  0.3537
 1775TIP3    H126740   0.225   0.882   0.342 -1.2045 -1.1414 -0.7333
 1775TIP3    H226741   0.082   0.865   0.389 -0.9921  2.8952  1.8108
 1776TIP3   OH226742   3.484   5.630   5.048 -0.0045  0.2114 -0.0053
 1776TIP3    H126743   3.537   5.572   5.102 -1.6150 -0.9296  0.4326
 1776TIP3    H226744   3.529   5.631   4.964 -0.2928 -2.3360 -0.2807
 1777TIP3   OH226745   0.170   2.983   0.064  0.6695  0.0273 -1.3294
 1777TIP3    H126746   0.158   3.069   0.103 -0.9240 -0.4503 -0.6910
 1777TIP3    H226747   0.085   2.963   0.023  1.6121 -0.4019 -3.2217
 1778TIP3   OH226748   1.425   5.481   6.329 -0.2295  0.1610 -0.0704
 1778TIP3    H126749   1.509   5.442   6.355  1.5240  1.3739 -3.3858
 1778TIP3    H226750   1.432   5.573   6.355 -0.8358  0.1453  0.1806
 1779TIP3   OH226751   4.179   6.734   2.570  0.7453  1.1595  0.7149
 1779TIP3    H126752   4.088   6.708   2.585 -0.0159  2.0103 -1.9148
 1779TIP3    H226753   4.226   6.651   2.561 -0.1203  0.6912  0.3639
 1780TIP3   OH226754   6.375   2.162   6.061 -0.6164 -0.1654  0.2365
 1780TIP3    H126755   6.407   2.082   6.020  0.4604  0.5072 -0.2960
 1780TIP3    H226756   6.296   2.184   6.011 -0.8094 -0.7921  0.2646
 1781TIP3   OH226757   5.105   1.269  16.867  0.7429  0.3656  1.1411
 1781TIP3    H126758   5.098   1.286  16.961 -1.0380  0.3747  1.0397
 1781TIP3    H226759   5.103   1.174  16.859  0.4732  0.3712  1.1074
 1782TIP3   OH226760   0.525   1.879  15.634  0.0708 -0.6058 -0.1012
 1782TIP3    H126761   0.493   1.936  15.564 -1.2042  0.0137  0.9363
 1782TIP3    H226762   0.466   1.804  15.632  0.2789 -0.7717  0.0367
 1783TIP3   OH226763   4.456   3.849  15.296  0.0345 -0.0471  0.0764
 1783TIP3    H126764   4.375   3.810  15.329  0.2028 -0.7638 -0.3399
 1783TIP3    H226765   4.431   3.937  15.270 -0.6684 -0.3249 -0.2368
 1784TIP3   OH226766   5.393   2.300  16.733  0.3649 -0.1991  0.4454
 1784TIP3    H126767   5.451   2.371  16.760 -0.8820  0.6056  1.1073
 1784TIP3    H226768   5.309   2.321  16.774 -0.6441 -0.8472 -1.1963
 1785TIP3   OH226769   1.812   1.537  14.440  0.3765 -0.2539 -0.1581
 1785TIP3    H126770   1.786   1.458  14.393  0.4887  0.4446 -1.4538
 1785TIP3    H226771   1.811   1.512  14.532  1.7658 -2.1658 -0.5965
 1786TIP3   OH226772   3.065   4.907   4.746 -0.3093  0.0850  0.2871
 1786TIP3    H126773   3.075   4.983   4.688  1.3202 -0.1389  0.2057
 1786TIP3    H226774   3.079   4.941   4.834  0.9163 -0.1632  0.2124
 1787TIP3   OH226775   2.264   5.457   4.151  0.5797  0.2716  0.2065
 1787TIP3    H126776   2.235   5.370   4.125 -0.1120 -0.2366  2.4689
 1787TIP3    H226777   2.187   5.513   4.139  0.3343  0.0857  0.8591
 1788TIP3   OH226778   3.385   6.012  10.473  0.0580 -0.1933 -0.4172
 1788TIP3    H126779   3.384   5.927  10.516 -1.7038 -0.3621 -0.7293
 1788TIP3    H226780   3.303   6.053  10.499  0.6175  1.2003 -0.7324
 1789TIP3   OH226781   3.391   0.620  14.927 -0.0403  0.3853  0.6069
 1789TIP3    H126782   3.353   0.653  15.009 -0.3699 -1.5818  1.3030
 1789TIP3    H226783   3.320   0.626  14.864  0.0408  1.3796  0.5924
 1790TIP3   OH226784   4.371   1.895  11.773 -0.0877  0.4127  0.0238
 1790TIP3    H126785   4.329   1.827  11.826 -0.1890 -0.0247 -0.6043
 1790TIP3    H226786   4.343   1.977  11.814  1.1763  0.0725  1.6374
 1791TIP3   OH226787   3.041   2.137  15.253  0.1736 -0.2669 -0.4712
 1791TIP3    H126788   3.026   2.047  15.223 -1.0014 -0.5364  0.8006
 1791TIP3    H226789   3.053   2.128  15.348 -1.9949  1.0702  0.0023
 1792TIP3   OH226790   6.197   5.691   2.472 -0.0265 -0.3934  0.1251
 1792TIP3    H126791   6.269   5.740   2.511  0.0924  0.7882 -1.4535
 1792TIP3    H226792   6.118   5.726   2.514  0.1163  0.6719 -0.4426
 1793TIP3   OH226793   5.358   3.445   3.309 -0.2494 -0.1520 -0.0040
 1793TIP3    H126794   5.271   3.483   3.316  0.1407  0.7698  0.0514
 1793TIP3    H226795   5.388   3.435   3.400 -0.9104 -1.9898  0.0477
 1794TIP3   OH226796   6.438   4.784  14.884  0.1733  0.1203  0.2256
 1794TIP3    H126797   6.352   4.824  14.891  1.1762  2.5517 -0.4926
 1794TIP3    H226798   6.479   4.798  14.970  0.0407 -0.6167  0.4167
 1795TIP3   OH226799   2.177   6.008  14.968  0.0498 -0.6641 -0.4975
 1795TIP3    H126800   2.186   5.920  15.004 -1.0553 -0.7209 -0.3551
 1795TIP3    H226801   2.255   6.018  14.913 -0.5866 -2.3516 -1.8113
 1796TIP3   OH226802   4.029   3.331  13.335 -0.2358 -0.0852  0.2243
 1796TIP3    H126803   4.075   3.311  13.417  0.0709 -0.1414  0.0415
 1796TIP3    H226804   4.098   3.327  13.268 -0.3044  0.8951  0.0831
 1797TIP3   OH226805   1.507   6.348  11.418 -0.0533  0.3405  0.1615
 1797TIP3    H126806   1.453   6.400  11.360  0.4701 -0.8662 -1.5024
 1797TIP3    H226807   1.516   6.264  11.373  2.1820  0.0901  0.9380
 1798TIP3   OH226808   0.125   3.102   0.969  0.2630 -0.3624 -0.5384
 1798TIP3    H126809   0.066   3.027   0.965  0.1064 -0.2764  0.0660
 1798TIP3    H226810   0.179   3.094   0.890  0.1188 -0.9993 -0.5795
 1799TIP3   OH226811   3.148   1.096  13.907  0.0928 -0.0199 -0.5579
 1799TIP3    H126812   3.117   1.010  13.934  0.4492 -0.3938 -1.3231
 1799TIP3    H226813   3.206   1.124  13.979 -0.1315 -0.3512 -0.2478
 1800TIP3   OH226814   2.096   4.558   0.723 -0.3150  0.1963 -0.2273
 1800TIP3    H126815   2.055   4.543   0.638  1.2926 -0.6392 -0.8899
 1800TIP3    H226816   2.098   4.472   0.765  0.9361  0.1578 -0.3150
 1801TIP3   OH226817   0.889   0.454  15.420 -0.1256 -0.0655  0.2919
 1801TIP3    H126818   0.876   0.530  15.475 -3.6317  0.1661 -0.6183
 1801TIP3    H226819   0.877   0.379  15.479  0.0809  0.1168  0.5672
 1802TIP3   OH226820   2.452   6.296  12.594 -0.2020 -0.1097  0.3965
 1802TIP3    H126821   2.527   6.296  12.534  1.0199 -0.8279  1.8183
 1802TIP3    H226822   2.472   6.367  12.656  0.1675 -1.3226  1.7289
 1803TIP3   OH226823   0.628   0.079  11.295 -0.4653  0.0386 -0.1094
 1803TIP3    H126824   0.713   0.035  11.290  0.1746  1.2073 -0.1483
 1803TIP3    H226825   0.638   0.155  11.237 -2.1198 -0.6813 -1.4158
 1804TIP3   OH226826   4.886   1.573   2.860  0.6645  0.0584  0.5454
 1804TIP3    H126827   4.936   1.629   2.801 -0.9518  2.2452  1.1162
 1804TIP3    H226828   4.812   1.541   2.808  0.4446  0.1809  0.7770
 1805TIP3   OH226829   1.916   5.428   3.837  0.7896  0.1254 -0.2624
 1805TIP3    H126830   1.828   5.461   3.822  0.1754 -1.3351 -0.0500
 1805TIP3    H226831   1.921   5.348   3.784  2.2963  0.6494 -0.9665
 1806TIP3   OH226832   0.704   5.210  15.170 -0.1220  0.0107  0.3850
 1806TIP3    H126833   0.624   5.258  15.148  0.7425  0.7290 -1.4217
 1806TIP3    H226834   0.767   5.278  15.195  0.0700 -0.5097  1.3731
 1807TIP3   OH226835   1.298   4.345   0.455  0.5972 -0.0060 -0.5438
 1807TIP3    H126836   1.353   4.396   0.396 -0.2622  2.4698  0.6603
 1807TIP3    H226837   1.224   4.317   0.400  0.1858  1.6149 -0.8598
 1808TIP3   OH226838   4.387   4.360   0.245 -0.3162 -0.8556  0.3711
 1808TIP3    H126839   4.293   4.373   0.235 -0.0366  0.6637 -0.6858
 1808TIP3    H226840   4.407   4.390   0.333 -0.7544 -0.7825  0.4448
 1809TIP3   OH226841   2.106   4.686   1.565 -0.5957  0.0153  0.2454
 1809TIP3    H126842   2.102   4.634   1.485 -0.6509  0.6665 -0.1780
 1809TIP3    H226843   2.180   4.745   1.552 -0.0676 -0.4563  1.0349
 1810TIP3   OH226844   1.774   2.472  10.883  0.0827  0.5014  0.0569
 1810TIP3    H126845   1.825   2.485  10.803 -0.5546  1.8987 -0.1510
 1810TIP3    H226846   1.789   2.551  10.934  1.2296 -0.7495  1.7986
 1811TIP3   OH226847   1.287   2.360   0.473 -0.2258 -0.2382  0.4551
 1811TIP3    H126848   1.301   2.266   0.476  0.1179 -0.2838 -1.5032
 1811TIP3    H226849   1.338   2.390   0.398 -2.3254  1.1105 -0.5437
 1812TIP3   OH226850   2.811   5.082   1.313  0.7529  0.6620  0.2967
 1812TIP3    H126851   2.742   5.075   1.378  0.2499 -1.1202 -0.3474
 1812TIP3    H226852   2.780   5.148   1.251 -0.5228 -0.2801 -0.1119
 1813TIP3   OH226853   3.733   5.209  11.389  0.3006  0.0173 -0.1092
 1813TIP3    H126854   3.640   5.225  11.402  0.5737  1.3041  0.3656
 1813TIP3    H226855   3.776   5.289  11.420  1.4594  0.1368 -1.9064
 1814TIP3   OH226856   5.216   5.505  11.812  0.1314  0.4325 -0.9083
 1814TIP3    H126857   5.188   5.571  11.748 -1.7794  0.0991 -0.4762
 1814TIP3    H226858   5.280   5.452  11.765 -1.0732  0.3165 -2.4992
 1815TIP3   OH226859   4.183   3.767   3.853  0.6558 -1.1245  0.2522
 1815TIP3    H126860   4.141   3.849   3.879  2.1841  1.1391 -3.5404
 1815TIP3    H226861   4.241   3.745   3.926 -0.2748  0.8047  1.6588
 1816TIP3   OH226862   4.039   6.450   0.654  0.1231 -0.0774  0.4921
 1816TIP3    H126863   4.066   6.491   0.572  1.1212 -0.1456  0.7716
 1816TIP3    H226864   4.120   6.443   0.705 -0.0038 -2.3014  0.4793
 1817TIP3   OH226865   4.465   2.780   0.905  0.3619 -0.3066  0.3644
 1817TIP3    H126866   4.432   2.870   0.909  0.9530 -0.0892  0.4324
 1817TIP3    H226867   4.402   2.734   0.850  0.0482  0.1453  0.3410
 1818TIP3   OH226868   4.751   5.041   0.643  0.0460 -0.2592 -0.0268
 1818TIP3    H126869   4.774   4.973   0.579  2.4693 -1.1713  1.6449
 1818TIP3    H226870   4.833   5.057   0.690 -1.3916  1.0780  2.1798
 1819TIP3   OH226871   1.424   4.086   3.758 -0.2358 -0.7442 -0.1675
 1819TIP3    H126872   1.384   4.094   3.844 -1.4275 -1.2513 -0.6443
 1819TIP3    H226873   1.518   4.098   3.773 -0.5257  0.1898  1.0366
 1820TIP3   OH226874   3.155   3.245  14.092 -0.1248  0.3194 -0.4175
 1820TIP3    H126875   3.242   3.219  14.122  0.3122  0.9082 -1.1624
 1820TIP3    H226876   3.159   3.237  13.997 -0.2565  2.2248 -0.6157
 1821TIP3   OH226877   3.961   4.157   5.723 -0.1806 -0.2242  0.1476
 1821TIP3    H126878   3.916   4.241   5.710  0.8855  0.1128 -1.6903
 1821TIP3    H226879   4.004   4.166   5.808 -0.8933  0.7083  0.4240
 1822TIP3   OH226880   6.371   1.816  14.121 -0.5252 -0.7693  0.1487
 1822TIP3    H126881   6.438   1.747  14.125  0.6304  0.3388  0.4597
 1822TIP3    H226882   6.391   1.873  14.195  0.4274  1.5280 -1.7426
 1823TIP3   OH226883   0.753   2.316   6.033 -0.2773 -0.6644  0.3245
 1823TIP3    H126884   0.781   2.288   5.946  1.0813  0.1218  0.4850
 1823TIP3    H226885   0.823   2.374   6.064 -1.2851 -0.0061  1.4736
 1824TIP3   OH226886   6.471   5.626   0.765 -0.1739 -0.7392  0.0581
 1824TIP3    H126887   6.453   5.706   0.815  0.4541  0.1623 -1.1228
 1824TIP3    H226888   6.522   5.572   0.825  0.1351  0.1108  0.5821
 1825TIP3   OH226889   6.315   0.202  14.009  0.3222 -0.0667  0.6148
 1825TIP3    H126890   6.317   0.268  14.079  1.9063  0.4773  0.1017
 1825TIP3    H226891   6.336   0.251  13.929  3.4610 -1.4222  0.4732
 1826TIP3   OH226892   3.946   3.726  15.531  0.2982  0.4104  0.2618
 1826TIP3    H126893   3.889   3.789  15.575 -0.4777 -0.3364  0.3546
 1826TIP3    H226894   4.018   3.712  15.593  0.6740  1.4653  0.0873
 1827TIP3   OH226895   4.032   0.067   1.388  0.3716 -0.1536 -0.4564
 1827TIP3    H126896   3.949   0.034   1.353 -0.2983  2.2923 -1.4134
 1827TIP3    H226897   4.006   0.121   1.463  0.8818  1.7684 -1.5924
 1828TIP3   OH226898   1.584   5.377  16.779 -0.5312  0.8325  0.3105
 1828TIP3    H126899   1.531   5.450  16.745 -0.5056  0.3651 -0.7980
 1828TIP3    H226900   1.642   5.355  16.707  0.4952  0.6753  1.1673
 1829TIP3   OH226901   2.330   1.070  11.894  0.3461 -0.5701 -0.3783
 1829TIP3    H126902   2.270   1.122  11.948  0.0860 -0.9828 -0.2638
 1829TIP3    H226903   2.413   1.073  11.941  0.4157 -0.0028 -0.5317
 1830TIP3   OH226904   1.316   2.687   4.718  0.4333  0.0404 -0.3697
 1830TIP3    H126905   1.411   2.695   4.727  0.2901 -0.0850  1.4850
 1830TIP3    H226906   1.280   2.761   4.767 -0.4458  0.4983 -1.6268
 1831TIP3   OH226907   5.025   1.140   5.932  0.7839 -0.5213 -0.5159
 1831TIP3    H126908   4.955   1.076   5.924  0.2277  0.0377 -0.2142
 1831TIP3    H226909   4.991   1.218   5.889  0.7611  0.1132  0.6085
 1832TIP3   OH226910   5.182   5.505  13.419 -0.5521  0.4169  0.2518
 1832TIP3    H126911   5.249   5.574  13.422  0.0898 -0.1830 -0.0131
 1832TIP3    H226912   5.203   5.448  13.492 -1.8979  1.2141  1.3069
 1833TIP3   OH226913   5.061   3.386  10.435 -0.0371  0.6050  0.1274
 1833TIP3    H126914   4.966   3.395  10.438 -0.2962 -1.0862 -1.3153
 1833TIP3    H226915   5.080   3.318  10.500 -0.2266 -1.2908 -1.6947
 1834TIP3   OH226916   3.120   2.903  12.776  0.6860  0.4048  0.2707
 1834TIP3    H126917   3.171   2.960  12.834 -0.8346  0.5035  1.5938
 1834TIP3    H226918   3.105   2.824  12.827  0.3558 -0.0107 -0.4561
 1835TIP3   OH226919   5.902   5.208  11.570 -0.0358 -0.4753  0.2061
 1835TIP3    H126920   5.901   5.270  11.642  0.7188  0.6089 -0.6969
 1835TIP3    H226921   5.991   5.172  11.570  0.4755  0.6986 -1.1266
 1836TIP3   OH226922   4.996   1.592  16.259 -0.1778 -0.2334 -0.1167
 1836TIP3    H126923   5.009   1.564  16.350 -1.2133  0.5997  0.3190
 1836TIP3    H226924   5.078   1.635  16.235 -0.9416  2.4097  1.5592
 1837TIP3   OH226925   5.638   1.337  15.720 -0.5085  0.3034 -0.0562
 1837TIP3    H126926   5.543   1.333  15.730 -0.6361 -0.7999 -1.4905
 1837TIP3    H226927   5.652   1.354  15.627  0.6949 -1.4152 -0.2385
 1838TIP3   OH226928   5.236   1.505   2.240  0.5017 -0.1975  0.3205
 1838TIP3    H126929   5.300   1.467   2.181  0.6886  0.8061 -0.1535
 1838TIP3    H226930   5.270   1.487   2.328  1.9739  1.1385  0.0798
 1839TIP3   OH226931   6.737   1.908   3.822  0.5758 -0.1170 -0.1555
 1839TIP3    H126932   6.801   1.881   3.756  0.7608 -0.0195 -0.0178
 1839TIP3    H226933   6.765   1.996   3.848 -0.2946  0.4087 -0.9414
 1840TIP3   OH226934   6.260   0.580   6.032  0.4275 -0.2758  0.6014
 1840TIP3    H126935   6.322   0.523   6.076  1.8910  1.6394  1.1751
 1840TIP3    H226936   6.276   0.667   6.070 -1.6803  0.5474 -0.2153
 1841TIP3   OH226937   4.283   1.290  16.510  0.1168 -0.2238  0.1713
 1841TIP3    H126938   4.201   1.241  16.500 -0.2897  0.4133  0.3496
 1841TIP3    H226939   4.272   1.366  16.453  0.3076  0.2084  0.7091
 1842TIP3   OH226940   6.304   3.770   3.535  0.2040  0.8177  0.1895
 1842TIP3    H126941   6.318   3.744   3.627  0.0386 -1.3468 -0.3357
 1842TIP3    H226942   6.210   3.760   3.522  0.4046 -0.3126 -0.5668
 1843TIP3   OH226943   0.594   5.298  13.617  0.0524 -0.1209 -0.2022
 1843TIP3    H126944   0.559   5.307  13.528  0.5741  1.0410 -0.2947
 1843TIP3    H226945   0.689   5.305  13.607  0.1120  0.0536  0.4553
 1844TIP3   OH226946   2.858   1.313  14.783 -0.1395  0.0371  0.4270
 1844TIP3    H126947   2.795   1.249  14.817  1.4551 -1.2707  1.0504
 1844TIP3    H226948   2.885   1.277  14.699 -0.1993  0.5819  0.1719
 1845TIP3   OH226949   6.074   0.549  17.309 -0.1427 -0.1559 -0.2724
 1845TIP3    H126950   6.152   0.560  17.363 -0.5125 -2.6988  0.8994
 1845TIP3    H226951   6.105   0.564  17.219  1.3211  0.3961  0.2966
 1846TIP3   OH226952   3.644   0.363   1.002 -0.5836  0.2470  0.7700
 1846TIP3    H126953   3.738   0.366   1.015 -0.5600  2.1405  0.4171
 1846TIP3    H226954   3.633   0.340   0.910 -0.5478 -1.6290  1.1814
 1847TIP3   OH226955   1.500   6.411  13.390 -0.1044  0.6060  0.1933
 1847TIP3    H126956   1.568   6.399  13.323 -1.8715 -1.4909 -1.3642
 1847TIP3    H226957   1.430   6.351  13.364 -2.5353  2.5890  1.7789
 1848TIP3   OH226958   6.251   5.411   0.632  0.1617 -0.5704  0.1198
 1848TIP3    H126959   6.162   5.446   0.624  0.5679  0.1650 -1.7032
 1848TIP3    H226960   6.240   5.327   0.677 -1.2879  0.0966  1.0879
 1849TIP3   OH226961   4.039   4.666   5.693 -0.2737  0.2046 -0.8819
 1849TIP3    H126962   4.020   4.603   5.763 -0.1182 -0.8118 -1.7342
 1849TIP3    H226963   4.003   4.749   5.725 -0.9533 -0.4268  0.0393
 1850TIP3   OH226964   1.572   3.822   3.813 -0.0866  0.7553  0.5219
 1850TIP3    H126965   1.617   3.897   3.852 -0.4817  0.3780  1.7716
 1850TIP3    H226966   1.540   3.854   3.729  1.5242  1.3591  0.1041
 1851TIP3   OH226967   5.959   0.204   5.431 -0.4139  0.2987 -0.3489
 1851TIP3    H126968   5.972   0.111   5.446 -0.7656  0.2443 -0.3758
 1851TIP3    H226969   6.045   0.243   5.446 -0.1964 -0.0679 -0.6338
 1852TIP3   OH226970   4.373   5.718   2.117 -0.3759 -0.4120 -0.3001
 1852TIP3    H126971   4.420   5.772   2.181 -0.4837  0.7139 -1.1569
 1852TIP3    H226972   4.321   5.779   2.066 -1.3547 -1.4493 -0.5883
 1853TIP3   OH226973   2.104   5.137   5.151 -0.1736  0.1375 -0.0800
 1853TIP3    H126974   2.098   5.053   5.196  0.7285 -0.9394 -1.8602
 1853TIP3    H226975   2.142   5.117   5.066  0.8862  2.4843 -0.2533
 1854TIP3   OH226976   6.527   4.087   4.081  0.3150  0.1089 -0.1377
 1854TIP3    H126977   6.585   4.011   4.074  0.3598  0.1352 -0.0528
 1854TIP3    H226978   6.439   4.050   4.078  0.3366  0.0482 -0.0431
 1855TIP3   OH226979   2.850   5.286  10.589  0.0943  0.0725  0.2794
 1855TIP3    H126980   2.862   5.370  10.544 -0.5026  0.0224  0.0154
 1855TIP3    H226981   2.840   5.309  10.681 -0.0564  0.2903  0.2086
 1856TIP3   OH226982   2.344   0.021  16.150 -0.1121 -0.2924  0.1136
 1856TIP3    H126983   2.405  -0.051  16.167  0.9409  0.1723 -1.4368
 1856TIP3    H226984   2.371   0.055  16.065 -1.3418  1.1869  0.2731
 1857TIP3   OH226985   1.586   0.210   5.827  0.3463 -0.4274  0.2282
 1857TIP3    H126986   1.539   0.144   5.774  0.3085 -0.3399  0.1519
 1857TIP3    H226987   1.668   0.223   5.780 -0.5032  1.1020 -0.9098
 1858TIP3   OH226988   6.322   2.783  10.150 -0.2999  0.4745  0.5677
 1858TIP3    H126989   6.369   2.701  10.162  0.6863  1.0089  0.4203
 1858TIP3    H226990   6.386   2.842  10.110 -1.4628  0.8252 -0.8509
 1859TIP3   OH226991   6.750   1.823   6.365  0.0002 -0.6133 -0.0169
 1859TIP3    H126992   6.743   1.728   6.361  0.2712 -0.6617  0.6332
 1859TIP3    H226993   6.816   1.840   6.433  0.9886  0.0002 -1.0808
 1860TIP3   OH226994   3.429   1.993   1.761  0.4180 -0.1060 -0.4826
 1860TIP3    H126995   3.453   1.940   1.686 -1.2314 -4.0831  1.5186
 1860TIP3    H226996   3.472   1.951   1.835  0.3589  2.4304  1.1160
 1861TIP3   OH226997   6.413   3.158  11.559 -0.1412 -0.1885 -0.2646
 1861TIP3    H126998   6.349   3.103  11.605 -0.0057 -1.6795 -1.7421
 1861TIP3    H226999   6.437   3.226  11.622 -1.2091 -1.1459  1.2324
 1862TIP3   OH227000   5.435   3.479   0.845  0.3208  0.0638 -0.0187
 1862TIP3    H127001   5.483   3.440   0.771  0.3498 -0.0304  0.0489
 1862TIP3    H227002   5.364   3.416   0.862  0.6390 -0.1894  0.3859
 1863TIP3   OH227003   4.567   5.618  11.338  0.2990  0.0158  0.4560
 1863TIP3    H127004   4.556   5.587  11.248  2.9904  0.4162 -0.0806
 1863TIP3    H227005   4.544   5.711  11.334  0.1566 -0.0262  0.2588
 1864TIP3   OH227006   3.563   2.894  11.929  0.3394  0.3296 -0.1071
 1864TIP3    H127007   3.620   2.959  11.889 -1.1316  1.6674 -0.1443
 1864TIP3    H227008   3.584   2.813  11.883  1.2263  1.0689 -1.0735
 1865TIP3   OH227009   0.058   0.514  16.880  0.2296  0.4742  0.1714
 1865TIP3    H127010   0.142   0.559  16.881  0.7503 -0.4581  1.2299
 1865TIP3    H227011   0.006   0.560  16.815  1.1248  1.8587  0.4044
 1866TIP3   OH227012   1.479   1.493  13.416 -0.4167  0.0831 -0.0493
 1866TIP3    H127013   1.554   1.440  13.390  0.3122  1.3608 -0.6284
 1866TIP3    H227014   1.500   1.520  13.506  0.2943  1.2115 -0.5337
 1867TIP3   OH227015   2.040   2.059   4.351 -0.2815  0.0416 -0.5468
 1867TIP3    H127016   2.041   2.047   4.446 -1.2565  0.7032 -0.4425
 1867TIP3    H227017   1.986   1.987   4.319 -0.9887  0.5477 -0.4873
 1868TIP3   OH227018   2.978   4.075  10.270  0.1538  0.0044  0.4402
 1868TIP3    H127019   3.031   3.996  10.260  0.9816  0.6483 -0.3977
 1868TIP3    H227020   3.041   4.143  10.297  0.1815  1.2414 -2.4101
 1869TIP3   OH227021   6.060   6.258  17.383  0.1162  0.3719 -0.3318
 1869TIP3    H127022   6.125   6.327  17.398 -0.9509  1.3074  0.1659
 1869TIP3    H227023   5.992   6.300  17.330 -0.2373 -0.4894 -0.5757
 1870TIP3   OH227024   2.617   5.041   2.526  0.3140  0.7222  0.1451
 1870TIP3    H127025   2.659   5.036   2.440  3.2304  0.3410  1.4539
 1870TIP3    H227026   2.677   5.094   2.578 -1.5988  1.3108  1.8484
 1871TIP3   OH227027   6.215   4.117  16.702  0.2758 -0.0011 -0.0876
 1871TIP3    H127028   6.127   4.081  16.687 -0.0126 -0.0613  1.5591
 1871TIP3    H227029   6.203   4.212  16.701  0.7119  0.0950 -2.5645
 1872TIP3   OH227030   3.944   5.741  12.638  0.3519 -0.0365  0.7876
 1872TIP3    H127031   3.873   5.692  12.681  0.3483 -0.6213  0.1321
 1872TIP3    H227032   3.943   5.826  12.682  1.3675 -1.0879  3.0366
 1873TIP3   OH227033   3.435   3.147   0.174 -0.3009 -0.1414  0.2980
 1873TIP3    H127034   3.422   3.195   0.256  1.0784  0.3172  0.2711
 1873TIP3    H227035   3.522   3.108   0.183 -0.6316 -1.1052 -0.4540
 1874TIP3   OH227036   5.721   0.878   2.393 -0.8197 -0.0878  0.2001
 1874TIP3    H127037   5.800   0.932   2.401  0.0910 -1.5187  1.4272
 1874TIP3    H227038   5.659   0.934   2.346  0.1539  1.9274  1.1660
 1875TIP3   OH227039   4.192   3.706  11.694  0.5318  0.2419  0.0950
 1875TIP3    H127040   4.117   3.722  11.635 -0.0787 -0.7515  0.5805
 1875TIP3    H227041   4.238   3.632  11.655  0.9351  0.4703  0.1273
 1876TIP3   OH227042   3.240   3.118  14.459 -0.4639  0.6292  0.0890
 1876TIP3    H127043   3.310   3.183  14.465  0.8035 -0.7572  1.5652
 1876TIP3    H227044   3.172   3.149  14.519 -0.9106  1.7158 -0.9470
 1877TIP3   OH227045   6.310   2.745   2.039 -0.3640 -0.7032 -0.5139
 1877TIP3    H127046   6.399   2.767   2.011  0.0821  0.6902  1.7233
 1877TIP3    H227047   6.255   2.810   1.995  0.2424  1.0309  1.1421
 1878TIP3   OH227048   5.622   1.388  13.853  0.1933 -0.0030  0.2366
 1878TIP3    H127049   5.601   1.295  13.852 -1.2201  0.3025 -0.8653
 1878TIP3    H227050   5.674   1.400  13.932 -0.9384 -1.4354  1.2439
 1879TIP3   OH227051   3.833   1.002  16.995  0.4640 -0.2209  0.0330
 1879TIP3    H127052   3.842   0.916  16.955  0.9264 -0.6362  0.9943
 1879TIP3    H227053   3.919   1.019  17.035  0.7575  1.1904 -1.1133
 1880TIP3   OH227054   1.022   1.807   4.164  0.1293 -0.3382 -0.1595
 1880TIP3    H127055   1.029   1.741   4.233  1.2863  0.4162  0.4743
 1880TIP3    H227056   0.980   1.882   4.207  1.0394  0.2071 -0.2175
 1881TIP3   OH227057   5.075   6.150   0.202  0.1071  0.4991  0.0111
 1881TIP3    H127058   4.985   6.159   0.233  0.7922  3.0472  1.5417
 1881TIP3    H227059   5.127   6.137   0.281  1.2773  0.7506 -0.6903
 1882TIP3   OH227060   5.822   3.014  16.880 -0.0552  0.1334 -0.0611
 1882TIP3    H127061   5.783   3.082  16.826 -1.0956  1.1125  1.8354
 1882TIP3    H227062   5.761   2.940  16.874 -1.6850  1.2182  1.8893
 1883TIP3   OH227063   1.402   4.479   6.388 -0.6367 -0.1371 -0.5600
 1883TIP3    H127064   1.341   4.492   6.461  1.3894 -0.4473  1.3058
 1883TIP3    H227065   1.438   4.565   6.371  0.1683 -0.3362  0.0472
 1884TIP3   OH227066   0.926   2.750  12.374 -0.5694 -0.2125  0.5142
 1884TIP3    H127067   0.878   2.727  12.454  0.8973 -2.1424  0.9160
 1884TIP3    H227068   0.908   2.677  12.314  1.2413 -0.6118  0.4184
 1885TIP3   OH227069   4.687   6.186   1.029 -0.0568  0.6699 -0.7284
 1885TIP3    H127070   4.604   6.145   1.007  0.4049 -1.1872  0.7445
 1885TIP3    H227071   4.662   6.268   1.072 -1.2642 -0.5961  1.1723
 1886TIP3   OH227072   3.647   3.218  14.082 -0.2356  0.1865 -0.4115
 1886TIP3    H127073   3.613   3.300  14.046  2.0285  0.5672 -1.8474
 1886TIP3    H227074   3.631   3.154  14.013 -2.1745 -0.7013  0.7830
 1887TIP3   OH227075   0.245   5.258   4.034  0.2919 -0.7342  0.1298
 1887TIP3    H127076   0.192   5.201   3.979 -0.3457 -0.6636  0.6630
 1887TIP3    H227077   0.183   5.322   4.070  0.4775 -1.4672  1.8254
 1888TIP3   OH227078   1.521   0.049  16.774 -0.3259 -0.0236 -0.1578
 1888TIP3    H127079   1.536   0.039  16.680 -1.6683 -0.5174 -0.3401
 1888TIP3    H227080   1.599   0.013  16.815 -1.0726 -2.8230 -1.0140
 1889TIP3   OH227081   6.061   5.263   1.143  0.3463 -0.0723 -0.2602
 1889TIP3    H127082   6.059   5.234   1.234 -1.9714 -0.4325 -0.3593
 1889TIP3    H227083   6.147   5.236   1.111  1.3437  0.3543  1.8854
 1890TIP3   OH227084   4.067   1.742   2.393 -0.4175 -0.6013 -0.4557
 1890TIP3    H127085   4.062   1.837   2.406  0.7648 -0.2692 -2.0985
 1890TIP3    H227086   3.993   1.722   2.336  0.7939 -0.1957 -2.2478
 1891TIP3   OH227087   1.430   3.534   4.186  0.3966  0.0936 -0.5240
 1891TIP3    H127088   1.437   3.448   4.227  1.1449  0.0155 -0.7856
 1891TIP3    H227089   1.407   3.515   4.095  2.0884  0.0524 -0.9864
 1892TIP3   OH227090   0.242   1.860  12.475  0.0344 -0.2426 -0.5811
 1892TIP3    H127091   0.288   1.925  12.528 -0.5439  0.4529 -0.9063
 1892TIP3    H227092   0.242   1.897  12.386 -4.0606  1.5334 -0.0826
 1893TIP3   OH227093   5.006   1.713   0.301  0.5914  0.1450  0.7453
 1893TIP3    H127094   4.953   1.636   0.281  1.8645 -0.9433  1.3481
 1893TIP3    H227095   4.971   1.782   0.245 -0.2925 -0.9982 -0.1609
 1894TIP3   OH227096   1.302   2.097   0.526  0.5535  0.4281  0.1485
 1894TIP3    H127097   1.208   2.088   0.513  0.9439  0.0225 -3.4800
 1894TIP3    H227098   1.316   2.075   0.618 -2.6462 -1.6102  0.2931
 1895TIP3   OH227099   4.358   1.049   1.832  0.4843 -0.2162  0.2841
 1895TIP3    H127100   4.404   1.130   1.813 -0.6674  0.3607 -0.1616
 1895TIP3    H227101   4.394   0.985   1.771  0.4898  0.2912 -0.2467
 1896TIP3   OH227102   5.809   2.283  14.264  0.8164 -0.3105  0.4307
 1896TIP3    H127103   5.759   2.342  14.208  1.2419 -0.3685 -0.0180
 1896TIP3    H227104   5.853   2.224  14.203  1.4272 -0.2657  0.8177
 1897TIP3   OH227105   4.941   0.664   1.225  0.0676  0.1721  0.9387
 1897TIP3    H127106   4.937   0.578   1.267 -1.1493 -0.2778 -0.0443
 1897TIP3    H227107   4.905   0.724   1.291 -0.5982 -0.3282  1.0431
 1898TIP3   OH227108   6.371   2.453  15.381  0.5220 -0.6320 -0.3895
 1898TIP3    H127109   6.441   2.420  15.438  2.0894  1.1283 -1.1698
 1898TIP3    H227110   6.314   2.503  15.439  0.6423 -0.9967  0.0460
 1899TIP3   OH227111   2.988   5.488   2.367 -0.0403 -0.1823  0.6430
 1899TIP3    H127112   2.991   5.580   2.393  1.5854  0.3927 -1.3112
 1899TIP3    H227113   3.066   5.475   2.314 -1.1626 -2.2324 -0.6675
 1900TIP3   OH227114   4.937   6.632  14.068  0.8062  0.5821  0.2393
 1900TIP3    H127115   4.917   6.567  14.135  2.0534 -3.7663 -3.1296
 1900TIP3    H227116   4.852   6.666  14.041 -0.4109 -2.5195 -0.3004
 1901TIP3   OH227117   3.347   5.285   1.132  0.4960  0.7096 -0.1727
 1901TIP3    H127118   3.279   5.238   1.084  0.4166 -0.5389  1.0896
 1901TIP3    H227119   3.407   5.316   1.064  0.1084 -0.5255 -1.1228
 1902TIP3   OH227120   1.560   1.757  11.883  0.0599 -0.7835 -0.1472
 1902TIP3    H127121   1.492   1.799  11.935  0.4816  0.2002 -0.3696
 1902TIP3    H227122   1.533   1.665  11.878 -0.7022 -0.6139  0.6322
 1903TIP3   OH227123   4.343   5.367   2.355  0.2619  0.7418 -0.0820
 1903TIP3    H127124   4.269   5.373   2.294 -0.6439  1.7114  1.0626
 1903TIP3    H227125   4.412   5.324   2.305 -1.3031 -0.8938 -0.9834
 1904TIP3   OH227126   1.037   4.366  12.002 -1.1377  0.2155  0.5299
 1904TIP3    H127127   0.963   4.338  12.056 -1.1758  1.1595  0.9919
 1904TIP3    H227128   1.014   4.336  11.914 -1.3966 -0.7424  0.9093
 1905TIP3   OH227129   6.319   1.026  14.237 -0.0422  0.1482  0.2555
 1905TIP3    H127130   6.253   1.093  14.251 -0.0365  0.3291 -0.5177
 1905TIP3    H227131   6.307   0.998  14.146 -0.2245 -1.1000  0.6392
 1906TIP3   OH227132   6.680   0.612  14.189 -0.1678  0.0608  0.2855
 1906TIP3    H127133   6.758   0.662  14.169  0.1729 -0.7330 -0.4571
 1906TIP3    H227134   6.712   0.534  14.235 -0.5789  0.0233  0.5164
 1907TIP3   OH227135   1.767   0.337   2.230 -0.3702  0.4646  0.6358
 1907TIP3    H127136   1.808   0.413   2.270  5.1451 -1.7003 -0.0946
 1907TIP3    H227137   1.757   0.274   2.302  2.2124 -0.6254  0.1523
 1908TIP3   OH227138   4.191   4.864  17.239 -0.6944 -0.1295  0.0341
 1908TIP3    H127139   4.179   4.779  17.281  0.8069 -1.4020 -1.9392
 1908TIP3    H227140   4.170   4.848  17.146 -0.5143  1.6903 -0.3531
 1909TIP3   OH227141   3.775   5.541  12.427 -0.1565  0.4540 -0.1301
 1909TIP3    H127142   3.819   5.568  12.507 -2.9016 -0.7331  1.9450
 1909TIP3    H227143   3.827   5.466  12.396 -1.1959 -1.7600  2.9561
 1910TIP3   OH227144   0.384   4.053   2.174 -0.2831  0.0107  0.2946
 1910TIP3    H127145   0.431   4.011   2.102 -0.6591 -0.5080  0.3458
 1910TIP3    H227146   0.412   4.144   2.171  1.4406 -0.4689  0.9014
 1911TIP3   OH227147   5.056   0.432  12.367  0.3714 -0.0103 -0.1051
 1911TIP3    H127148   5.074   0.418  12.460 -0.9206  1.4022  0.4025
 1911TIP3    H227149   4.984   0.373  12.347 -0.0146  0.4036  0.0558
 1912TIP3   OH227150   2.398   2.647  11.506  0.5667  0.1848 -0.2153
 1912TIP3    H127151   2.444   2.615  11.429  1.3404 -0.7693  0.6241
 1912TIP3    H227152   2.393   2.572  11.565 -3.2764 -0.2255 -0.7726
 1913TIP3   OH227153   2.308   6.074   0.793  0.3435 -0.7622 -0.0587
 1913TIP3    H127154   2.269   6.085   0.707 -1.0962 -0.6484  0.5896
 1913TIP3    H227155   2.235   6.057   0.851  1.4688 -3.1559  0.7980
 1914TIP3   OH227156   3.161   6.142   1.869  0.0319  0.8047 -0.3595
 1914TIP3    H127157   3.230   6.190   1.823  0.6960  0.0241 -0.2004
 1914TIP3    H227158   3.110   6.210   1.913  0.1983  1.4534 -1.1495
 1915TIP3   OH227159   1.982   2.054   1.356 -0.5145  0.3328  0.0867
 1915TIP3    H127160   1.961   1.963   1.376  1.8852 -0.2295  0.3690
 1915TIP3    H227161   2.009   2.053   1.264 -0.6592  0.7961  0.0387
 1916TIP3   OH227162   2.178   4.516  14.027  1.0502  0.1910 -0.8077
 1916TIP3    H127163   2.096   4.469  14.011 -0.3729  2.0111  0.6742
 1916TIP3    H227164   2.150   4.602  14.059  3.5551  0.5211  0.7134
 1917TIP3   OH227165   2.137   2.621   2.502 -0.3982 -0.0340 -0.5327
 1917TIP3    H127166   2.189   2.540   2.502  0.7309  0.6575  0.5905
 1917TIP3    H227167   2.199   2.690   2.478 -0.9522  0.7180  0.1436
 1918TIP3   OH227168   6.361   6.065   4.131  0.0828 -0.1534  0.3834
 1918TIP3    H127169   6.346   6.151   4.093 -0.0936 -0.5411 -0.4427
 1918TIP3    H227170   6.273   6.026   4.138  0.2531 -0.6871 -0.2873
 1919TIP3   OH227171   1.866   3.263  12.517  0.6544  0.0763  0.3616
 1919TIP3    H127172   1.929   3.335  12.514 -1.1106  1.7127  0.8568
 1919TIP3    H227173   1.803   3.288  12.584  1.7682 -3.5618  3.0488
 1920TIP3   OH227174   2.347   5.531   5.721 -0.3746  0.4413  0.4517
 1920TIP3    H127175   2.354   5.600   5.786 -1.3014 -0.0139  1.0525
 1920TIP3    H227176   2.387   5.454   5.762  0.8165  0.6513 -0.2813
 1921TIP3   OH227177   4.567   1.310  13.709  0.5253 -0.0101  0.4746
 1921TIP3    H127178   4.527   1.376  13.766  0.6239 -0.1446  0.6985
 1921TIP3    H227179   4.497   1.246  13.695 -0.2403  1.1644 -1.3995
 1922TIP3   OH227180   1.202   4.554   4.729  0.5322  0.1830  0.5808
 1922TIP3    H127181   1.123   4.507   4.756  1.6266 -2.0043  0.1730
 1922TIP3    H227182   1.174   4.645   4.720 -2.2385 -0.6910 -0.6778
 1923TIP3   OH227183   6.598   1.952   1.923  0.2946  0.4758 -0.1310
 1923TIP3    H127184   6.664   1.956   1.854 -1.2133  1.8558 -1.6022
 1923TIP3    H227185   6.639   1.991   1.999  1.0997  1.5913 -1.1015
 1924TIP3   OH227186   6.605   1.056  15.661 -0.6842  0.1109  0.0636
 1924TIP3    H127187   6.525   1.037  15.710 -0.9690  0.0688 -0.4098
 1924TIP3    H227188   6.587   1.140  15.618 -0.3501  0.2602  0.2193
 1925TIP3   OH227189   6.284   1.575  15.797  0.3100  0.2882 -0.2976
 1925TIP3    H127190   6.289   1.503  15.733  0.7516  0.6690 -0.6988
 1925TIP3    H227191   6.292   1.654  15.744  2.4564  0.5876  0.3631
 1926TIP3   OH227192   6.250   2.427   2.276 -0.5490 -0.7291  0.0583
 1926TIP3    H127193   6.241   2.490   2.205 -0.4498 -0.0984  0.5989
 1926TIP3    H227194   6.338   2.440   2.310 -0.4441 -1.3189  0.0274
 1927TIP3   OH227195   0.399   4.241  15.356 -0.0314 -0.1228 -0.0378
 1927TIP3    H127196   0.480   4.287  15.375  0.0002  0.6065 -1.7068
 1927TIP3    H227197   0.349   4.244  15.437  0.7507  1.2569  0.4158
 1928TIP3   OH227198   5.515   4.718   4.158 -0.6686 -0.4825 -0.0389
 1928TIP3    H127199   5.521   4.707   4.063  1.8002  2.3831 -0.3662
 1928TIP3    H227200   5.558   4.640   4.193  0.2170 -0.6454 -1.3869
 1929TIP3   OH227201   2.708   4.484  16.034 -0.5597 -0.0401  0.2569
 1929TIP3    H127202   2.667   4.529  16.107 -0.4873  1.3999 -0.5548
 1929TIP3    H227203   2.798   4.468  16.063 -0.2557  1.3706  0.1630
 1930TIP3   OH227204   1.347   5.823   3.308  0.0939  0.7094 -0.4682
 1930TIP3    H127205   1.380   5.742   3.269 -0.2662 -0.2484  1.1117
 1930TIP3    H227206   1.268   5.796   3.355 -1.6444  2.5165 -2.1863
 1931TIP3   OH227207   2.702   1.024   6.318 -0.2753 -0.1135 -0.2609
 1931TIP3    H127208   2.628   1.010   6.378  0.8163 -1.0804  0.9123
 1931TIP3    H227209   2.735   1.111   6.340  0.1172 -0.4618  0.5547
 1932TIP3   OH227210   3.530   3.338  13.017 -1.1470  0.0706 -0.1398
 1932TIP3    H127211   3.542   3.281  12.942 -0.3108  0.2608 -0.1636
 1932TIP3    H227212   3.448   3.384  13.000 -0.9174  0.1770 -0.9730
 1933TIP3   OH227213   6.420   1.263   5.314  0.3109  0.1024  0.0992
 1933TIP3    H127214   6.375   1.277   5.231  0.3396 -1.5425 -0.2212
 1933TIP3    H227215   6.513   1.264   5.292  0.3105 -0.6642  0.0426
 1934TIP3   OH227216   1.642   1.464  15.495 -0.6164 -0.2973 -0.1182
 1934TIP3    H127217   1.738   1.471  15.500 -0.5748 -1.2756  1.2446
 1934TIP3    H227218   1.619   1.411  15.571 -2.4102  1.3040  0.5281
 1935TIP3   OH227219   0.790   1.457  10.803 -0.3712 -0.3083  0.0692
 1935TIP3    H127220   0.814   1.386  10.742 -0.0802 -0.0868 -0.0761
 1935TIP3    H227221   0.874   1.488  10.837 -0.2456  1.8875 -2.0161
 1936TIP3   OH227222   5.342   0.140   4.061  0.1141  0.0079  0.3362
 1936TIP3    H127223   5.431   0.110   4.075 -0.0374  0.1528  1.7524
 1936TIP3    H227224   5.350   0.218   4.006  0.7235 -0.8188 -0.7952
 1937TIP3   OH227225   6.159   5.084   1.902  0.5345  0.3928  0.4683
 1937TIP3    H127226   6.129   5.172   1.924 -1.1519 -0.6227  2.5773
 1937TIP3    H227227   6.238   5.071   1.954 -0.0717  0.1458  1.3451
 1938TIP3   OH227228   0.657   0.431  12.741  0.1423  0.2039  0.3203
 1938TIP3    H127229   0.594   0.483  12.790  0.1982  0.4927  0.0891
 1938TIP3    H227230   0.608   0.352  12.716 -0.1032  0.3844  0.2209
 1939TIP3   OH227231   2.370   1.555  12.314 -0.2682  0.7127  0.5801
 1939TIP3    H127232   2.418   1.637  12.313 -0.2791  0.7252  1.0736
 1939TIP3    H227233   2.418   1.500  12.376 -1.4649  1.0711  1.8673
 1940TIP3   OH227234   5.959   6.313  16.361 -0.4692  0.3306 -0.2631
 1940TIP3    H127235   6.022   6.277  16.297  0.2623  2.0536 -0.5826
 1940TIP3    H227236   6.014   6.350  16.430 -1.1870  0.5912  0.1774
 1941TIP3   OH227237   4.934   0.597  16.067  0.6734  0.2626  0.5543
 1941TIP3    H127238   4.842   0.574  16.081  0.2516  1.4951  0.0281
 1941TIP3    H227239   4.961   0.640  16.148  0.1657  1.6600  0.0180
 1942TIP3   OH227240   1.516   4.369   1.760 -0.3065  0.7121 -0.4357
 1942TIP3    H127241   1.565   4.416   1.692  0.2081  0.8883  0.0488
 1942TIP3    H227242   1.440   4.333   1.714  0.1456  0.6445 -1.1508
 1943TIP3   OH227243   5.414   0.679  12.794  0.3523 -0.6910 -0.2723
 1943TIP3    H127244   5.491   0.668  12.850  0.1155  0.2382  0.2625
 1943TIP3    H227245   5.442   0.650  12.708  0.6403 -2.4413  0.3699
 1944TIP3   OH227246   2.622   4.184   5.623  0.4469 -0.4420 -0.3400
 1944TIP3    H127247   2.708   4.143   5.630  1.1603  0.7567 -1.6075
 1944TIP3    H227248   2.596   4.170   5.532  0.4187  1.2557 -0.6384
 1945TIP3   OH227249   4.602   0.687  13.442 -0.6171  0.0955 -0.2087
 1945TIP3    H127250   4.515   0.724  13.427 -0.1578  0.8514 -1.0965
 1945TIP3    H227251   4.662   0.745  13.395  0.3508 -0.5436  0.1944
 1946TIP3   OH227252   3.326   6.536   5.273 -0.2074  0.0679  0.4728
 1946TIP3    H127253   3.282   6.512   5.354  1.4718 -0.6528  1.2220
 1946TIP3    H227254   3.413   6.498   5.281  0.0005 -0.0668 -1.6965
 1947TIP3   OH227255   2.365   5.797  13.008 -0.3573  0.5795  0.2168
 1947TIP3    H127256   2.375   5.702  13.012 -0.9162  0.4175 -1.3774
 1947TIP3    H227257   2.399   5.829  13.092  0.4265 -0.9660  0.5216
 1948TIP3   OH227258   1.937   2.309  10.664 -0.5199 -0.3278 -0.8901
 1948TIP3    H127259   1.859   2.306  10.609 -0.9821 -0.6426 -0.2257
 1948TIP3    H227260   1.955   2.403  10.673 -0.9369 -0.2455 -0.8843
 1949TIP3   OH227261   0.975   2.905   0.779  0.2613  0.2367 -0.5781
 1949TIP3    H127262   0.985   2.939   0.690 -0.5477  1.6191 -0.1723
 1949TIP3    H227263   0.983   2.982   0.835 -1.9949 -0.1323  0.3722
 1950TIP3   OH227264   3.984   2.674   0.358  0.1455  0.4187  0.4601
 1950TIP3    H127265   4.077   2.662   0.372 -0.0058  1.1681  2.2866
 1950TIP3    H227266   3.950   2.705   0.442 -1.7018  0.4270 -0.2403
 1951TIP3   OH227267   6.259   3.223   3.442 -0.1373 -0.5326 -0.2005
 1951TIP3    H127268   6.291   3.169   3.514 -0.2007 -1.2034 -0.6634
 1951TIP3    H227269   6.338   3.248   3.393 -0.1685 -0.8197 -0.4020
 1952TIP3   OH227270   6.307   4.431   5.371 -0.6110 -0.0006  0.7750
 1952TIP3    H127271   6.294   4.451   5.279 -0.5823  0.2524  0.8248
 1952TIP3    H227272   6.357   4.350   5.372  0.1590  0.4683  0.5657
 1953TIP3   OH227273   5.256   0.013   2.134  0.1720  0.0729 -0.3145
 1953TIP3    H127274   5.293  -0.075   2.123 -0.9539 -0.5002  0.1986
 1953TIP3    H227275   5.308   0.052   2.204  0.2274 -0.4642 -0.0496
 1954TIP3   OH227276   0.954   4.997   4.659  0.5671  0.3994  0.0405
 1954TIP3    H127277   1.018   5.068   4.667  1.2114 -0.2444  0.7548
 1954TIP3    H227278   0.910   5.014   4.575  0.9793  1.4132  0.0182
 1955TIP3   OH227279   0.764   2.207   2.624 -0.0189  0.0415  0.1103
 1955TIP3    H127280   0.828   2.139   2.604  1.5014  0.5919  2.6458
 1955TIP3    H227281   0.792   2.282   2.571  1.0905  0.0689  0.7017
 1956TIP3   OH227282   6.364   0.423   0.026 -0.2909 -0.0211  0.2160
 1956TIP3    H127283   6.445   0.473   0.034 -1.0308  0.9520  2.0727
 1956TIP3    H227284   6.355   0.408  -0.069  1.1111  1.4125 -0.1928
 1957TIP3   OH227285   1.091   3.681   1.126 -0.5454 -0.2162 -0.4882
 1957TIP3    H127286   1.148   3.644   1.058  1.0237  1.3479 -0.1031
 1957TIP3    H227287   1.084   3.774   1.104  0.6436  0.5043  1.8377
 1958TIP3   OH227288   5.041   5.468  16.408  0.5809  0.4212 -0.1767
 1958TIP3    H127289   5.132   5.484  16.383  0.0036  2.6214 -1.0708
 1958TIP3    H227290   4.992   5.540  16.369 -1.6954 -1.1761 -0.4638
 1959TIP3   OH227291   2.340   5.117  12.640 -0.1154 -0.3966 -0.0520
 1959TIP3    H127292   2.260   5.160  12.671 -0.2049  0.1028 -0.9380
 1959TIP3    H227293   2.392   5.104  12.719 -0.8032 -0.1545  0.4530
 1960TIP3   OH227294   0.633   3.474  15.519 -0.0158  0.2350  0.2576
 1960TIP3    H127295   0.559   3.429  15.480  0.6360  0.0970 -0.8629
 1960TIP3    H227296   0.673   3.523  15.447  1.8863 -0.9214  0.4550
 1961TIP3   OH227297   2.118   4.254   3.113 -0.3197  0.0384  0.6023
 1961TIP3    H127298   2.149   4.203   3.188 -0.6066  0.7421  1.2242
 1961TIP3    H227299   2.025   4.230   3.105  0.0143 -0.9923 -0.3477
 1962TIP3   OH227300   0.033   0.689  13.099  0.2762  0.2268 -0.7747
 1962TIP3    H127301  -0.048   0.738  13.114  0.2317  0.0014 -0.2682
 1962TIP3    H227302   0.102   0.752  13.116  0.2139  0.4634 -1.3552
 1963TIP3   OH227303   4.479   5.489  11.054 -0.9156  0.4846  0.2800
 1963TIP3    H127304   4.390   5.522  11.047 -1.3224 -0.7449 -0.6650
 1963TIP3    H227305   4.533   5.559  11.018 -1.7086  0.3919 -1.1522
 1964TIP3   OH227306   5.429   0.941  16.212  0.4989 -0.3293 -0.3619
 1964TIP3    H127307   5.425   0.894  16.295  1.1915 -0.1457 -0.2136
 1964TIP3    H227308   5.338   0.953  16.186  0.2916 -0.8603  0.1024
 1965TIP3   OH227309   1.276   2.550   0.123 -0.4835 -0.2610  0.3444
 1965TIP3    H127310   1.347   2.486   0.125 -1.4935 -1.4499  0.0039
 1965TIP3    H227311   1.295   2.606   0.048 -0.6719 -1.5293 -0.6875
 1966TIP3   OH227312   3.853   0.364   0.089  0.3317  0.3672 -0.2002
 1966TIP3    H127313   3.830   0.295   0.028  3.2361  0.5571 -1.6648
 1966TIP3    H227314   3.902   0.320   0.159 -0.2557  0.5839  0.3604
 1967TIP3   OH227315   2.351   0.789   2.796  0.7144 -0.1678 -0.2365
 1967TIP3    H127316   2.259   0.799   2.772  0.5964  0.0089  0.2655
 1967TIP3    H227317   2.354   0.711   2.852  0.7094  0.3515  0.5088
 1968TIP3   OH227318   5.378   4.049   4.065 -0.3856 -0.3891 -0.0748
 1968TIP3    H127319   5.385   3.957   4.039 -4.0972 -0.5245 -1.1884
 1968TIP3    H227320   5.372   4.046   4.160  0.6189 -1.1667 -0.0179
 1969TIP3   OH227321   5.235   1.096  17.122 -0.2431  0.2067 -0.5125
 1969TIP3    H127322   5.282   1.027  17.076 -1.6763 -0.4516 -1.0452
 1969TIP3    H227323   5.304   1.151  17.160  0.9851  0.0854 -2.4284
 1970TIP3   OH227324   5.374   5.113  11.946 -0.0500 -0.0365 -0.0705
 1970TIP3    H127325   5.298   5.135  11.892  0.0636 -1.2529 -0.7686
 1970TIP3    H227326   5.450   5.134  11.892  0.1048  0.4894  0.3450
 1971TIP3   OH227327   2.485   5.060  12.957 -0.1731 -0.3256  0.4110
 1971TIP3    H127328   2.560   5.006  12.980  0.9977 -0.3067 -2.8784
 1971TIP3    H227329   2.522   5.146  12.937 -1.2676  0.1100  0.2015
 1972TIP3   OH227330   1.754   3.120   2.117  0.0167  0.1056 -0.1474
 1972TIP3    H127331   1.794   3.205   2.099  1.1857 -0.4986 -0.4793
 1972TIP3    H227332   1.819   3.073   2.169 -0.3885 -0.7902 -0.4314
 1973TIP3   OH227333   3.503   1.873   5.247 -0.3963  0.0819 -0.0738
 1973TIP3    H127334   3.539   1.898   5.332  1.2069  0.4405 -0.8137
 1973TIP3    H227335   3.485   1.957   5.204  0.0578 -0.0762 -0.5818
 1974TIP3   OH227336   1.608   0.914   1.786 -0.3598  0.2708  0.2813
 1974TIP3    H127337   1.625   0.886   1.876 -1.1072  1.0197  0.6639
 1974TIP3    H227338   1.536   0.858   1.756 -1.2742  1.1770  0.7509
 1975TIP3   OH227339   0.453   3.100   1.023 -0.6489  0.5347  0.3256
 1975TIP3    H127340   0.436   3.010   1.050 -1.0061 -0.0134 -1.5819
 1975TIP3    H227341   0.386   3.152   1.068 -0.7658 -0.1996  1.0268
 1976TIP3   OH227342   3.509   0.424  15.072 -0.2344  0.3644 -0.0401
 1976TIP3    H127343   3.459   0.465  15.002  0.9794  1.2744 -0.4078
 1976TIP3    H227344   3.554   0.497  15.116  1.0353 -0.4311  0.0497
 1977TIP3   OH227345   0.211   1.835   0.196  0.5242  0.2739 -0.2614
 1977TIP3    H127346   0.252   1.855   0.280 -3.9842  0.4475  2.2509
 1977TIP3    H227347   0.204   1.920   0.153 -0.0108  0.7831  0.7696
 1978TIP3   OH227348   4.917   3.680   5.310 -0.2040 -0.2962  0.1703
 1978TIP3    H127349   4.876   3.631   5.239 -1.4234 -0.1721  0.7704
 1978TIP3    H227350   4.995   3.720   5.269  0.6209 -2.3698 -0.4292
 1979TIP3   OH227351   3.033   0.787   4.508 -0.3844  0.2608  0.5997
 1979TIP3    H127352   2.975   0.857   4.538  0.0729  0.1251  1.8694
 1979TIP3    H227353   3.047   0.732   4.586 -0.4376 -1.0422 -0.2779
 1980TIP3   OH227354   4.219   4.444   0.807 -0.4641  0.4026  0.2378
 1980TIP3    H127355   4.132   4.410   0.828  0.7987 -2.0802  2.1253
 1980TIP3    H227356   4.237   4.508   0.876  0.7724 -2.3055  2.6392
 1981TIP3   OH227357   2.413   6.116  15.920 -0.1741 -0.1413  0.2011
 1981TIP3    H127358   2.473   6.172  15.969 -0.2996 -0.9895  1.3698
 1981TIP3    H227359   2.366   6.176  15.862 -1.7032  1.3333  2.7768
 1982TIP3   OH227360   5.445   6.483  11.603  0.1269 -0.9574 -0.0041
 1982TIP3    H127361   5.447   6.567  11.649 -0.7068 -0.6428 -0.5178
 1982TIP3    H227362   5.368   6.439  11.638  0.6260 -1.5714  0.3482
 1983TIP3   OH227363   0.092   2.420  11.006  0.4566  0.1659  0.9321
 1983TIP3    H127364   0.002   2.390  11.019 -0.1541  1.1453 -0.7436
 1983TIP3    H227365   0.084   2.513  10.988  1.5213 -0.1924 -1.8221
 1984TIP3   OH227366   3.246   5.609   6.349 -0.3213 -0.0673 -0.0103
 1984TIP3    H127367   3.309   5.680   6.360  0.3354 -0.5814 -0.3932
 1984TIP3    H227368   3.173   5.633   6.407  0.1353  0.6270  0.2969
 1985TIP3   OH227369   2.705   0.647   3.632  0.1325  0.0820 -0.5341
 1985TIP3    H127370   2.742   0.706   3.565  0.4711 -0.4612 -0.8267
 1985TIP3    H227371   2.613   0.674   3.639  0.0063 -0.0825 -1.4728
 1986TIP3   OH227372   4.684   1.044  15.546 -0.0635  0.1877 -0.0526
 1986TIP3    H127373   4.697   1.136  15.523  0.0957  0.6581  1.7779
 1986TIP3    H227374   4.771   1.012  15.569 -0.0323 -0.5888 -1.1785
 1987TIP3   OH227375   2.527   6.352   2.094  0.8085  0.3261  0.5529
 1987TIP3    H127376   2.514   6.391   2.181  0.2707  0.3875  0.4480
 1987TIP3    H227377   2.537   6.258   2.111 -1.2065  0.0605  0.5429
 1988TIP3   OH227378   5.192   2.288  13.433 -0.9018 -0.5991  0.2448
 1988TIP3    H127379   5.190   2.308  13.527 -0.6363 -0.5519  0.2401
 1988TIP3    H227380   5.194   2.374  13.391 -0.1430 -0.6245  0.2164
 1989TIP3   OH227381   0.101   2.291  16.476 -0.6944 -0.0461 -0.4012
 1989TIP3    H127382   0.059   2.238  16.544  1.1224 -0.0171  0.7955
 1989TIP3    H227383   0.043   2.367  16.466 -0.3927  0.5697  2.0221
 1990TIP3   OH227384   5.200   5.516   0.390 -0.0480 -0.1103  0.2588
 1990TIP3    H127385   5.209   5.431   0.434 -0.4711 -0.0042  0.5546
 1990TIP3    H227386   5.120   5.509   0.338 -0.5181  0.3627  0.8920
 1991TIP3   OH227387   3.571   2.631   5.493 -0.0995 -0.4404  0.4864
 1991TIP3    H127388   3.656   2.670   5.471  0.0207 -1.3723 -0.8603
 1991TIP3    H227389   3.592   2.562   5.556  0.1456 -0.6034  0.2325
 1992TIP3   OH227390   1.457   4.192  16.786  0.0628  0.6425  0.1113
 1992TIP3    H127391   1.482   4.178  16.695  0.6321  0.3397  0.3076
 1992TIP3    H227392   1.537   4.225  16.828  0.5888 -1.6029  1.0540
 1993TIP3   OH227393   3.112   1.501  12.706  0.2570 -0.2809  0.8656
 1993TIP3    H127394   3.017   1.495  12.715  0.3232 -0.4740  1.5157
 1993TIP3    H227395   3.127   1.510  12.612 -0.4346  0.3433  0.8076
 1994TIP3   OH227396   6.355   2.132  12.546 -0.1291  0.1615  0.2111
 1994TIP3    H127397   6.385   2.048  12.581 -0.3263  0.0353  0.0795
 1994TIP3    H227398   6.260   2.121  12.536 -0.0960  0.2515 -0.2166
 1995TIP3   OH227399   3.381   0.201  15.118  0.1289  0.0760 -0.0862
 1995TIP3    H127400   3.301   0.219  15.167  0.2148 -1.8867  0.8630
 1995TIP3    H227401   3.424   0.286  15.109 -1.3633  0.9309  0.6168
 1996TIP3   OH227402   5.991   2.195  16.519 -0.2269 -0.1042 -0.2179
 1996TIP3    H127403   6.019   2.127  16.457  0.0249  0.0047 -0.2276
 1996TIP3    H227404   6.016   2.161  16.605 -0.9556 -0.4400 -0.1385
 1997TIP3   OH227405   0.879   2.210   5.383 -0.2806  0.2711 -0.0934
 1997TIP3    H127406   0.855   2.288   5.333 -1.4899  1.2820  1.9375
 1997TIP3    H227407   0.930   2.244   5.457  0.4279 -1.0384  0.0472
 1998TIP3   OH227408   1.356   6.080  16.463 -0.2262 -0.4000 -0.7379
 1998TIP3    H127409   1.427   6.144  16.463 -0.4598 -0.1271  0.4087
 1998TIP3    H227410   1.367   6.030  16.544  0.2871 -2.2215 -1.8619
 1999TIP3   OH227411   2.327   6.675  13.926 -0.1518 -0.2124  0.2823
 1999TIP3    H127412   2.336   6.583  13.952 -0.1590  0.0252  1.1728
 1999TIP3    H227413   2.233   6.691  13.929 -0.0191  0.4900  2.6562
 2000TIP3   OH227414   3.117   1.274  11.514 -0.0224 -0.4207 -0.8053
 2000TIP3    H127415   3.131   1.240  11.426 -0.8650 -2.9112 -0.0587
 2000TIP3    H227416   3.205   1.287  11.550  0.3232  0.6379 -1.9734
 2001TIP3   OH227417   3.242   2.629   1.970 -0.3199 -0.9214 -0.7583
 2001TIP3    H127418   3.321   2.622   2.024  0.6462  1.0422 -1.8093
 2001TIP3    H227419   3.205   2.541   1.971  1.3232 -1.6657  0.5976
 2002TIP3   OH227420   5.633   3.802   5.765 -0.0324 -0.0977 -0.4189
 2002TIP3    H127421   5.625   3.834   5.855  0.1614 -0.5540 -0.2325
 2002TIP3    H227422   5.703   3.856   5.727  0.7187 -0.6950  0.0827
 2003TIP3   OH227423   4.121   0.854  14.296  0.1916 -0.4012  0.5789
 2003TIP3    H127424   4.163   0.844  14.211 -1.0882  2.4821 -0.5480
 2003TIP3    H227425   4.192   0.849  14.359  1.6366  0.3851 -0.9253
 2004TIP3   OH227426   5.914   2.853  12.656  0.0726  0.0912 -0.1468
 2004TIP3    H127427   5.826   2.831  12.625 -0.7040  2.2132  0.3313
 2004TIP3    H227428   5.901   2.934  12.706  2.2670  0.2657  0.2109
 2005TIP3   OH227429   4.556   3.279   2.701  0.0415  0.0672  0.5043
 2005TIP3    H127430   4.535   3.339   2.630  0.7825  3.1923  2.7497
 2005TIP3    H227431   4.650   3.263   2.692 -0.2125 -1.1855 -0.2966
 2006TIP3   OH227432   2.416   1.277  12.380  0.6324  0.2016  0.2864
 2006TIP3    H127433   2.427   1.188  12.412 -0.4155 -0.1986 -0.4068
 2006TIP3    H227434   2.493   1.292  12.325  0.4041 -0.5933 -0.2733
 2007TIP3   OH227435   1.160   0.339   2.405  0.0357  0.3625  0.1982
 2007TIP3    H127436   1.228   0.387   2.358 -0.3472  0.5905 -0.1298
 2007TIP3    H227437   1.140   0.265   2.348 -0.3249  0.5572  0.0664
 2008TIP3   OH227438   5.876   2.361  11.320 -0.0879  0.1315  0.0647
 2008TIP3    H127439   5.911   2.383  11.407  0.8936  1.4318 -0.6230
 2008TIP3    H227440   5.953   2.339  11.268 -0.7553 -1.6472 -0.2365
 2009TIP3   OH227441   3.974   5.242  11.170  0.0385 -0.3499  0.0073
 2009TIP3    H127442   3.949   5.192  11.248 -1.7078  0.6799  0.1621
 2009TIP3    H227443   3.927   5.200  11.098  2.6977 -2.1710 -0.8540
 2010TIP3   OH227444   2.146   3.609   2.393  0.2409  0.2510 -0.0085
 2010TIP3    H127445   2.201   3.656   2.331 -0.9457 -0.0629 -1.3635
 2010TIP3    H227446   2.057   3.624   2.362 -0.5185  1.0675  2.3197
 2011TIP3   OH227447   2.742   1.799  11.300  0.1454  0.3725  0.0165
 2011TIP3    H127448   2.711   1.883  11.268  1.1850  0.5606 -0.5307
 2011TIP3    H227449   2.837   1.810  11.309  0.4486 -1.0261 -1.0249
 2012TIP3   OH227450   4.157   4.954   2.113  0.1546 -0.1632 -0.5328
 2012TIP3    H127451   4.179   5.047   2.112  1.8202 -0.4537  1.7782
 2012TIP3    H227452   4.097   4.944   2.187  0.9907 -1.0683  0.0561
 2013TIP3   OH227453   5.630   5.213   5.370 -0.7204  0.1256 -0.3287
 2013TIP3    H127454   5.660   5.300   5.343  0.0569 -0.3068 -0.9069
 2013TIP3    H227455   5.688   5.190   5.442 -1.4578  0.4146  0.3730
 2014TIP3   OH227456   2.328   5.540   3.882 -0.2034 -0.0027  0.2173
 2014TIP3    H127457   2.418   5.525   3.854  1.0094  1.7738  2.8704
 2014TIP3    H227458   2.308   5.467   3.941 -0.8264 -0.7768 -0.8983
 2015TIP3   OH227459   5.309   4.754  14.032 -0.2995 -0.0166 -0.1798
 2015TIP3    H127460   5.301   4.794  14.118 -1.2630 -0.5051 -0.0349
 2015TIP3    H227461   5.221   4.754  13.996 -0.2772 -1.6617 -0.3259
 2016TIP3   OH227462   2.649   1.787   2.084 -0.7857  0.4805 -0.4305
 2016TIP3    H127463   2.688   1.703   2.106 -0.5154  0.5461 -0.6473
 2016TIP3    H227464   2.715   1.831   2.029 -1.2647  0.4816 -1.0230
 2017TIP3   OH227465   0.331   3.705   5.871 -0.2761  0.1436  0.7022
 2017TIP3    H127466   0.421   3.736   5.881 -0.8285  1.9629  0.5492
 2017TIP3    H227467   0.339   3.612   5.853  1.7045  0.5812 -1.2021
 2018TIP3   OH227468   4.418   4.207  12.689  0.2426 -0.2198  0.5050
 2018TIP3    H127469   4.481   4.264  12.733  0.7271  1.5203 -2.2231
 2018TIP3    H227470   4.363   4.267  12.637 -0.8840 -2.0451 -0.5381
 2019TIP3   OH227471   4.256   0.125   5.379 -0.2631  0.7219  1.1744
 2019TIP3    H127472   4.168   0.149   5.409 -0.1627  0.0781  2.0070
 2019TIP3    H227473   4.306   0.111   5.459  1.4194  3.8232  0.8368
 2020TIP3   OH227474   3.411   4.166  12.123 -0.0058 -0.2137 -0.5455
 2020TIP3    H127475   3.380   4.256  12.136 -0.6528 -0.5555  0.3709
 2020TIP3    H227476   3.391   4.147  12.031 -1.5313 -0.0322 -0.2846
 2021TIP3   OH227477   0.658   4.932   5.800  0.0060 -0.0388  0.1774
 2021TIP3    H127478   0.698   4.977   5.875 -0.5348 -0.8895  1.0065
 2021TIP3    H227479   0.695   4.844   5.804  0.6456  0.1537 -1.1024
 2022TIP3   OH227480   5.246   4.198  16.640 -0.0517  0.1219  0.2864
 2022TIP3    H127481   5.336   4.184  16.669  0.0800 -0.0754 -0.2049
 2022TIP3    H227482   5.207   4.254  16.708  0.7490  1.0819 -0.0159
 2023TIP3   OH227483   3.348   1.239   1.236 -0.7820 -0.2663 -0.8458
 2023TIP3    H127484   3.373   1.300   1.166  1.6709 -0.8829 -0.6064
 2023TIP3    H227485   3.325   1.296   1.309 -0.9700  0.3765 -1.3857
 2024TIP3   OH227486   2.725   6.092   5.452 -0.0906 -0.7234  0.0492
 2024TIP3    H127487   2.769   6.158   5.506  1.1309 -1.9001  0.5292
 2024TIP3    H227488   2.715   6.134   5.367 -0.0912  0.3804  0.5718
 2025TIP3   OH227489   5.948   0.177  12.474 -0.0596 -0.7098 -0.5238
 2025TIP3    H127490   5.940   0.106  12.409  0.5671 -0.3281 -1.0239
 2025TIP3    H227491   5.987   0.250  12.425  0.7612 -0.5374  0.3718
 2026TIP3   OH227492   4.517   6.465   0.316 -0.1237 -0.0272  0.4270
 2026TIP3    H127493   4.593   6.426   0.271 -0.7666 -0.7569 -0.0433
 2026TIP3    H227494   4.528   6.560   0.302  1.0087 -0.0794  0.8687
 2027TIP3   OH227495   4.025   3.639  12.457 -0.1778 -0.0030  0.0287
 2027TIP3    H127496   4.065   3.721  12.486 -2.1184  0.9873  0.0617
 2027TIP3    H227497   4.011   3.651  12.363  0.3571 -0.6723 -0.1391
 2028TIP3   OH227498   4.611   2.433   5.324  0.2486 -0.1832  0.0405
 2028TIP3    H127499   4.601   2.478   5.408 -1.3748  1.5125 -0.9945
 2028TIP3    H227500   4.525   2.394   5.308 -0.3967  1.9394 -2.1259
 2029TIP3   OH227501   4.923   1.756  12.389 -0.5875 -0.1063  0.2792
 2029TIP3    H127502   4.984   1.726  12.322  1.4780  1.9343  1.1233
 2029TIP3    H227503   4.878   1.676  12.418 -0.3230 -1.2736 -2.2714
 2030TIP3   OH227504   0.940   0.261  13.832  0.1687 -0.5452 -0.0555
 2030TIP3    H127505   0.969   0.304  13.752  2.4250 -0.8810  0.5329
 2030TIP3    H227506   0.893   0.183  13.802 -2.3183  1.2130 -1.0819
 2031TIP3   OH227507   1.941   0.334   4.089  0.4848  0.1185 -0.0259
 2031TIP3    H127508   1.851   0.331   4.121  0.1759 -1.1797 -0.9437
 2031TIP3    H227509   1.944   0.411   4.032 -0.3320 -0.3901 -0.7704
 2032TIP3   OH227510   1.982   5.985  14.739 -0.8153 -0.0683 -0.3299
 2032TIP3    H127511   2.060   6.039  14.723 -0.6397 -0.4325 -0.7415
 2032TIP3    H227512   2.005   5.933  14.816 -1.2170  0.8605  0.4452
 2033TIP3   OH227513   0.929   1.450   5.017  0.2319  0.3386 -0.1517
 2033TIP3    H127514   0.938   1.539   4.984 -1.6484 -0.0482 -1.9445
 2033TIP3    H227515   0.924   1.460   5.112  2.2716  1.8750 -0.1397
 2034TIP3   OH227516   5.966   3.198  15.323 -0.2682  0.2190  0.0975
 2034TIP3    H127517   5.896   3.177  15.261  1.1534  0.8444 -1.8070
 2034TIP3    H227518   6.032   3.131  15.307 -0.1079  0.0306  1.4125
 2035TIP3   OH227519   0.331   5.616   1.577  0.1890  0.1993 -0.2606
 2035TIP3    H127520   0.274   5.635   1.651 -0.1394  0.0525 -0.4762
 2035TIP3    H227521   0.339   5.521   1.575  0.9963  0.2473  0.1828
 2036TIP3   OH227522   5.975   1.713   5.855 -0.8025 -0.1980 -0.1040
 2036TIP3    H127523   5.961   1.652   5.927 -0.0004 -2.2555 -1.5725
 2036TIP3    H227524   6.069   1.710   5.839 -1.2087 -1.9347 -2.8731
 2037TIP3   OH227525   6.725   1.462  16.890 -0.3541 -0.2725  0.1204
 2037TIP3    H127526   6.819   1.468  16.874  0.0119 -3.3578  0.5105
 2037TIP3    H227527   6.704   1.542  16.939  2.4042 -0.2260  1.4161
 2038TIP3   OH227528   6.751   1.886   4.840 -0.3771 -0.8966 -0.7962
 2038TIP3    H127529   6.763   1.876   4.746  0.1314 -1.6152 -0.6633
 2038TIP3    H227530   6.836   1.917   4.871 -0.3610 -1.2403 -0.4944
 2039TIP3   OH227531   0.166   6.563   0.931  0.3621  0.5703  0.8038
 2039TIP3    H127532   0.157   6.622   1.005  0.8327 -0.4865  1.7236
 2039TIP3    H227533   0.240   6.599   0.881 -0.6643  1.9247  0.1968
 2040TIP3   OH227534   2.047   3.333  16.768 -0.4845 -0.2471 -0.0140
 2040TIP3    H127535   1.991   3.347  16.691 -2.3067 -0.0908  1.2593
 2040TIP3    H227536   2.104   3.410  16.770 -1.3712  0.4416 -0.4410
 2041TIP3   OH227537   4.995   2.034  12.053  0.6371 -0.5181  0.1536
 2041TIP3    H127538   4.939   2.081  11.992 -0.7468 -0.6642  1.2737
 2041TIP3    H227539   5.045   2.103  12.097  2.4984 -0.4666 -1.8579
 2042TIP3   OH227540   5.572   3.267   5.259  0.2743 -0.4513  0.1693
 2042TIP3    H127541   5.535   3.209   5.326  1.4903  0.5482  1.7950
 2042TIP3    H227542   5.496   3.301   5.212 -0.6086 -1.4089  0.8586
 2043TIP3   OH227543   4.594   4.567  13.195 -0.1499  0.2612  0.0827
 2043TIP3    H127544   4.527   4.631  13.172 -0.1493  0.0157 -0.6219
 2043TIP3    H227545   4.546   4.484  13.201 -0.4407  0.5046  2.4442
 2044TIP3   OH227546   3.135   1.748   4.719  0.2715  0.3816 -0.8086
 2044TIP3    H127547   3.078   1.794   4.781  0.6753  0.1549 -0.2567
 2044TIP3    H227548   3.201   1.813   4.694 -0.6008  0.8452 -1.9610
 2045TIP3   OH227549   4.399   2.775  13.654  0.5346  0.0143 -0.0673
 2045TIP3    H127550   4.491   2.798  13.660  0.5980 -0.4678  1.0557
 2045TIP3    H227551   4.356   2.830  13.719  0.1059 -0.1481 -0.2077
 2046TIP3   OH227552   5.778   3.546  12.665  0.1913 -0.4317 -0.3580
 2046TIP3    H127553   5.780   3.491  12.743 -1.0705 -0.8819 -0.6192
 2046TIP3    H227554   5.686   3.571  12.655  0.3252 -0.3777 -1.6848
 2047TIP3   OH227555   5.811   0.124   5.205 -0.6121  0.5848  0.0687
 2047TIP3    H127556   5.863   0.157   5.278 -0.6092 -2.3455  1.5084
 2047TIP3    H227557   5.720   0.139   5.232 -0.6015  0.6204  0.0857
 2048TIP3   OH227558   5.503   6.472  13.659 -0.3916 -0.0904 -0.6833
 2048TIP3    H127559   5.473   6.389  13.624 -0.2110 -1.4059  2.0279
 2048TIP3    H227560   5.434   6.499  13.720 -0.5238  1.8672 -1.6135
 2049TIP3   OH227561   1.774   4.340   3.486 -0.5450  0.5059  0.1021
 2049TIP3    H127562   1.779   4.352   3.581 -0.0288  0.9769  0.0182
 2049TIP3    H227563   1.687   4.301   3.472  0.1352 -1.4601  0.9545
 2050TIP3   OH227564   5.885   2.862   6.199 -0.0393 -0.2482  0.2202
 2050TIP3    H127565   5.935   2.871   6.117  0.1079 -0.0905  0.3272
 2050TIP3    H227566   5.864   2.952   6.224  0.1051 -0.2834  0.4715
 2051TIP3   OH227567   3.049   3.421  16.038  0.3387  0.0847 -0.2414
 2051TIP3    H127568   3.120   3.383  16.090  0.6180  3.3892  2.1725
 2051TIP3    H227569   3.092   3.457  15.961  0.8675 -0.0863 -0.0319
 2052TIP3   OH227570   6.148   4.346   0.117  0.6504 -0.4681  0.2386
 2052TIP3    H127571   6.226   4.313   0.071  1.0326  0.6249  0.0832
 2052TIP3    H227572   6.077   4.288   0.087  0.9915 -0.1466 -1.3019
 2053TIP3   OH227573   3.041   2.219  16.897 -0.4510  0.0132 -0.3324
 2053TIP3    H127574   3.123   2.236  16.944  0.1200  0.1068 -1.3386
 2053TIP3    H227575   3.067   2.170  16.819 -1.4687 -0.7925 -0.1945
 2054TIP3   OH227576   0.433   4.033  17.020 -0.4775 -0.0575  0.4350
 2054TIP3    H127577   0.381   3.954  17.004 -0.2505  0.0716 -1.1396
 2054TIP3    H227578   0.392   4.074  17.095 -2.6922  0.0432 -0.7441
 2055TIP3   OH227579   6.233   0.307  13.244 -0.2036 -0.7243  0.2284
 2055TIP3    H127580   6.284   0.234  13.210  0.4195  0.4758 -1.5480
 2055TIP3    H227581   6.141   0.280  13.234 -0.0887 -0.2176 -3.1223
 2056TIP3   OH227582   0.433   0.789   5.676 -0.2959  0.1886  0.2043
 2056TIP3    H127583   0.415   0.879   5.703 -2.4709 -0.2253  0.2809
 2056TIP3    H227584   0.484   0.752   5.748 -0.8406  0.8748  0.9616
 2057TIP3   OH227585   5.275   2.931  11.182 -0.5685  0.4063 -0.4880
 2057TIP3    H127586   5.312   3.014  11.153  0.4417 -0.1564 -0.8568
 2057TIP3    H227587   5.341   2.893  11.240 -1.8100  0.6887  1.1779
 2058TIP3   OH227588   5.246   2.851  16.596 -0.3650  0.6725 -0.2407
 2058TIP3    H127589   5.224   2.944  16.600 -0.7579  0.5586  0.4538
 2058TIP3    H227590   5.284   2.832  16.682  1.0657  0.5100 -0.8791
 2059TIP3   OH227591   4.449   2.121   5.443  0.2404 -0.4154 -0.0715
 2059TIP3    H127592   4.432   2.128   5.349  0.0942 -0.0064 -0.0171
 2059TIP3    H227593   4.544   2.120   5.450  0.3321 -3.8357 -0.4601
 2060TIP3   OH227594   0.571   4.892   0.924  0.0703 -0.1453 -0.1320
 2060TIP3    H127595   0.661   4.886   0.956 -0.2601 -0.3807  0.7632
 2060TIP3    H227596   0.570   4.838   0.845  0.8189  0.2219 -0.4071
 2061TIP3   OH227597   2.080   3.648  17.365  0.4130  0.1923  0.1095
 2061TIP3    H127598   2.103   3.556  17.379 -0.4287 -0.1376 -0.5395
 2061TIP3    H227599   2.159   3.687  17.328  1.5701  0.3194  2.5146
 2062TIP3   OH227600   6.067   5.224  16.284  0.2154 -0.2676 -0.5954
 2062TIP3    H127601   6.010   5.148  16.274 -0.3803  0.0113  0.5621
 2062TIP3    H227602   6.067   5.243  16.378  2.5077 -0.4691 -0.4879
 2063TIP3   OH227603   1.797   2.489   0.572  0.0264 -0.2016  0.1980
 2063TIP3    H127604   1.784   2.582   0.554  1.6388 -0.0979 -0.6022
 2063TIP3    H227605   1.891   2.481   0.589  0.3559 -2.0236 -2.0578
 2064TIP3   OH227606   3.431   4.998   0.463  0.1023 -0.1139 -0.1512
 2064TIP3    H127607   3.347   5.043   0.453 -0.7067 -1.5302  0.0212
 2064TIP3    H227608   3.464   4.992   0.373  1.2950  2.6699 -0.0076
 2065TIP3   OH227609   3.309   6.507   4.985  0.2152 -0.0354  0.1209
 2065TIP3    H127610   3.308   6.512   5.080 -0.2149  1.5162  0.0573
 2065TIP3    H227611   3.240   6.567   4.957  0.7433  0.0044 -1.1826
 2066TIP3   OH227612   2.777   4.137  16.993  0.6522  0.5786 -0.5260
 2066TIP3    H127613   2.763   4.231  16.979 -1.7319  0.0952 -2.0500
 2066TIP3    H227614   2.817   4.131  17.079 -0.3855  2.9333  0.2063
 2067TIP3   OH227615   2.688   0.628  13.769 -0.1304 -0.2782 -0.4000
 2067TIP3    H127616   2.698   0.717  13.736 -1.5361 -0.1617 -0.5751
 2067TIP3    H227617   2.594   0.617  13.780  0.0583 -1.5661  0.1334
 2068TIP3   OH227618   4.596   0.917  14.942 -0.0007  0.1604 -0.1129
 2068TIP3    H127619   4.525   0.937  14.881  0.1026  0.1715 -0.2312
 2068TIP3    H227620   4.555   0.918  15.028  0.3956  2.9555  0.1375
 2069TIP3   OH227621   3.501   3.286   4.305  0.1489  0.0644  0.0840
 2069TIP3    H127622   3.467   3.210   4.351  0.1121  0.1485  0.1957
 2069TIP3    H227623   3.476   3.271   4.213  0.2118 -0.0958  0.0930
 2070TIP3   OH227624   0.124   3.248  13.281 -0.2732 -0.6160  0.1718
 2070TIP3    H127625   0.162   3.291  13.358 -0.1565  1.0836 -0.7953
 2070TIP3    H227626   0.055   3.307  13.252 -1.2001 -1.8848 -0.2739
 2071TIP3   OH227627   0.795   5.627  14.830 -0.4169  0.4962 -0.2719
 2071TIP3    H127628   0.813   5.713  14.791  1.5911 -0.0121 -0.5664
 2071TIP3    H227629   0.836   5.565  14.771 -1.4354 -0.6558  0.1938
 2072TIP3   OH227630   3.085   5.735   0.460 -0.6742  0.2004 -0.2898
 2072TIP3    H127631   3.041   5.779   0.387  0.1704  0.9034 -0.3921
 2072TIP3    H227632   3.125   5.807   0.509 -0.8366 -0.3098  0.5987
 2073TIP3   OH227633   3.426   4.030   1.958  0.0805  0.2666 -0.1970
 2073TIP3    H127634   3.507   3.984   1.935 -0.1225  0.2846 -0.9726
 2073TIP3    H227635   3.356   3.969   1.936 -0.1021 -0.1825  1.4925
 2074TIP3   OH227636   1.696   6.718   3.488 -0.2689  0.5607  0.1022
 2074TIP3    H127637   1.785   6.752   3.481 -0.8132  2.1932  0.7285
 2074TIP3    H227638   1.658   6.766   3.561 -0.8956 -1.8933  1.5230
 2075TIP3   OH227639   6.685   1.981   2.197  0.1760 -0.1090 -0.3986
 2075TIP3    H127640   6.720   2.037   2.266 -0.3054 -0.0098 -0.2305
 2075TIP3    H227641   6.708   1.892   2.225 -1.0736 -0.1647  0.5246
 2076TIP3   OH227642   1.988   6.644  15.268 -0.5137  0.0729  0.0422
 2076TIP3    H127643   1.981   6.694  15.187 -0.8409  0.0512  0.0563
 2076TIP3    H227644   2.075   6.604  15.264 -0.3895  0.3581 -0.1298
 2077TIP3   OH227645   1.624   4.232   6.003  0.1226  0.7284 -0.3273
 2077TIP3    H127646   1.714   4.245   6.033 -0.0756 -0.6016  1.0274
 2077TIP3    H227647   1.583   4.184   6.075 -1.6347  1.2075 -0.9824
 2078TIP3   OH227648   5.568   6.249  12.829 -0.3486  0.4789  0.8032
 2078TIP3    H127649   5.532   6.318  12.884  1.1896  1.9390  0.0880
 2078TIP3    H227650   5.600   6.294  12.751  0.2996 -1.1024  0.0980
 2079TIP3   OH227651   1.100   0.539   2.588 -0.7942  0.2246  0.3346
 2079TIP3    H127652   1.161   0.600   2.547  0.6358  0.2088  2.2817
 2079TIP3    H227653   1.100   0.462   2.530  1.8277 -0.1570  0.7250
 2080TIP3   OH227654   1.205   3.455  15.847  0.4329  0.0310 -0.0266
 2080TIP3    H127655   1.150   3.381  15.870  1.1892 -0.5126  0.0647
 2080TIP3    H227656   1.224   3.498  15.930 -2.4785  2.1721 -0.3100
 2081TIP3   OH227657   6.024   4.039  12.976 -0.1463 -0.5691  0.3577
 2081TIP3    H127658   6.022   4.052  13.071 -0.9771 -1.5057  0.4868
 2081TIP3    H227659   6.014   4.127  12.940 -0.7253 -0.2938  1.1473
 2082TIP3   OH227660   4.435   2.604  10.413 -0.0423 -0.1936  0.1245
 2082TIP3    H127661   4.485   2.678  10.449  0.6177  0.3501 -1.7874
 2082TIP3    H227662   4.500   2.535  10.400 -0.1551 -0.1875 -0.5078
 2083TIP3   OH227663   6.086   2.041  15.646 -0.4895 -0.3490  0.2092
 2083TIP3    H127664   6.028   2.021  15.572 -0.4350  0.4605 -0.0597
 2083TIP3    H227665   6.094   2.136  15.645  0.1161 -0.3901  0.8051
 2084TIP3   OH227666   1.928   1.319   4.350 -0.3402  0.1076 -0.3560
 2084TIP3    H127667   1.889   1.325   4.438  0.1459 -0.4360 -0.0992
 2084TIP3    H227668   1.880   1.248   4.308  1.4783 -1.7831  0.5687
 2085TIP3   OH227669   4.152   3.422  14.126  0.3093  0.2807 -0.1922
 2085TIP3    H127670   4.196   3.506  14.143 -0.0259  0.8267 -1.9068
 2085TIP3    H227671   4.079   3.444  14.070 -0.5354 -1.0222  0.3558
 2086TIP3   OH227672   2.452   2.209   5.884  0.0954 -0.5146  0.6088
 2086TIP3    H127673   2.494   2.294   5.899  0.7327 -1.0491  1.9367
 2086TIP3    H227674   2.516   2.160   5.833 -0.3382 -0.1624 -0.2966
 2087TIP3   OH227675   1.947   0.413  12.215 -0.7916  0.4265  0.2060
 2087TIP3    H127676   2.030   0.418  12.263 -0.9127  0.8355  0.3825
 2087TIP3    H227677   1.955   0.481  12.148 -1.3181  1.0583  0.7667
 2088TIP3   OH227678   3.860   3.185   6.861  0.0984 -0.2668  0.0210
 2088TIP3    H127679   3.897   3.268   6.833  1.1563 -0.6721  0.1584
 2088TIP3    H227680   3.777   3.208   6.903  0.7896  0.8121  0.8418
 2089TIP3   OH227681   1.299   4.724  16.818  0.2564 -0.0135  0.2101
 2089TIP3    H127682   1.290   4.711  16.723  0.2174  0.0564  0.2043
 2089TIP3    H227683   1.389   4.754  16.830  0.0110  0.7785  0.1080
 2090TIP3   OH227684   4.936   5.717   5.904  0.1184  0.7308 -0.2190
 2090TIP3    H127685   4.878   5.643   5.886 -1.0252  0.6827  2.9921
 2090TIP3    H227686   5.024   5.681   5.897 -0.3562 -0.3683 -0.7739
 2091TIP3   OH227687   2.764   2.077  14.673  0.0152 -0.6309 -0.7223
 2091TIP3    H127688   2.821   2.001  14.684  0.6000 -0.1083 -0.0309
 2091TIP3    H227689   2.817   2.151  14.704 -1.4125 -0.2692  1.0484
 2092TIP3   OH227690   0.639   0.720  13.638 -0.2109 -0.1856 -0.3448
 2092TIP3    H127691   0.700   0.744  13.568  0.4039 -0.4202  0.1043
 2092TIP3    H227692   0.657   0.628  13.655 -1.0033 -0.3834 -0.5064
 2093TIP3   OH227693   3.803   4.486   4.722  0.4834 -0.5522  0.3028
 2093TIP3    H127694   3.898   4.473   4.719  0.5569  0.0840 -0.3755
 2093TIP3    H227695   3.785   4.551   4.654 -0.1347  1.2191  2.0506
 2094TIP3   OH227696   4.218   4.550   5.370 -0.0945 -0.2916 -0.2804
 2094TIP3    H127697   4.171   4.598   5.301 -0.4786 -0.1244  0.0980
 2094TIP3    H227698   4.155   4.542   5.441  0.5251  0.1346  0.3231
 2095TIP3   OH227699   6.647   5.831  15.889  0.0418  0.4255 -0.3127
 2095TIP3    H127700   6.720   5.769  15.894  0.3186  0.8124  0.6952
 2095TIP3    H227701   6.611   5.818  15.801 -0.9851 -2.3493  0.4031
 2096TIP3   OH227702   5.289   6.166   2.227 -0.1405 -0.2688 -0.3379
 2096TIP3    H127703   5.206   6.132   2.259 -0.0050 -0.1059  0.2125
 2096TIP3    H227704   5.314   6.232   2.292  1.1270 -1.3353  0.3293
 2097TIP3   OH227705   4.966   3.302   6.160  0.0801  0.0724  0.5082
 2097TIP3    H127706   5.008   3.221   6.188  0.6838  0.5043  0.8740
 2097TIP3    H227707   5.035   3.352   6.117 -0.2248  0.4931  0.4964
 2098TIP3   OH227708   0.668   2.800   3.842  0.2939 -0.0537 -0.5096
 2098TIP3    H127709   0.743   2.749   3.870  0.8837  0.6392 -0.8090
 2098TIP3    H227710   0.654   2.864   3.911 -0.0325 -0.1930 -0.4449
 2099TIP3   OH227711   4.044   6.689   0.938  0.4259  0.6517 -0.0277
 2099TIP3    H127712   4.075   6.758   0.996 -1.6209  1.0715  0.6793
 2099TIP3    H227713   4.093   6.611   0.963  0.3778  1.0854  1.5269
 2100TIP3   OH227714   2.896   6.156  16.529 -0.2670 -0.5999  0.4673
 2100TIP3    H127715   2.850   6.073  16.545  0.4471 -0.9244  0.8859
 2100TIP3    H227716   2.954   6.166  16.604 -2.3122  1.7121  1.8790
 2101TIP3   OH227717   5.305   5.259   4.177 -0.5682  0.2347  0.1742
 2101TIP3    H127718   5.255   5.212   4.242 -0.3640 -1.1425 -0.6318
 2101TIP3    H227719   5.250   5.335   4.155 -1.1501  0.0947  1.0891
 2102TIP3   OH227720   2.048   1.768   4.105 -0.2005  0.0751  0.3223
 2102TIP3    H127721   2.002   1.693   4.143 -0.4446 -0.1032 -0.3037
 2102TIP3    H227722   2.141   1.746   4.113 -0.2530 -0.0439  0.6370
 2103TIP3   OH227723   2.710   5.648   4.535  0.2160 -0.1714 -0.0861
 2103TIP3    H127724   2.713   5.554   4.515  0.1451 -0.2682  0.3405
 2103TIP3    H227725   2.622   5.662   4.569  0.8944 -0.4012  1.9271
 2104TIP3   OH227726   0.181   6.428  15.668 -0.3132 -0.3934 -0.0737
 2104TIP3    H127727   0.115   6.394  15.728 -0.0794 -3.0657 -1.1993
 2104TIP3    H227728   0.186   6.363  15.598  1.7406  0.9757 -1.3170
 2105TIP3   OH227729   1.616   2.660   5.454  0.6437 -0.9249  0.0545
 2105TIP3    H127730   1.650   2.601   5.520 -0.2718  0.1070  1.5161
 2105TIP3    H227731   1.525   2.633   5.442  0.2803  0.0086  0.5775
 2106TIP3   OH227732   6.355   1.437  14.482 -0.5654 -0.8383 -0.3884
 2106TIP3    H127733   6.434   1.465  14.528  0.5227 -1.5671 -1.7627
 2106TIP3    H227734   6.386   1.388  14.407 -2.2745  0.2359 -1.8975
 2107TIP3   OH227735   1.208   3.513  11.845 -0.4664 -0.1112  0.1580
 2107TIP3    H127736   1.170   3.473  11.767  1.0575 -0.3968 -0.4900
 2107TIP3    H227737   1.242   3.439  11.895 -0.8679  0.1214  0.7788
 2108TIP3   OH227738   3.949   3.377  14.481 -0.2914  0.1582 -0.1026
 2108TIP3    H127739   4.027   3.426  14.506 -0.3141  0.7351 -1.1186
 2108TIP3    H227740   3.976   3.325  14.405  0.0494 -2.3003  1.5637
 2109TIP3   OH227741   2.287   4.791   4.717  0.0313 -0.1304  0.1119
 2109TIP3    H127742   2.201   4.754   4.698  0.1488 -1.1810  1.4636
 2109TIP3    H227743   2.349   4.725   4.686  0.3484  0.4294 -0.4662
 2110TIP3   OH227744   4.743   6.340   0.222  0.7411 -0.3231 -0.0289
 2110TIP3    H127745   4.801   6.375   0.155 -1.2873  0.7820 -1.3334
 2110TIP3    H227746   4.693   6.271   0.178 -1.7953  1.5255 -0.2935
 2111TIP3   OH227747   4.784   1.283  16.346 -0.0260  0.1736  0.5285
 2111TIP3    H127748   4.837   1.342  16.400  0.4104 -0.3930  0.7347
 2111TIP3    H227749   4.828   1.198  16.354 -0.2483 -0.0283 -0.3069
 2112TIP3   OH227750   3.553   6.590   0.867 -0.3334 -0.1620  0.1477
 2112TIP3    H127751   3.641   6.627   0.883  0.7550 -2.8219  0.8437
 2112TIP3    H227752   3.537   6.606   0.774  1.3851 -0.5400 -0.2587
 2113TIP3   OH227753   5.778   4.851  11.722 -0.1187 -0.3341  0.6810
 2113TIP3    H127754   5.698   4.883  11.679 -0.0056 -0.4919  0.3550
 2113TIP3    H227755   5.819   4.930  11.757  0.8625  0.0700 -1.2816
 2114TIP3   OH227756   0.894   6.715   2.528  0.2551 -0.4210  0.3331
 2114TIP3    H127757   0.846   6.794   2.554  2.8131  0.3726  3.3087
 2114TIP3    H227758   0.826   6.651   2.508 -1.9954  2.5594 -2.9359
 2115TIP3   OH227759   6.169   0.472  13.732 -0.5900  0.5768 -0.2819
 2115TIP3    H127760   6.111   0.463  13.656  0.3370  0.7872 -1.0375
 2115TIP3    H227761   6.113   0.456  13.808 -1.6107  0.6930 -0.9974
 2116TIP3   OH227762   3.251   5.539   1.592  0.5746  0.0889  0.1808
 2116TIP3    H127763   3.329   5.528   1.646  0.1469  0.9917  1.0105
 2116TIP3    H227764   3.278   5.507   1.506  1.8123  0.2299  0.4873
 2117TIP3   OH227765   6.757   3.847  11.671  0.3510  0.3061 -0.0288
 2117TIP3    H127766   6.752   3.842  11.575 -0.5568  0.3526  0.0054
 2117TIP3    H227767   6.750   3.756  11.700  0.1859  0.3277  0.0029
 2118TIP3   OH227768   6.413   0.142   4.547  0.0369 -0.2513 -0.4055
 2118TIP3    H127769   6.426   0.235   4.533  1.2601 -0.4354 -0.6154
 2118TIP3    H227770   6.432   0.128   4.640  1.2240 -0.4793 -0.6573
 2119TIP3   OH227771   5.017   6.230   2.338  0.0070  0.7353  0.4972
 2119TIP3    H127772   5.006   6.299   2.272 -2.8813 -0.0530 -0.0161
 2119TIP3    H227773   5.009   6.276   2.421  2.1176  1.5141  0.3333
 2120TIP3   OH227774   3.648   6.334   0.680  0.0952  0.1029 -0.6041
 2120TIP3    H127775   3.678   6.400   0.742  2.1984 -0.9547 -0.4244
 2120TIP3    H227776   3.685   6.361   0.596  0.3772 -0.4693 -0.6664
 2121TIP3   OH227777   0.269   3.226   6.474 -0.1672 -0.1263  0.0722
 2121TIP3    H127778   0.358   3.245   6.442  0.4769 -0.2414  1.7175
 2121TIP3    H227779   0.243   3.306   6.520 -0.6072 -0.3846  0.2752
 2122TIP3   OH227780   3.355   6.394   2.115  0.2954 -0.0422 -0.5768
 2122TIP3    H127781   3.312   6.342   2.182  1.1965  0.4880  0.4368
 2122TIP3    H227782   3.439   6.420   2.154  0.4073  1.1029 -1.5239
 2123TIP3   OH227783   3.827   2.455  11.318 -0.3011  0.3170  0.5119
 2123TIP3    H127784   3.788   2.405  11.390  0.5326  0.1945  0.8826
 2123TIP3    H227785   3.916   2.474  11.347 -0.1168  0.6942 -0.2798
 2124TIP3   OH227786   5.295   1.242  15.502 -0.1241 -0.3501  0.6548
 2124TIP3    H127787   5.331   1.292  15.575 -0.3807  0.6331  0.1259
 2124TIP3    H227788   5.218   1.292  15.474  1.8938  1.3382 -2.5392
 2125TIP3   OH227789   2.890   2.422   5.999 -0.0545 -0.4461  0.0094
 2125TIP3    H127790   2.863   2.480   6.070  0.6933 -1.5195  1.2205
 2125TIP3    H227791   2.965   2.374   6.034  1.1375 -0.1269 -1.9727
 2126TIP3   OH227792   5.238   3.869   6.190 -0.5514 -0.0405  0.3545
 2126TIP3    H127793   5.192   3.939   6.235 -0.8766 -0.2639  0.3748
 2126TIP3    H227794   5.304   3.913   6.136 -1.1514  0.3198 -0.0964
 2127TIP3   OH227795   0.567   2.194   1.025  0.0364  0.6623 -0.6219
 2127TIP3    H127796   0.581   2.180   1.119  0.4843  0.3167 -0.7356
 2127TIP3    H227797   0.574   2.107   0.987 -1.0460  0.6750 -0.8732
 2128TIP3   OH227798   6.215   2.816   5.287  0.3229  0.5034  0.1528
 2128TIP3    H127799   6.227   2.829   5.382 -2.0752  1.4951  0.4024
 2128TIP3    H227800   6.217   2.904   5.251  0.1944  0.2154 -0.5674
 2129TIP3   OH227801   5.017   4.842  11.850  0.2170  0.2472 -0.5411
 2129TIP3    H127802   5.070   4.868  11.775 -1.1914 -0.3042 -1.7635
 2129TIP3    H227803   4.940   4.898  11.845  0.6862  1.1483  1.3081
 2130TIP3   OH227804   4.219   1.549  13.232 -0.7172 -0.4778  0.5129
 2130TIP3    H127805   4.259   1.555  13.319 -0.2119 -1.6615  0.3709
 2130TIP3    H227806   4.282   1.590  13.173 -0.8962 -0.0037  0.6477
 2131TIP3   OH227807   3.499   6.312   4.509  0.0468  0.3282  0.0537
 2131TIP3    H127808   3.461   6.385   4.557 -1.2296  0.1212 -0.5897
 2131TIP3    H227809   3.568   6.278   4.566 -0.2913  1.1509  0.9665
 2132TIP3   OH227810   0.859   6.597  12.629 -0.1594  0.7326 -0.5123
 2132TIP3    H127811   0.769   6.564  12.631 -0.4018  1.3135 -1.4076
 2132TIP3    H227812   0.861   6.666  12.696 -0.1851  0.2557 -0.0149
 2133TIP3   OH227813   1.083   0.203   3.887 -0.8372 -0.3407  0.2834
 2133TIP3    H127814   1.091   0.107   3.893  2.7208 -0.1940  0.2010
 2133TIP3    H227815   1.107   0.223   3.796 -0.3146  0.6779  0.6339
 2134TIP3   OH227816   2.246   4.004   2.479  0.1703  0.5748 -0.1227
 2134TIP3    H127817   2.247   4.025   2.386 -1.9342 -0.3907 -0.4194
 2134TIP3    H227818   2.293   3.921   2.486 -1.4384 -0.4068 -0.6606
 2135TIP3   OH227819   5.183   0.765  13.481 -0.6279 -0.8525 -0.0992
 2135TIP3    H127820   5.225   0.795  13.562  0.7228 -0.9369 -0.7315
 2135TIP3    H227821   5.138   0.842  13.447  0.0129 -0.4181  0.0065
 2136TIP3   OH227822   1.980   0.996  11.855 -0.0100 -0.4079 -0.5477
 2136TIP3    H127823   2.028   1.051  11.794  0.5120  2.8633  2.4771
 2136TIP3    H227824   1.893   0.987  11.816  0.6198  0.5271 -2.2849
 2137TIP3   OH227825   5.477   2.915   5.560 -0.0007 -0.3148 -0.3282
 2137TIP3    H127826   5.435   2.967   5.492  0.2600 -0.0716 -0.3060
 2137TIP3    H227827   5.406   2.866   5.602 -0.2299 -0.0615 -0.4246
 2138TIP3   OH227828   1.526   0.724   4.375 -0.2249  0.2907 -0.2875
 2138TIP3    H127829   1.501   0.675   4.296 -0.3346  0.1285 -0.1513
 2138TIP3    H227830   1.484   0.809   4.364 -0.7641  0.0532 -0.1043
 2139TIP3   OH227831   0.192   0.128  14.324  0.0939  0.2010 -0.6472
 2139TIP3    H127832   0.167   0.206  14.274 -1.9914 -0.7668 -1.2093
 2139TIP3    H227833   0.224   0.067  14.258  0.7807  0.1914 -0.3187
 2140TIP3   OH227834   4.244   1.970   3.758  0.0806  0.1954  0.1003
 2140TIP3    H127835   4.198   2.020   3.691 -2.2840 -2.3235 -0.3298
 2140TIP3    H227836   4.247   1.881   3.724 -1.2252 -1.2026  3.2544
 2141TIP3   OH227837   4.740   4.817   5.800 -0.4161 -0.1938 -0.5237
 2141TIP3    H127838   4.729   4.783   5.710 -2.1207 -1.1224 -0.0158
 2141TIP3    H227839   4.825   4.783   5.828 -0.2241 -0.5655 -1.5121
 2142TIP3   OH227840   5.620   4.091  13.140 -0.8660  0.1016  0.1088
 2142TIP3    H127841   5.658   4.017  13.093 -0.5199 -0.3564  1.0749
 2142TIP3    H227842   5.560   4.131  13.077  0.0142 -0.1335 -0.9018
 2143TIP3   OH227843   2.896   4.210   2.749 -0.1187 -0.5760 -0.1498
 2143TIP3    H127844   2.838   4.134   2.741 -1.5599  0.2994  1.1912
 2143TIP3    H227845   2.850   4.279   2.702  1.7163 -0.7245 -2.3289
 2144TIP3   OH227846   6.750   2.439  15.714 -0.0353  0.3550  0.1691
 2144TIP3    H127847   6.845   2.433  15.708 -0.0457  1.3821 -1.7342
 2144TIP3    H227848   6.734   2.523  15.756 -0.0765  1.1645 -1.3949
 2145TIP3   OH227849   2.388   5.112  16.124  0.2051 -0.5128 -0.0619
 2145TIP3    H127850   2.391   5.117  16.028  0.9670 -0.7857 -0.0607
 2145TIP3    H227851   2.466   5.158  16.153 -1.2003  1.6005  0.5427
 2146TIP3   OH227852   0.582   3.694   3.054  0.0493  0.4926 -0.3891
 2146TIP3    H127853   0.515   3.761   3.045  1.7013  2.7208  2.2260
 2146TIP3    H227854   0.664   3.743   3.056  1.2708 -1.3640  2.8604
 2147TIP3   OH227855   0.473   1.306   4.392  0.0107  0.5249  0.5658
 2147TIP3    H127856   0.481   1.401   4.397 -0.4421  0.5178  1.9030
 2147TIP3    H227857   0.548   1.273   4.442  0.0778  0.1771  0.2440
 2148TIP3   OH227858   3.769   6.310   5.520 -0.1730  0.0434 -0.0846
 2148TIP3    H127859   3.717   6.254   5.462 -0.5650  1.2968 -0.9856
 2148TIP3    H227860   3.715   6.319   5.599 -0.9014  0.5733 -0.6354
 2149TIP3   OH227861   1.512   0.991  12.468 -0.2974 -0.5953  0.1591
 2149TIP3    H127862   1.552   1.037  12.395  4.1156 -1.7677  1.5082
 2149TIP3    H227863   1.447   1.051  12.502  0.8483  1.9794 -1.8678
 2150TIP3   OH227864   0.993   3.978  15.872  0.2298 -1.3562 -0.5742
 2150TIP3    H127865   1.001   4.069  15.844  0.2238 -1.1717 -0.0034
 2150TIP3    H227866   0.909   3.949  15.837 -0.8767 -0.4201  1.1194
 2151TIP3   OH227867   4.118   1.832   5.279  0.2933 -0.8867  0.0965
 2151TIP3    H127868   4.118   1.737   5.290  0.6831 -0.9155 -0.1575
 2151TIP3    H227869   4.083   1.846   5.191 -0.0661 -0.7791  0.2540
 2152TIP3   OH227870   1.710   4.321  16.310  0.4516  0.2156  0.2317
 2152TIP3    H127871   1.691   4.357  16.223  0.1423  0.5453  0.4313
 2152TIP3    H227872   1.770   4.248  16.294 -0.3045 -0.2899 -0.3391
 2153TIP3   OH227873   0.590   1.607  14.649 -0.4176  0.3740  0.3088
 2153TIP3    H127874   0.538   1.665  14.593 -0.9374  0.0395  0.4374
 2153TIP3    H227875   0.526   1.566  14.707 -0.5391 -2.5549 -1.6562
 2154TIP3   OH227876   1.127   0.546   5.141 -0.3521  0.0343  0.0191
 2154TIP3    H127877   1.166   0.471   5.186 -0.7159 -0.1036  0.1103
 2154TIP3    H227878   1.034   0.542   5.164 -0.3172  0.7095  0.2998
 2155TIP3   OH227879   3.571   0.085  16.168 -0.3621 -1.0357 -0.5505
 2155TIP3    H127880   3.487   0.124  16.192  0.0524  0.4691 -1.4115
 2155TIP3    H227881   3.567  -0.004  16.204 -1.4590 -0.3175  1.2598
 2156TIP3   OH227882   4.157   4.983  16.182 -0.1260  1.0968 -0.0791
 2156TIP3    H127883   4.243   4.957  16.151 -1.4653 -0.9870 -2.3778
 2156TIP3    H227884   4.161   4.970  16.277  1.3289 -1.6537 -0.4030
 2157TIP3   OH227885   0.955   6.190  16.617 -0.0372  0.6088 -0.4274
 2157TIP3    H127886   0.924   6.281  16.614 -0.8463  0.3298 -0.9211
 2157TIP3    H227887   0.880   6.138  16.586 -0.0560 -0.3583  1.1504
 2158TIP3   OH227888   6.338   4.680  12.214  0.1729 -0.0755 -0.0018
 2158TIP3    H127889   6.284   4.755  12.240 -0.2999 -0.6817  0.7896
 2158TIP3    H227890   6.428   4.711  12.225 -0.0199  0.2812  0.5973
 2159TIP3   OH227891   0.984   1.314   3.886  0.6077 -1.1762  0.3895
 2159TIP3    H127892   0.992   1.384   3.821  0.0556 -1.2424  0.2468
 2159TIP3    H227893   0.990   1.359   3.971 -0.4761 -0.8572  0.3073
 2160TIP3   OH227894   6.222   3.262  14.247  0.4296  0.3037 -0.8123
 2160TIP3    H127895   6.182   3.328  14.189  1.2641  0.6821 -0.9680
 2160TIP3    H227896   6.290   3.221  14.194  0.3987 -0.1903 -0.4778
 2161TIP3   OH227897   1.594   0.352   1.102  0.1097  0.2216 -0.3745
 2161TIP3    H127898   1.550   0.267   1.090  0.9303 -0.2617 -0.0821
 2161TIP3    H227899   1.526   0.417   1.086 -0.9002 -0.5081  0.7794
 2162TIP3   OH227900   4.124   3.216   6.037  0.0024  0.2238  0.4074
 2162TIP3    H127901   4.131   3.309   6.014 -0.4028 -0.1772 -1.4883
 2162TIP3    H227902   4.159   3.170   5.961  0.3125 -1.1939  1.3727
 2163TIP3   OH227903   1.393   5.392   1.161 -0.5740 -0.3439  0.1278
 2163TIP3    H127904   1.482   5.377   1.193 -0.4772 -0.0208  0.0057
 2163TIP3    H227905   1.341   5.407   1.240 -0.1590  1.4189  0.0953
 2164TIP3   OH227906   1.337   3.029   0.834  1.4637 -0.1502 -0.0884
 2164TIP3    H127907   1.354   3.035   0.740  2.7566  0.3413  0.1478
 2164TIP3    H227908   1.314   2.938   0.850  0.0768  0.0162 -1.0484
 2165TIP3   OH227909   6.360   1.439  12.003 -0.3182  0.1851 -0.3098
 2165TIP3    H127910   6.437   1.497  11.997 -0.2351  0.1825  0.5716
 2165TIP3    H227911   6.297   1.477  11.942  0.1657  0.5290 -0.6081
 2166TIP3   OH227912   3.721   2.699   3.052 -0.0834  0.2757 -0.5775
 2166TIP3    H127913   3.666   2.625   3.027 -0.3219 -0.0230  0.7456
 2166TIP3    H227914   3.810   2.672   3.027 -0.4361  0.4950 -2.1375
 2167TIP3   OH227915   2.566   3.392   5.687  0.8372 -0.3119 -0.4104
 2167TIP3    H127916   2.595   3.416   5.599  0.9949 -0.6218 -0.4457
 2167TIP3    H227917   2.570   3.296   5.688 -0.1690 -0.3611 -0.4041
 2168TIP3   OH227918   1.488   1.500  11.938 -0.0497  0.2481 -0.5394
 2168TIP3    H127919   1.408   1.495  11.990  0.2991  0.4881  0.0324
 2168TIP3    H227920   1.505   1.410  11.910 -0.3319  0.1421 -0.3709
 2169TIP3   OH227921   3.919   0.748   2.569  0.2339  0.0586  0.4742
 2169TIP3    H127922   3.967   0.791   2.498 -0.1661  1.1459  0.8321
 2169TIP3    H227923   3.911   0.816   2.636 -0.1624 -0.6835  1.1888
 2170TIP3   OH227924   1.984   4.132  14.151  0.9836  0.5352  0.0527
 2170TIP3    H127925   2.077   4.112  14.135  0.6890  0.7361 -2.1434
 2170TIP3    H227926   1.983   4.225  14.174  1.6569 -0.2369  3.9851
 2171TIP3   OH227927   5.427   6.094   4.016 -0.3073 -0.4183 -0.1107
 2171TIP3    H127928   5.445   6.158   4.084 -0.7393 -0.9051  0.4709
 2171TIP3    H227929   5.350   6.047   4.047  1.6648 -3.2705  1.0044
 2172TIP3   OH227930   5.160   3.421   0.127  0.1096  0.8003 -0.0178
 2172TIP3    H127931   5.125   3.509   0.119  2.5581  1.6707 -3.0750
 2172TIP3    H227932   5.175   3.392   0.037  2.7308 -1.2460  0.9317
 2173TIP3   OH227933   2.056   2.555  17.254 -0.0364 -0.6346  0.8967
 2173TIP3    H127934   2.095   2.615  17.317  1.0588 -0.7546  0.3486
 2173TIP3    H227935   1.968   2.538  17.289 -0.9106  2.3196  0.3801
 2174TIP3   OH227936   4.743   5.558  14.070 -0.0382  0.0233  0.0887
 2174TIP3    H127937   4.757   5.465  14.051  0.2495 -0.2544  1.5266
 2174TIP3    H227938   4.785   5.604  13.997  0.6544 -0.9570 -0.1582
 2175TIP3   OH227939   1.039   5.185   1.857  0.6043 -1.1153  0.3211
 2175TIP3    H127940   1.000   5.143   1.781  1.7174 -0.4480 -0.6475
 2175TIP3    H227941   1.092   5.115   1.897 -1.3054 -1.9512  1.5065
 2176TIP3   OH227942   4.113   0.559  15.323  0.6951 -0.1714 -0.3787
 2176TIP3    H127943   4.089   0.648  15.348  1.8148  0.0354  0.0077
 2176TIP3    H227944   4.208   0.555  15.333  0.4260 -2.6295  3.8109
 2177TIP3   OH227945   0.672   2.732  16.916  0.3036  0.2420  0.5478
 2177TIP3    H127946   0.698   2.665  16.980  0.4976 -0.9517 -0.7353
 2177TIP3    H227947   0.682   2.815  16.963 -0.2802 -0.6375  2.2916
 2178TIP3   OH227948   2.969   3.753  16.781  0.8314  0.1664  0.6257
 2178TIP3    H127949   2.950   3.660  16.798 -2.5594  0.7390  0.5428
 2178TIP3    H227950   2.979   3.791  16.868 -2.9127  0.5599  1.0263
 2179TIP3   OH227951   5.648   4.058   1.773 -0.3598  1.1469 -0.0208
 2179TIP3    H127952   5.659   4.067   1.867  3.0026  1.0454 -0.2847
 2179TIP3    H227953   5.633   3.965   1.759 -1.0832  1.1917  0.3976
 2180TIP3   OH227954   2.899   4.153   3.183 -0.1171 -0.1340 -0.4284
 2180TIP3    H127955   2.902   4.219   3.114 -1.0084  1.2268  0.7647
 2180TIP3    H227956   2.967   4.090   3.160  2.3697  2.3760 -0.4771
 2181TIP3   OH227957   2.055   2.842  15.341 -0.0870 -0.4056 -0.3782
 2181TIP3    H127958   1.983   2.836  15.278 -2.6376  2.6148  1.9140
 2181TIP3    H227959   2.016   2.817  15.425  1.7178  0.5980  0.8268
 2182TIP3   OH227960   5.556   6.202  17.221  0.0414  0.2168 -0.1185
 2182TIP3    H127961   5.510   6.118  17.217 -1.2607  0.9165 -0.2059
 2182TIP3    H227962   5.526   6.250  17.144  2.4360 -0.0209 -1.2929
 2183TIP3   OH227963   0.039   6.550  16.787 -0.0047 -0.2367 -0.7332
 2183TIP3    H127964  -0.024   6.589  16.847  2.1986  1.6459  0.5301
 2183TIP3    H227965   0.040   6.610  16.712  0.3184 -0.2109 -0.7081
 2184TIP3   OH227966   4.631   0.706   1.775  0.3498 -0.9429 -0.3481
 2184TIP3    H127967   4.637   0.688   1.869  0.1313 -0.0892 -0.1578
 2184TIP3    H227968   4.538   0.726   1.761  0.6085  0.2688 -0.4736
 2185TIP3   OH227969   6.339   6.260   6.244  0.8132  0.4675  0.0342
 2185TIP3    H127970   6.252   6.220   6.251  1.2626 -0.6517 -0.6127
 2185TIP3    H227971   6.400   6.189   6.268  1.6772  0.4661 -2.0132
 2186TIP3   OH227972   4.197   2.773  16.585  0.1504  0.4712  0.5898
 2186TIP3    H127973   4.250   2.832  16.532  1.0537 -2.1953 -1.7507
 2186TIP3    H227974   4.108   2.806  16.576  0.7048  1.8984  0.0327
 2187TIP3   OH227975   1.206   0.242  16.777  0.7431 -0.1172 -0.0702
 2187TIP3    H127976   1.252   0.188  16.712 -0.4872  0.1939 -1.2362
 2187TIP3    H227977   1.241   0.330  16.764  0.7100 -0.1094 -0.1060
 2188TIP3   OH227978   0.023   5.115  13.679 -0.2955  0.4439  0.3713
 2188TIP3    H127979  -0.034   5.144  13.607 -0.4450  1.7712  0.9958
 2188TIP3    H227980  -0.027   5.045  13.722 -0.0412 -0.6291 -1.0106
 2189TIP3   OH227981   0.405   3.327  12.132  0.0817  0.3997  0.2551
 2189TIP3    H127982   0.389   3.343  12.225 -1.5649 -2.1697  0.5058
 2189TIP3    H227983   0.323   3.349  12.089  1.5722  4.0704 -1.0927
 2190TIP3   OH227984   2.666   3.684   4.296 -0.3341 -0.4175  0.5555
 2190TIP3    H127985   2.672   3.710   4.388 -2.5919 -2.5657  1.4090
 2190TIP3    H227986   2.748   3.637   4.279  0.7545  1.2329  0.9696
 2191TIP3   OH227987   3.607   0.038   5.935 -0.2059  0.3033  0.0357
 2191TIP3    H127988   3.537   0.020   5.873 -0.1092  0.1489 -0.0303
 2191TIP3    H227989   3.582   0.119   5.978  0.6843  1.4879 -1.5797
 2192TIP3   OH227990   5.029   2.284   4.749 -0.1227 -0.7111 -0.1220
 2192TIP3    H127991   5.030   2.379   4.740  0.5179 -0.7749 -0.8400
 2192TIP3    H227992   5.011   2.269   4.842  1.6059  0.1577  0.4002
 2193TIP3   OH227993   1.804   5.283  12.237 -0.4583  0.4434  0.1638
 2193TIP3    H127994   1.718   5.243  12.221 -0.1198 -1.2124  2.0618
 2193TIP3    H227995   1.794   5.329  12.321 -0.0668  2.1731 -0.6823
 2194TIP3   OH227996   2.706   1.292   3.793 -0.3552  0.2487  0.0733
 2194TIP3    H127997   2.697   1.343   3.874 -1.5862 -0.7643  0.6213
 2194TIP3    H227998   2.655   1.340   3.728 -0.6794  0.2577  0.3297
 2195TIP3   OH227999   1.427   5.035   0.090 -0.4624 -0.2062 -0.5318
 2195TIP3    H128000   1.478   4.967   0.046 -2.4375 -1.1489 -1.5234
 2195TIP3    H228001   1.445   5.022   0.183  0.1384 -1.3137 -0.7897
 2196TIP3   OH228002   0.222   3.920  17.333  0.4243 -0.2223  0.2847
 2196TIP3    H128003   0.242   3.867  17.256 -1.7852 -0.6272 -0.0983
 2196TIP3    H228004   0.195   3.856  17.399  1.3604  0.1954  1.0850
 2197TIP3   OH228005   3.499   1.026  16.118 -0.2598 -0.3771  0.3422
 2197TIP3    H128006   3.430   0.999  16.179  0.9108 -0.4397  1.6591
 2197TIP3    H228007   3.531   1.109  16.152  1.3105 -1.0507  0.6140
 2198TIP3   OH228008   0.049   6.244  17.225  0.0466  0.2243 -0.3711
 2198TIP3    H128009  -0.027   6.189  17.204 -0.7042  1.3724 -0.7023
 2198TIP3    H228010   0.093   6.257  17.141 -0.3495  0.9726 -0.4631
 2199TIP3   OH228011   0.487   5.352   1.139  0.0577  0.3240 -0.3780
 2199TIP3    H128012   0.488   5.260   1.111 -0.0105  0.6083 -1.3316
 2199TIP3    H228013   0.539   5.352   1.219  2.6846 -0.0790 -1.9403
 2200TIP3   OH228014   1.521   1.614   1.783  0.0085  0.3047 -0.9101
 2200TIP3    H128015   1.505   1.581   1.695 -1.6832 -3.0643  0.4410
 2200TIP3    H228016   1.445   1.669   1.802 -0.6377 -0.5499 -0.9352
 2201TIP3   OH228017   2.595   6.107   1.888  0.0270 -0.3077 -0.2603
 2201TIP3    H128018   2.521   6.047   1.888 -0.1667 -0.0884 -1.3730
 2201TIP3    H228019   2.671   6.052   1.869  0.3579 -0.7312  2.0464
 2202TIP3   OH228020   2.764   5.417   2.515 -0.4310  0.0299  0.7340
 2202TIP3    H128021   2.853   5.414   2.480 -1.2449 -0.9070 -1.4207
 2202TIP3    H228022   2.708   5.414   2.438 -2.3708 -1.6233  2.1131
 2203TIP3   OH228023   4.396   4.223   1.353 -0.5244  0.1644 -0.2775
 2203TIP3    H128024   4.321   4.239   1.296 -0.3082 -1.1191 -0.9591
 2203TIP3    H228025   4.457   4.173   1.299  0.3275  0.1818  0.6337
 2204TIP3   OH228026   4.185   3.978   4.453  0.3923 -0.1708  0.0561
 2204TIP3    H128027   4.238   4.058   4.445  0.0054  0.0349 -0.5543
 2204TIP3    H228028   4.206   3.928   4.374 -0.2837 -0.1094 -0.1697
 2205TIP3   OH228029   2.187   2.957  11.947 -0.0588 -0.8420 -0.2050
 2205TIP3    H128030   2.208   2.981  11.856  1.3730 -1.9901 -0.2121
 2205TIP3    H228031   2.128   2.882  11.939  0.7964 -1.5311 -0.2157
 2206TIP3   OH228032   1.201   5.855   4.421 -0.0721 -0.3195 -0.1350
 2206TIP3    H128033   1.243   5.915   4.483  0.5344 -0.3840 -0.4764
 2206TIP3    H228034   1.170   5.783   4.476 -0.6268  0.2036  0.2493
 2207TIP3   OH228035   4.450   1.692   3.137 -0.4535 -0.1057 -0.4695
 2207TIP3    H128036   4.397   1.613   3.124 -0.9584  0.0921  0.3242
 2207TIP3    H228037   4.432   1.746   3.061 -0.9265 -0.3047 -0.5023
 2208TIP3   OH228038   4.283   5.565   1.796 -0.5015  0.2193 -0.5809
 2208TIP3    H128039   4.329   5.591   1.717  1.8243 -1.2517  0.1798
 2208TIP3    H228040   4.238   5.483   1.772 -0.4914  0.2182 -0.5958
 2209TIP3   OH228041   1.233   3.100  16.954  0.1680  0.3777  0.7577
 2209TIP3    H128042   1.232   3.069  16.863  1.2378 -2.5473  1.6191
 2209TIP3    H228043   1.288   3.177  16.953  0.0462  0.4835 -1.0902
 2210TIP3   OH228044   3.654   6.190   3.583 -0.0136  0.4593 -0.8391
 2210TIP3    H128045   3.744   6.223   3.590  0.5288 -1.0362 -0.3468
 2210TIP3    H228046   3.662   6.108   3.536 -1.2874  0.8411 -1.7785
 2211TIP3   OH228047   3.929   2.619   2.140 -0.1963 -0.1481  0.6585
 2211TIP3    H128048   3.984   2.544   2.121 -0.0939  0.4739 -1.7699
 2211TIP3    H228049   3.929   2.671   2.059 -3.2056  0.5831  0.9961
 2212TIP3   OH228050   2.091   4.005   4.097  0.2592  0.1545 -0.7692
 2212TIP3    H128051   2.083   3.913   4.121 -0.3801  0.5211  0.4889
 2212TIP3    H228052   2.010   4.046   4.127  1.6248  1.6360  1.1808
 2213TIP3   OH228053   3.193   0.084  15.886 -0.2356  0.4132  0.3242
 2213TIP3    H128054   3.281   0.047  15.877 -1.0607 -1.1655 -2.2035
 2213TIP3    H228055   3.189   0.152  15.819 -0.9899  0.3682  0.3154
 2214TIP3   OH228056   4.580   1.329  12.437  0.4719 -0.0898 -0.2152
 2214TIP3    H128057   4.635   1.259  12.471  1.7943 -0.5470 -2.9670
 2214TIP3    H228058   4.528   1.287  12.368 -0.2139  1.2267 -0.5249
 2215TIP3   OH228059   0.210   5.667  17.174  0.2548  0.4281 -0.1710
 2215TIP3    H128060   0.204   5.756  17.210 -2.0295  1.0705 -1.9350
 2215TIP3    H228061   0.157   5.613  17.232 -0.2656  0.6984 -0.3888
 2216TIP3   OH228062   5.732   2.088  11.107  0.3984 -0.1503  0.3403
 2216TIP3    H128063   5.815   2.092  11.153 -0.0257  0.8564  1.0628
 2216TIP3    H228064   5.755   2.079  11.015  1.3655  1.7507  0.3495
 2217TIP3   OH228065   1.610   3.651  12.989 -0.7088  0.2924  0.2312
 2217TIP3    H128066   1.610   3.644  13.085 -1.0364 -2.1668  0.1102
 2217TIP3    H228067   1.522   3.624  12.964 -0.4990  0.5406 -0.8021
 2218TIP3   OH228068   2.986   4.820  13.019  0.2139  0.6500 -0.2173
 2218TIP3    H128069   2.923   4.892  13.020  0.0187  0.5465 -1.9685
 2218TIP3    H228070   3.053   4.847  12.956  0.9155 -0.0649  0.2079
 2219TIP3   OH228071   3.312   5.860   2.401  0.1687  0.7493  0.6138
 2219TIP3    H128072   3.310   5.845   2.307 -2.0234  0.2747  0.6987
 2219TIP3    H228073   3.405   5.871   2.421  0.7087  0.5281 -1.5348
 2220TIP3   OH228074   0.314   5.981  11.057  0.4072  0.0564 -0.1825
 2220TIP3    H128075   0.403   6.007  11.081  0.3873  1.4382 -1.4395
 2220TIP3    H228076   0.325   5.930  10.977  0.1731 -1.1829  0.5516
 2221TIP3   OH228077   0.937   2.219  13.397  0.0203 -0.3363  0.4218
 2221TIP3    H128078   0.908   2.208  13.306 -1.4764  1.5973  0.6068
 2221TIP3    H228079   0.916   2.136  13.439  0.2513 -1.0743 -0.8488
 2222TIP3   OH228080   6.745   3.387   2.400 -0.1201 -0.2255 -0.5737
 2222TIP3    H128081   6.706   3.351   2.480  0.3481 -0.8939 -0.6333
 2222TIP3    H228082   6.747   3.313   2.339  1.2185 -0.2044 -0.5723
 2223TIP3   OH228083   5.953   0.091  12.154  0.6109 -0.3004 -0.0135
 2223TIP3    H128084   5.948   0.031  12.080  2.2159  0.2837 -0.6209
 2223TIP3    H228085   5.913   0.172  12.122 -0.3862 -0.6248  0.3854
 2224TIP3   OH228086   6.120   3.133   2.815 -0.9578  0.0860  0.3870
 2224TIP3    H128087   6.038   3.178   2.834 -1.3863 -0.0841 -0.9646
 2224TIP3    H228088   6.187   3.188   2.856 -1.7681 -0.0549  1.9517
 2225TIP3   OH228089   1.009   2.389  13.818  0.2884  0.1007 -0.4714
 2225TIP3    H128090   1.048   2.452  13.759  2.5377 -1.2643 -0.5563
 2225TIP3    H228091   0.945   2.342  13.764  0.1179  0.8892 -0.9660
 2226TIP3   OH228092   0.365   4.855   5.117  0.2570  0.0889  0.0266
 2226TIP3    H128093   0.365   4.772   5.164 -0.2931  0.2856  0.3817
 2226TIP3    H228094   0.392   4.920   5.182 -2.4933  0.6782  0.6967
 2227TIP3   OH228095   0.618   2.035  11.658  0.0022 -0.1818  0.0061
 2227TIP3    H128096   0.634   2.023  11.751 -0.3367 -1.5346 -0.0777
 2227TIP3    H228097   0.613   2.130  11.646  0.5018  0.0239  1.2746
 2228TIP3   OH228098   1.622   2.724   6.682 -0.3298 -0.4550 -0.3297
 2228TIP3    H128099   1.569   2.770   6.617  0.6414 -1.4155 -1.8558
 2228TIP3    H228100   1.704   2.774   6.685 -0.5781 -0.0771  0.6215
 2229TIP3   OH228101   0.689   3.228   4.265  0.4445  0.4571 -0.4952
 2229TIP3    H128102   0.601   3.266   4.263  0.9127  1.5326 -1.2985
 2229TIP3    H228103   0.674   3.134   4.278 -0.7054  1.0004  4.1416
 2230TIP3   OH228104   1.639   3.376   2.135  0.0656 -0.6764  0.1242
 2230TIP3    H128105   1.602   3.295   2.171 -0.4575 -0.2908  0.4653
 2230TIP3    H228106   1.576   3.444   2.158  0.4774 -0.1725 -0.2018
 2231TIP3   OH228107   2.390   4.586   5.534  0.3980 -0.2980 -0.1180
 2231TIP3    H128108   2.420   4.676   5.541  1.5091 -0.3914 -2.6456
 2231TIP3    H228109   2.447   4.536   5.593  2.0723  0.2088 -1.2593
 2232TIP3   OH228110   4.101   0.517   2.092 -0.0922 -0.3205  0.0036
 2232TIP3    H128111   4.059   0.479   2.169  1.1889 -0.0207  0.8659
 2232TIP3    H228112   4.059   0.473   2.018 -1.9516 -0.0036  0.8150
 2233TIP3   OH228113   3.536   1.091   4.139 -0.4382 -0.6506 -0.1076
 2233TIP3    H128114   3.481   1.053   4.071  0.6493 -0.0741 -1.3628
 2233TIP3    H228115   3.511   1.045   4.219 -1.9474 -1.1597 -0.8310
 2234TIP3   OH228116   0.158   2.113  15.381  0.5241 -0.7693  0.3626
 2234TIP3    H128117   0.065   2.101  15.363  0.6598 -0.9873 -0.2416
 2234TIP3    H228118   0.196   2.131  15.295  1.1129 -1.1665  0.5335
 2235TIP3   OH228119   5.922   2.369   2.825 -0.1309  0.1822  0.0081
 2235TIP3    H128120   5.848   2.414   2.785  1.3560  1.7460 -1.1059
 2235TIP3    H228121   5.953   2.430   2.892  0.5626 -0.1585  0.0003
 2236TIP3   OH228122   4.057   5.508  14.840  0.0544 -0.8792  0.6374
 2236TIP3    H128123   4.006   5.462  14.773  0.0974 -0.5658  0.3861
 2236TIP3    H228124   4.103   5.577  14.792 -1.0532  0.2894  1.1937
 2237TIP3   OH228125   5.842   0.032  13.858  0.4975 -0.2667 -0.0845
 2237TIP3    H128126   5.802  -0.055  13.857  0.4539 -0.3895  2.9054
 2237TIP3    H228127   5.887   0.038  13.774 -2.6624 -1.5700 -2.0897
 2238TIP3   OH228128   2.458   6.246   3.503 -0.7475  0.2661 -0.0725
 2238TIP3    H128129   2.422   6.186   3.437  0.2203 -0.7040  0.2404
 2238TIP3    H228130   2.469   6.191   3.580 -0.6404  1.0732  0.4936
 2239TIP3   OH228131   4.332   0.863  13.832  0.0530  0.0370 -0.0036
 2239TIP3    H128132   4.281   0.854  13.912  0.3019 -1.6792 -0.0117
 2239TIP3    H228133   4.309   0.787  13.779 -0.7217  1.5567 -1.9535
 2240TIP3   OH228134   1.880   3.227  14.293 -0.5388 -0.1661 -0.0476
 2240TIP3    H128135   1.949   3.240  14.359  1.4660  1.4752 -2.2962
 2240TIP3    H228136   1.835   3.312  14.289  0.9896  0.5984 -2.4412
 2241TIP3   OH228137   2.860   5.913  16.051 -1.0264 -0.1778  0.3593
 2241TIP3    H128138   2.822   5.825  16.050  2.1519 -1.6766 -0.2436
 2241TIP3    H228139   2.801   5.965  15.996 -4.6124 -1.0319  3.0444
 2242TIP3   OH228140   2.689   5.990   3.511 -0.5744  0.5344 -0.9699
 2242TIP3    H128141   2.703   5.998   3.606 -3.0252  0.5371 -0.5432
 2242TIP3    H228142   2.716   6.075   3.476 -0.0546  0.6902 -0.2233
 2243TIP3   OH228143   1.681   4.894   2.628 -0.1232 -0.4461  0.0221
 2243TIP3    H128144   1.762   4.915   2.581 -0.3056  0.4443  0.0855
 2243TIP3    H228145   1.710   4.865   2.714  0.0906  1.9329  0.8195
 2244TIP3   OH228146   2.089   1.337  15.274  0.4691 -0.0194 -0.0482
 2244TIP3    H128147   2.158   1.284  15.235 -0.6946 -0.7159 -1.2553
 2244TIP3    H228148   2.098   1.321  15.368  1.9709 -0.0257 -0.1661
 2245TIP3   OH228149   1.190   5.137   5.730 -0.2893  0.0539  0.1668
 2245TIP3    H128150   1.273   5.179   5.752  0.2229 -0.8486  0.0336
 2245TIP3    H228151   1.197   5.119   5.636  0.7293 -2.8379  0.6959
 2246TIP3   OH228152   0.106   4.094   2.147 -0.4138 -0.7906 -0.0766
 2246TIP3    H128153   0.202   4.090   2.147 -0.3724 -0.3838  1.3859
 2246TIP3    H228154   0.079   4.004   2.163 -0.2710 -0.8170  0.0162
 2247TIP3   OH228155   3.507   6.463  17.247 -0.0089  0.2496 -0.5342
 2247TIP3    H128156   3.502   6.367  17.247 -1.1470  0.2919  0.2744
 2247TIP3    H228157   3.488   6.488  17.157  4.4969 -0.3933 -1.9096
 2248TIP3   OH228158   3.792   3.325   5.887  0.1926 -0.0173  0.2955
 2248TIP3    H128159   3.795   3.421   5.878 -0.5030 -0.0988 -1.1490
 2248TIP3    H228160   3.842   3.294   5.811  1.0083 -0.7983  1.1442
 2249TIP3   OH228161   0.564   6.634   2.782 -0.1888 -0.2075  0.1899
 2249TIP3    H128162   0.640   6.642   2.840  0.4611  1.1165 -0.8178
 2249TIP3    H228163   0.522   6.552   2.810  0.2320  0.2538  2.3510
 2250TIP3   OH228164   5.687   2.319   1.546 -0.2953  0.1157  0.5293
 2250TIP3    H128165   5.736   2.295   1.625  0.2354 -1.4277 -0.2187
 2250TIP3    H228166   5.595   2.321   1.574 -0.0842 -0.1627  1.2547
 2251TIP3   OH228167   3.203   0.227  16.488  0.2739  0.2174 -0.0961
 2251TIP3    H128168   3.144   0.264  16.553 -0.4621 -0.7855 -0.1657
 2251TIP3    H228169   3.153   0.227  16.407  1.2762  1.6965 -0.7495
 2252TIP3   OH228170   4.845   2.543  15.786  0.2490 -0.3621  0.4047
 2252TIP3    H128171   4.819   2.597  15.711  1.0182 -0.8806 -0.2542
 2252TIP3    H228172   4.920   2.493  15.754  0.4004 -0.8115  1.4375
 2253TIP3   OH228173   1.952   0.485  14.880  0.4438 -0.0685 -0.1581
 2253TIP3    H128174   1.953   0.581  14.880  1.4586 -0.0678 -0.2745
 2253TIP3    H228175   1.973   0.461  14.790  3.6278 -0.3711  0.5551
 2254TIP3   OH228176   1.432   2.380   2.556 -0.2156 -0.1500 -0.4527
 2254TIP3    H128177   1.356   2.328   2.531 -0.0537 -1.7445  2.0188
 2254TIP3    H228178   1.484   2.322   2.613  0.6188  2.2618  1.4513
 2255TIP3   OH228179   5.569   5.239   1.548 -0.1847  0.0417 -0.0180
 2255TIP3    H128180   5.633   5.300   1.585  0.4773 -1.0971  0.8041
 2255TIP3    H228181   5.592   5.233   1.456  1.9400 -1.4660  0.5173
 2256TIP3   OH228182   0.309   1.787  10.874  0.3478  0.3625  0.2954
 2256TIP3    H128183   0.219   1.756  10.887 -0.0049  0.9193 -0.7227
 2256TIP3    H228184   0.361   1.707  10.870 -0.4828 -0.1362 -1.7666
 2257TIP3   OH228185   6.177   5.591  15.903 -0.2546  0.1653  0.1553
 2257TIP3    H128186   6.269   5.582  15.926 -0.1859 -0.0678 -0.1992
 2257TIP3    H228187   6.129   5.562  15.981 -0.0326 -1.7822 -0.3880
 2258TIP3   OH228188   3.058   1.447   2.914 -0.0662  0.3997  0.4605
 2258TIP3    H128189   2.992   1.479   2.975  0.6797  1.5580  0.6903
 2258TIP3    H228190   3.124   1.406   2.970 -0.2792 -0.1934  0.2814
 2259TIP3   OH228191   6.587   0.664   6.541  0.3518  0.0869 -0.4573
 2259TIP3    H128192   6.522   0.714   6.493 -0.7256 -0.9150 -0.0986
 2259TIP3    H228193   6.658   0.726   6.558 -0.7271  1.3572 -0.4170
 2260TIP3   OH228194   4.387   1.384   4.021  0.4061 -0.1058  0.1703
 2260TIP3    H128195   4.396   1.477   4.001 -0.2802  0.0759  0.6755
 2260TIP3    H228196   4.449   1.369   4.093 -0.0815  0.1538  0.6533
 2261TIP3   OH228197   2.595   6.128   2.967  0.5531  0.9414  0.1259
 2261TIP3    H128198   2.555   6.214   2.979  0.3791  0.8924 -0.1002
 2261TIP3    H228199   2.668   6.143   2.907  0.9919  1.0623  0.6770
 2262TIP3   OH228200   2.090   5.249  12.745 -0.0189  0.2885  0.3708
 2262TIP3    H128201   2.048   5.193  12.809  0.7825 -0.1358  0.5407
 2262TIP3    H228202   2.097   5.335  12.787 -1.1411  0.5019  0.1521
 2263TIP3   OH228203   2.011   5.647  12.241  0.3500 -0.2231 -0.4201
 2263TIP3    H128204   2.045   5.567  12.200  1.4355 -0.5070  0.9588
 2263TIP3    H228205   2.090   5.696  12.265 -0.2532  0.1589  0.8540
 2264TIP3   OH228206   0.018   3.686   5.723  0.2952 -1.4389 -0.1922
 2264TIP3    H128207   0.049   3.731   5.801 -0.1571 -0.1656 -0.7078
 2264TIP3    H228208   0.073   3.608   5.715  0.1611 -1.7339  1.5304
 2265TIP3   OH228209   2.025   1.612  14.216 -0.1583  0.0510  0.3398
 2265TIP3    H128210   2.066   1.526  14.208  2.3618  1.1839 -0.1245
 2265TIP3    H228211   2.042   1.638  14.307 -0.3241  0.2948  0.3018
 2266TIP3   OH228212   3.887   5.603  10.860 -0.2012 -0.0720 -0.1443
 2266TIP3    H128213   3.864   5.611  10.767  1.5837  1.0866 -0.5387
 2266TIP3    H228214   3.862   5.687  10.898  0.6159  0.0993  0.0376
 2267TIP3   OH228215   4.316   4.679   5.808  0.5782 -0.0902  0.2016
 2267TIP3    H128216   4.387   4.620   5.782 -0.1296 -0.2590 -1.5211
 2267TIP3    H228217   4.238   4.625   5.804 -0.1591  0.9804 -1.8812
 2268TIP3   OH228218   1.447   3.406  12.372  0.3553  0.4949  0.3226
 2268TIP3    H128219   1.513   3.371  12.312  0.6709  0.9263  0.4147
 2268TIP3    H228220   1.440   3.499  12.349 -0.7587  0.2987 -0.1856
 2269TIP3   OH228221   3.175   5.355   4.455  0.3149 -0.7442  0.0368
 2269TIP3    H128222   3.199   5.414   4.526  0.1242  1.9777 -2.0126
 2269TIP3    H228223   3.103   5.400   4.410  0.5713 -2.2524 -2.0123
 2270TIP3   OH228224   2.326   2.763  15.729 -0.5668 -0.4757 -0.6660
 2270TIP3    H128225   2.415   2.769  15.696  1.3683 -1.1093  3.7311
 2270TIP3    H228226   2.315   2.840  15.785 -3.5819  0.5550 -2.4081
 2271TIP3   OH228227   3.868   6.391   1.669  0.9618 -0.0255 -0.4356
 2271TIP3    H128228   3.872   6.319   1.607 -0.3262  0.6651 -1.3714
 2271TIP3    H228229   3.956   6.396   1.706  1.8538 -0.3005 -2.3977
 2272TIP3   OH228230   2.435   0.046   5.343 -0.0319 -0.3829  0.2098
 2272TIP3    H128231   2.344   0.066   5.322  0.0693 -0.0858  0.0396
 2272TIP3    H228232   2.447  -0.045   5.313  0.2193  0.1628 -1.4621
 2273TIP3   OH228233   1.619   4.683   6.446 -0.2567  0.0167  0.3385
 2273TIP3    H128234   1.709   4.711   6.431 -0.2045 -0.1629  0.3144
 2273TIP3    H228235   1.570   4.765   6.457  0.3514  0.1070  3.1037
 2274TIP3   OH228236   0.787   4.712  13.279  0.2450  0.3491  0.1004
 2274TIP3    H128237   0.864   4.761  13.309  0.4675  0.8133 -1.1684
 2274TIP3    H228238   0.735   4.776  13.231 -1.2159  0.1670  1.3665
 2275TIP3   OH228239   3.026   3.869   5.763  0.5398 -0.0553 -0.3473
 2275TIP3    H128240   3.120   3.878   5.744  0.5265 -0.2344 -0.4996
 2275TIP3    H228241   3.021   3.872   5.858  0.7805 -0.7700 -0.3034
 2276TIP3   OH228242   2.518   6.154  13.963 -0.3986  0.2904 -0.3363
 2276TIP3    H128243   2.606   6.191  13.958 -0.8868  1.4864 -0.2560
 2276TIP3    H228244   2.496   6.156  14.056 -1.0380  1.2924 -0.4921
 2277TIP3   OH228245   2.615   0.041   3.795 -0.6209 -0.1721  0.0974
 2277TIP3    H128246   2.556   0.082   3.733 -0.0849  0.9308  0.2993
 2277TIP3    H228247   2.580  -0.047   3.807 -0.3748 -0.6498 -2.2626
 2278TIP3   OH228248   2.333   6.720  14.936 -0.0472  0.6610 -0.1004
 2278TIP3    H128249   2.358   6.708  15.028 -0.2856  1.0432  0.0185
 2278TIP3    H228250   2.306   6.633  14.907 -0.0689  0.5572  0.2232
 2279TIP3   OH228251   1.059   1.588   0.304  0.7244 -0.4493 -0.5791
 2279TIP3    H128252   1.056   1.604   0.398 -0.6054  1.4542 -0.9019
 2279TIP3    H228253   1.001   1.513   0.290  2.1561 -1.7837  0.2381
 2280TIP3   OH228254   4.542   1.305   2.167  0.2376  0.4545  0.0209
 2280TIP3    H128255   4.478   1.335   2.231 -0.0168 -0.9111  0.4491
 2280TIP3    H228256   4.623   1.292   2.218  0.0671 -0.5204  0.0669
 2281TIP3   OH228257   0.351   3.016   5.401 -0.0444 -0.0091  0.1790
 2281TIP3    H128258   0.303   2.958   5.460  1.7020 -0.1958  1.4857
 2281TIP3    H228259   0.419   3.056   5.456 -0.4747  2.4385 -0.9266
 2282TIP3   OH228260   1.121   2.658  13.675 -0.3716  0.5201 -0.4466
 2282TIP3    H128261   1.064   2.649  13.599 -0.2209 -1.8825 -0.3490
 2282TIP3    H228262   1.207   2.630  13.645 -0.4059 -0.9067  0.6863
 2283TIP3   OH228263   4.209   3.099  15.458  0.2609  0.0483 -0.0892
 2283TIP3    H128264   4.225   3.108  15.363  0.4456 -1.3208 -0.2024
 2283TIP3    H228265   4.296   3.113  15.497  0.6666 -1.7266 -0.3043
 2284TIP3   OH228266   1.409   1.074   2.257 -0.3000  0.2649 -0.4850
 2284TIP3    H128267   1.455   0.991   2.248  0.1219  0.5041 -0.5598
 2284TIP3    H228268   1.337   1.055   2.317  0.8632  0.2685  0.9942
 2285TIP3   OH228269   3.928   0.928  16.287  0.1008 -0.0755  0.1981
 2285TIP3    H128270   3.873   0.897  16.359 -0.4771 -0.7098 -0.4943
 2285TIP3    H228271   3.974   0.849  16.257  1.8455  0.5345  1.1126
 2286TIP3   OH228272   5.833   5.137  17.153 -0.4119  0.0471 -0.3820
 2286TIP3    H128273   5.759   5.108  17.100 -0.5374  0.3823 -0.3924
 2286TIP3    H228274   5.829   5.233  17.150  0.4038  0.0713 -0.9146
 2287TIP3   OH228275   4.305   4.551  15.913 -0.1421 -0.2401  0.5424
 2287TIP3    H128276   4.221   4.536  15.871  0.4904  2.7598 -2.1901
 2287TIP3    H228277   4.288   4.540  16.007 -2.8996 -2.0899 -0.0503
 2288TIP3   OH228278   5.873   6.447   0.237 -0.3860 -0.3603 -0.4869
 2288TIP3    H128279   5.964   6.432   0.262 -0.7070 -0.7787  0.4776
 2288TIP3    H228280   5.837   6.360   0.223 -0.9276 -0.2727  0.2568
 2289TIP3   OH228281   6.721   4.737   1.825 -0.2879  0.5835 -0.2960
 2289TIP3    H128282   6.711   4.805   1.758  0.8272  0.9173 -0.1448
 2289TIP3    H228283   6.725   4.655   1.776  0.1052  0.7910 -0.6175
 2290TIP3   OH228284   1.281   6.697  16.858  0.0806  0.4770 -0.0234
 2290TIP3    H128285   1.204   6.700  16.801  0.5384  0.1549 -0.6726
 2290TIP3    H228286   1.343   6.756  16.815  0.5243  0.0289  0.0041
 2291TIP3   OH228287   4.594   5.909  11.256  0.0969  0.3525 -0.5227
 2291TIP3    H128288   4.502   5.933  11.245 -0.5018 -2.6209 -3.1635
 2291TIP3    H228289   4.636   5.938  11.175  1.6562  1.9811  0.7908
 2292TIP3   OH228290   1.649   4.456  13.168  0.3670  0.2694 -0.3980
 2292TIP3    H128291   1.737   4.490  13.186 -0.2184  1.2270  0.7679
 2292TIP3    H228292   1.614   4.432  13.253 -0.9859  1.1259 -0.6785
 2293TIP3   OH228293   5.423   6.420   5.746 -0.0059  0.4536  0.2510
 2293TIP3    H128294   5.359   6.349   5.753  1.0212 -0.5001  0.2567
 2293TIP3    H228295   5.456   6.416   5.656  0.1951  0.8046  0.3027
 2294TIP3   OH228296   0.354   4.012  14.877 -0.1815 -0.1374  0.3010
 2294TIP3    H128297   0.441   3.985  14.846 -0.6019 -1.6789  0.3894
 2294TIP3    H228298   0.351   3.982  14.968 -1.4965 -1.8288 -0.2657
 2295TIP3   OH228299   5.582   4.675   3.899  1.1942  0.2914  0.0052
 2295TIP3    H128300   5.669   4.650   3.930  0.9807  0.3362  0.6483
 2295TIP3    H228301   5.556   4.603   3.840  0.6407 -0.9860  1.7257
 2296TIP3   OH228302   4.430   2.877  16.047 -0.6306  0.3501  0.0408
 2296TIP3    H128303   4.468   2.793  16.024  0.6894  0.6428  1.0676
 2296TIP3    H228304   4.355   2.886  15.987  1.2662  0.0645 -2.5301
 2297TIP3   OH228305   3.992   4.028   0.824 -0.0450  0.0649  0.1101
 2297TIP3    H128306   3.988   4.002   0.732 -1.1622 -2.5373  0.8120
 2297TIP3    H228307   4.086   4.036   0.842  0.2729 -1.2243 -0.8115
 2298TIP3   OH228308   1.721   6.643  16.760 -0.2697 -0.2488 -0.2583
 2298TIP3    H128309   1.763   6.571  16.807  0.1741  0.5611  0.6381
 2298TIP3    H228310   1.720   6.616  16.669 -3.2304 -2.9163  0.3791
 2299TIP3   OH228311   2.527   3.851  11.400  0.2631  0.3515  0.5071
 2299TIP3    H128312   2.596   3.888  11.344  1.2163  0.7547  1.9027
 2299TIP3    H228313   2.507   3.766  11.360  1.8577  0.0434  0.2930
 2300TIP3   OH228314   3.333   4.344  12.800 -0.1973 -0.0085  0.0287
 2300TIP3    H128315   3.392   4.368  12.729  0.1670  1.7163  0.8622
 2300TIP3    H228316   3.319   4.425  12.849 -1.1491 -0.9470  1.4088
 2301TIP3   OH228317   1.133   0.414   0.504 -0.1726 -0.0775  0.6217
 2301TIP3    H128318   1.226   0.404   0.521  0.1698 -0.7551 -1.3568
 2301TIP3    H228319   1.128   0.450   0.416 -1.7824  0.8723  1.0583
 2302TIP3   OH228320   5.471   6.500   3.286  0.2078  0.2218  0.4788
 2302TIP3    H128321   5.508   6.419   3.252 -0.7858 -0.1114  0.1518
 2302TIP3    H228322   5.443   6.548   3.208 -1.5554 -0.2876  0.7547
 2303TIP3   OH228323   0.502   3.761  10.913 -0.2349 -0.9526 -0.1165
 2303TIP3    H128324   0.475   3.748  10.822 -1.7883 -1.3880  0.3810
 2303TIP3    H228325   0.594   3.785  10.907 -0.7587  0.8666 -1.9309
 2304TIP3   OH228326   0.750   6.531   1.404 -0.3566  0.1198 -0.7173
 2304TIP3    H128327   0.706   6.458   1.362  2.5670 -1.5156 -1.1881
 2304TIP3    H228328   0.751   6.508   1.497  1.4559 -1.0485 -0.9793
 2305TIP3   OH228329   0.498   3.301   6.355 -0.1251  0.0898  0.3345
 2305TIP3    H128330   0.488   3.361   6.281 -2.0310  0.7416  1.0419
 2305TIP3    H228331   0.532   3.355   6.426 -2.4280  0.5980  1.1570
 2306TIP3   OH228332   5.421   0.434   1.520 -0.5880 -0.5424 -0.2211
 2306TIP3    H128333   5.481   0.364   1.494 -0.9300 -1.2562  0.8194
 2306TIP3    H228334   5.372   0.397   1.594  2.0031  2.1095  3.1293
 2307TIP3   OH228335   2.037   1.697   0.129 -0.3742  0.3119  0.8374
 2307TIP3    H128336   2.008   1.711   0.219 -2.6034 -1.7508  0.5568
 2307TIP3    H228337   2.024   1.603   0.114  0.1143  0.5548 -1.5791
 2308TIP3   OH228338   6.077   5.681   1.659  0.4871  0.2385 -0.4534
 2308TIP3    H128339   6.144   5.728   1.708 -1.7437  0.1391  3.0191
 2308TIP3    H228340   6.023   5.749   1.619  0.3003  0.4596  0.1734
 2309TIP3   OH228341   2.493   3.417   0.541 -0.0444 -0.6630  0.5034
 2309TIP3    H128342   2.440   3.411   0.620 -0.7195  0.1661  0.1324
 2309TIP3    H228343   2.430   3.438   0.471  0.4950 -1.6374 -0.3067
 2310TIP3   OH228344   0.465   0.127  16.198  0.8462  0.1141  0.1183
 2310TIP3    H128345   0.504   0.149  16.282 -1.0071  1.7608  0.6262
 2310TIP3    H228346   0.456   0.211  16.153 -0.2147 -0.4571 -0.7992
 2311TIP3   OH228347   6.565   3.440  14.742  0.6984  0.1722  0.4131
 2311TIP3    H128348   6.535   3.497  14.671  1.1286 -1.6090 -1.2962
 2311TIP3    H228349   6.499   3.371  14.746  1.7744 -0.9129  0.2232
 2312TIP3   OH228350   5.262   3.739   1.873  0.2857  0.1610 -0.3627
 2312TIP3    H128351   5.196   3.804   1.853 -1.4985 -0.8377  1.7846
 2312TIP3    H228352   5.299   3.767   1.957  1.7960  0.0730 -0.9591
 2313TIP3   OH228353   2.770   6.515  13.845 -0.8381  0.6837 -0.0663
 2313TIP3    H128354   2.836   6.584  13.858  0.6725 -0.5504 -0.7535
 2313TIP3    H228355   2.760   6.475  13.932  1.2427 -0.6989 -0.3858
 2314TIP3   OH228356   3.692   0.059   5.196 -0.3391 -0.0154 -0.3877
 2314TIP3    H128357   3.686  -0.021   5.248 -1.3385 -0.1273 -0.6642
 2314TIP3    H228358   3.760   0.040   5.132  0.0813 -0.2998  0.1261
 2315TIP3   OH228359   4.085   3.670  17.241  0.1113  0.5724  0.3709
 2315TIP3    H128360   4.103   3.668  17.147 -1.3158  1.2203  0.0623
 2315TIP3    H228361   3.992   3.649  17.248  0.4489 -0.6015  1.7390
 2316TIP3   OH228362   6.162   4.625   1.860 -0.2743 -0.2913 -0.4821
 2316TIP3    H128363   6.199   4.601   1.945  0.8235 -2.2880 -1.4640
 2316TIP3    H228364   6.221   4.692   1.826  0.8403 -1.3587 -0.7524
 2317TIP3   OH228365   4.621   5.722   5.179 -0.3528  0.3173 -0.9710
 2317TIP3    H128366   4.659   5.647   5.133  0.0488  0.2336 -0.5240
 2317TIP3    H228367   4.573   5.683   5.252  1.2533  0.5407  0.2610
 2318TIP3   OH228368   5.971   1.112   0.583  0.3375 -0.2156 -0.3894
 2318TIP3    H128369   5.936   1.111   0.672  0.1123  0.1173 -0.4741
 2318TIP3    H228370   5.900   1.076   0.529  0.4156 -0.2684 -0.4580
 2319TIP3   OH228371   2.090   5.855  11.816  0.7785 -0.1700 -0.1171
 2319TIP3    H128372   2.149   5.820  11.883  0.2969 -2.3081 -0.7309
 2319TIP3    H228373   2.002   5.829  11.844  0.6467 -2.2517 -2.0948
 2320TIP3   OH228374   6.204   4.215  15.676  0.3182 -0.4534  0.4329
 2320TIP3    H128375   6.129   4.265  15.643 -0.3600 -1.0428  1.0559
 2320TIP3    H228376   6.269   4.220  15.605 -0.2603  0.1514 -0.0690
 2321TIP3   OH228377   2.431   1.422   2.796  0.7447 -0.2764 -0.2311
 2321TIP3    H128378   2.349   1.409   2.750  0.2094  0.4974  0.4738
 2321TIP3    H228379   2.435   1.350   2.859 -0.8141  1.1884  1.6881
 2322TIP3   OH228380   4.533   6.125  15.877 -0.1782 -0.6347  0.4056
 2322TIP3    H128381   4.437   6.131  15.883 -0.2258  0.1437 -0.8361
 2322TIP3    H228382   4.553   6.039  15.913 -1.3736 -0.9291  0.4310
 2323TIP3   OH228383   3.141   4.065  11.943  0.3931  1.0801 -0.2910
 2323TIP3    H128384   3.231   4.076  11.915 -0.0289  0.9671 -1.7625
 2323TIP3    H228385   3.114   3.981  11.907  0.2506  0.2089  1.7217
 2324TIP3   OH228386   1.255   1.838   4.699 -0.0046  0.2060 -0.0607
 2324TIP3    H128387   1.175   1.889   4.716  1.3870  2.3138  0.5857
 2324TIP3    H228388   1.233   1.784   4.623 -2.8917 -1.3239  1.6960
 2325TIP3   OH228389   1.868   1.777   0.962  0.1226  0.2927 -0.8287
 2325TIP3    H128390   1.924   1.835   0.911 -1.3872  0.0181 -2.8877
 2325TIP3    H228391   1.796   1.833   0.991 -0.4659 -0.1657 -1.3916
 2326TIP3   OH228392   4.965   4.430  15.810  0.1558  0.2658 -0.5245
 2326TIP3    H128393   4.875   4.398  15.819 -0.2702  1.5487  0.0067
 2326TIP3    H228394   4.961   4.492  15.737  0.6635  0.1604 -0.6445
 2327TIP3   OH228395   6.186   3.579  17.113 -0.1429  0.4276  0.0903
 2327TIP3    H128396   6.252   3.514  17.089 -1.1603 -1.0113  1.0632
 2327TIP3    H228397   6.146   3.604  17.030 -0.9794 -1.5733 -0.1503
 2328TIP3   OH228398   2.579   5.619   4.207  0.3259 -0.0843  0.6139
 2328TIP3    H128399   2.608   5.551   4.146 -0.0569 -0.6276  1.0313
 2328TIP3    H228400   2.576   5.576   4.292 -0.5538  0.2663  0.7761
 2329TIP3   OH228401   0.467   5.774   4.918  0.4138 -0.0834 -0.4567
 2329TIP3    H128402   0.487   5.847   4.859 -1.2741  1.4476  0.7295
 2329TIP3    H228403   0.383   5.741   4.889  0.4579 -0.5543 -0.0637
 2330TIP3   OH228404   5.586   0.511   4.563  0.2953  0.2566  0.2731
 2330TIP3    H128405   5.621   0.452   4.497  0.9754  1.5194 -0.5315
 2330TIP3    H228406   5.514   0.462   4.602 -0.6824 -0.2554 -1.9719
 2331TIP3   OH228407   1.869   0.521  10.927  0.7401  0.2879  0.1114
 2331TIP3    H128408   1.892   0.473  10.848 -0.8994 -0.6383  0.1500
 2331TIP3    H228409   1.776   0.541  10.917  0.7126  0.9211  1.4111
 2332TIP3   OH228410   6.204   6.395  13.315  0.5157  0.1052 -0.2341
 2332TIP3    H128411   6.217   6.489  13.325  0.7934  0.0458 -0.0277
 2332TIP3    H228412   6.291   6.361  13.292  0.0722  0.1440 -2.1288
 2333TIP3   OH228413   3.503   2.787   2.504  0.3239 -0.3417  0.3817
 2333TIP3    H128414   3.492   2.693   2.520  1.0186 -0.6399 -0.7227
 2333TIP3    H228415   3.597   2.797   2.487  0.0291  0.2672 -1.1145
 2334TIP3   OH228416   4.226   5.324  15.728  0.3215 -0.1472 -0.2376
 2334TIP3    H128417   4.172   5.366  15.795  1.6543  2.6608 -0.7560
 2334TIP3    H228418   4.316   5.334  15.760  0.8725 -0.0579 -1.7112
 2335TIP3   OH228419   6.675   1.404  12.282  0.9736 -0.0696  0.0532
 2335TIP3    H128420   6.720   1.434  12.203 -1.9821 -1.2806 -2.3033
 2335TIP3    H228421   6.700   1.311  12.290 -0.9045 -0.7399 -1.2506
 2336TIP3   OH228422   2.852   2.375  16.771  0.3973 -0.1796 -0.2152
 2336TIP3    H128423   2.926   2.336  16.817  1.0660  0.7803 -0.4480
 2336TIP3    H228424   2.780   2.372  16.834  1.3116  1.1802  0.9478
 2337TIP3   OH228425   3.795   0.624   2.788  0.3417  0.3988  0.1478
 2337TIP3    H128426   3.845   0.644   2.709  0.3248  0.0802  0.0569
 2337TIP3    H228427   3.749   0.543   2.768  0.7461  0.0303  0.6657
 2338TIP3   OH228428   0.249   3.219   3.462 -0.8298  0.1147 -0.0080
 2338TIP3    H128429   0.229   3.208   3.370 -1.9532  0.9970  0.1153
 2338TIP3    H228430   0.323   3.159   3.478  1.4764  2.1521 -2.1766
 2339TIP3   OH228431   6.207   4.626  15.818  0.3939  0.2457 -0.3588
 2339TIP3    H128432   6.295   4.640  15.783  0.6069 -0.3134 -0.0648
 2339TIP3    H228433   6.221   4.569  15.894 -0.3919 -1.2640 -1.3093
 2340TIP3   OH228434   5.956   0.829   5.600  0.1363 -0.0382  0.1386
 2340TIP3    H128435   6.030   0.832   5.661 -0.2740 -1.5558  0.7648
 2340TIP3    H228436   5.928   0.920   5.592 -0.0302  0.1875  2.5541
 2341TIP3   OH228437   4.729   5.673   1.364  0.0620  0.5869 -0.2419
 2341TIP3    H128438   4.742   5.756   1.319 -0.9183  1.7030  1.4180
 2341TIP3    H228439   4.740   5.693   1.457  1.1592 -1.4443  0.1355
 2342TIP3   OH228440   0.080   4.588   1.188 -0.1933  0.4382 -0.1870
 2342TIP3    H128441   0.053   4.503   1.224 -0.0741 -0.4847 -2.1280
 2342TIP3    H228442   0.061   4.581   1.095 -0.4453  2.6927 -0.3605
 2343TIP3   OH228443   5.074   3.062   5.459  0.2659 -0.0753  0.3075
 2343TIP3    H128444   5.053   3.116   5.383  2.5710  0.6204  0.1069
 2343TIP3    H228445   5.056   2.973   5.430 -1.1441  0.3588 -0.2242
 2344TIP3   OH228446   3.341   4.400  16.942  0.1047 -0.3582 -0.5679
 2344TIP3    H128447   3.390   4.404  17.025  2.2599  0.6781 -1.8147
 2344TIP3    H228448   3.286   4.322  16.951  1.8057 -1.4603  1.0317
 2345TIP3   OH228449   4.729   5.038  14.745  0.2139  0.1209  0.6150
 2345TIP3    H128450   4.735   5.000  14.657 -1.7945 -1.0518  0.9286
 2345TIP3    H228451   4.821   5.050  14.771  0.8742 -0.4860 -1.2096
 2346TIP3   OH228452   1.211   0.297  14.433 -0.2125  0.0852 -0.0908
 2346TIP3    H128453   1.201   0.366  14.500 -0.5040  0.8394 -0.8947
 2346TIP3    H228454   1.124   0.288  14.395 -0.3862 -1.3569  0.5872
 2347TIP3   OH228455   4.989   6.237  15.467  0.8871  0.2724  0.1084
 2347TIP3    H128456   5.074   6.215  15.505  1.4368  1.1297 -0.5829
 2347TIP3    H228457   5.000   6.327  15.435 -1.2834  1.6828  2.9048
 2348TIP3   OH228458   0.213   1.774   3.680  0.6318  0.1503  1.1604
 2348TIP3    H128459   0.176   1.755   3.594  1.8126 -2.9104  1.2108
 2348TIP3    H228460   0.295   1.819   3.661  0.4989  0.2168  0.7249
 2349TIP3   OH228461   4.856   2.963   5.915  0.2204  0.0874 -0.6089
 2349TIP3    H128462   4.788   2.896   5.926  0.0439  0.3540 -0.0483
 2349TIP3    H228463   4.920   2.922   5.857  0.2229 -0.6592 -0.1037
 2350TIP3   OH228464   5.325   0.130   3.053  0.1673  0.2193  0.3356
 2350TIP3    H128465   5.265   0.186   3.003  0.4106  0.7310  0.6038
 2350TIP3    H228466   5.277   0.108   3.132 -0.3704 -0.9167 -0.2730
 2351TIP3   OH228467   1.677   6.051   2.051 -0.2926  0.2426  0.2587
 2351TIP3    H128468   1.700   6.132   2.096 -1.8719  1.1822 -0.5034
 2351TIP3    H228469   1.586   6.064   2.024 -0.5801 -1.7846  0.0748
 2352TIP3   OH228470   4.080   6.214   4.120  0.5675 -0.0855  0.3654
 2352TIP3    H128471   4.104   6.200   4.211  1.9742  1.6967  0.3279
 2352TIP3    H228472   4.163   6.232   4.076 -0.1905  0.0454 -1.0681
 2353TIP3   OH228473   4.981   2.988   0.004  0.2250  0.0754 -0.1385
 2353TIP3    H128474   4.973   2.966  -0.089  0.4525  1.1658 -0.4227
 2353TIP3    H228475   4.913   3.054   0.019 -1.1540 -1.5055  0.9489
 2354TIP3   OH228476   4.195   6.644   1.493  0.2563  0.4189  0.1361
 2354TIP3    H128477   4.124   6.690   1.448  0.4629  0.6896  0.0850
 2354TIP3    H228478   4.275   6.678   1.453  0.4283  0.3816  0.4436
 2355TIP3   OH228479   0.838   3.027  16.601 -0.2746  0.2188  0.0165
 2355TIP3    H128480   0.749   3.053  16.626 -0.6536 -0.8359 -0.2200
 2355TIP3    H228481   0.832   3.004  16.508 -0.0383 -1.0461  0.2972
 2356TIP3   OH228482   0.519   4.207  13.898  0.2136  0.1718  0.6149
 2356TIP3    H128483   0.589   4.248  13.847 -0.3687  1.6642  0.9698
 2356TIP3    H228484   0.452   4.275  13.905 -0.3747 -0.5292  2.0750
 2357TIP3   OH228485   5.059   2.520  11.856 -0.0346  0.2663 -0.6756
 2357TIP3    H128486   5.090   2.455  11.794  0.1007  0.6950 -1.0656
 2357TIP3    H228487   5.135   2.574  11.876  0.0043 -0.0622  0.1243
 2358TIP3   OH228488   6.488   5.847  16.213 -0.2840 -0.1212 -0.0601
 2358TIP3    H128489   6.419   5.876  16.273  0.5115  1.0711  0.3012
 2358TIP3    H228490   6.552   5.804  16.269 -0.7726 -1.3651 -0.4161
 2359TIP3   OH228491   0.204   1.587   5.419  0.7820 -0.4047 -0.1643
 2359TIP3    H128492   0.255   1.615   5.494  1.1439  1.1594 -0.9454
 2359TIP3    H228493   0.113   1.605   5.444  0.7912 -1.0183  0.3384
 2360TIP3   OH228494   6.515   2.715  13.710 -0.4700  0.3189  1.1977
 2360TIP3    H128495   6.475   2.801  13.697 -1.1773  0.0773  1.7150
 2360TIP3    H228496   6.506   2.698  13.804 -0.7120 -0.5030  1.0360
 2361TIP3   OH228497   5.556   4.089   5.066  0.6110 -0.0693  0.0417
 2361TIP3    H128498   5.615   4.018   5.041 -0.1489 -0.4960 -0.5949
 2361TIP3    H228499   5.468   4.051   5.055  0.1544  1.2869 -1.3033
 2362TIP3   OH228500   0.529   3.740  12.323  0.8483 -0.0301 -0.6327
 2362TIP3    H128501   0.543   3.680  12.396 -1.0637 -0.0607 -0.2268
 2362TIP3    H228502   0.467   3.805  12.357  0.3253  0.2563 -2.0642
 2363TIP3   OH228503   1.609   1.519   3.489 -0.3324 -0.6458 -0.4205
 2363TIP3    H128504   1.626   1.425   3.487 -0.6354 -0.9451  3.1819
 2363TIP3    H228505   1.668   1.552   3.557 -1.8648  1.3297  0.0367
 2364TIP3   OH228506   3.083   2.538   3.348 -0.2829 -0.1054  0.3238
 2364TIP3    H128507   3.118   2.569   3.264  1.3205 -0.7981  0.6878
 2364TIP3    H228508   3.031   2.610   3.381  2.3813  1.8401  0.6233
 2365TIP3   OH228509   5.644   2.059   5.874 -0.0526  0.0942 -0.5033
 2365TIP3    H128510   5.738   2.062   5.857  0.2924 -0.9706  1.0824
 2365TIP3    H228511   5.626   1.969   5.901 -1.4027  0.4597 -0.0822
 2366TIP3   OH228512   2.259   1.954  12.289 -0.0703 -0.9473  0.7044
 2366TIP3    H128513   2.189   1.926  12.229  0.2082  0.1013 -0.1520
 2366TIP3    H228514   2.328   1.889  12.277 -0.6043 -1.5772  1.0037
 2367TIP3   OH228515   3.879   5.511  17.089  0.3864  0.3333  0.2614
 2367TIP3    H128516   3.969   5.516  17.056  1.3417 -0.7824  2.4587
 2367TIP3    H228517   3.865   5.418  17.106 -1.7396  0.3053 -1.3551
 2368TIP3   OH228518   4.743   3.054   1.457  0.5030  0.9577 -0.2929
 2368TIP3    H128519   4.688   2.993   1.409 -0.7087  1.7111  0.1061
 2368TIP3    H228520   4.795   3.098   1.389  1.0127 -0.1215 -0.6211
 2369TIP3   OH228521   3.876   4.204   5.376  0.3783 -0.2242  0.1334
 2369TIP3    H128522   3.942   4.139   5.399  1.8979  1.1354 -0.1568
 2369TIP3    H228523   3.874   4.203   5.280  0.2493 -0.0203  0.1330
 2370TIP3   OH228524   6.713   4.849   4.625 -0.5661 -0.0061 -0.0948
 2370TIP3    H128525   6.714   4.944   4.639 -0.5965  0.3573 -2.2104
 2370TIP3    H228526   6.781   4.816   4.684  0.8792  1.5991 -0.7655
 2371TIP3   OH228527   6.063   2.496   3.328  0.0852  0.1728  0.0150
 2371TIP3    H128528   6.082   2.587   3.352 -1.1345  0.6287 -0.7129
 2371TIP3    H228529   6.143   2.449   3.353  0.1254  1.1364  1.9665
 2372TIP3   OH228530   5.295   4.895   3.291 -0.5120 -0.7256  0.0611
 2372TIP3    H128531   5.345   4.940   3.360 -0.4024 -1.4371  0.4506
 2372TIP3    H228532   5.361   4.868   3.227 -0.7313  0.9912 -0.9620
 2373TIP3   OH228533   0.495   5.979  17.284 -0.0644 -0.0568  0.3391
 2373TIP3    H128534   0.532   6.052  17.235  0.0176  0.6569  1.4194
 2373TIP3    H228535   0.403   5.976  17.257 -0.2350  0.8899  0.7726
 2374TIP3   OH228536   3.596   5.675   4.787  0.0616  0.3310  0.0590
 2374TIP3    H128537   3.674   5.620   4.782 -0.8958 -1.0274 -0.2919
 2374TIP3    H228538   3.575   5.695   4.695  0.2076  1.0361  0.1672
 2375TIP3   OH228539   4.614   4.981  13.354 -0.4385  0.1606  0.5300
 2375TIP3    H128540   4.653   5.063  13.323 -1.0105 -0.3735 -1.7402
 2375TIP3    H228541   4.667   4.957  13.430  0.4994  2.0046  0.5192
 2376TIP3   OH228542   4.070   2.319   4.027  0.9234  0.2447 -0.1841
 2376TIP3    H128543   4.151   2.362   3.999  1.0620 -0.8376 -1.5284
 2376TIP3    H228544   4.088   2.226   4.019 -0.3684 -0.0190 -0.2498
 2377TIP3   OH228545   3.511   2.285  15.103 -0.2592 -0.5113  0.3557
 2377TIP3    H128546   3.447   2.233  15.055  0.4914  0.8278 -2.3057
 2377TIP3    H228547   3.473   2.373  15.106  1.1893  0.2042 -0.8908
 2378TIP3   OH228548   1.822   5.292  12.590 -0.4443 -0.8975  0.5664
 2378TIP3    H128549   1.740   5.303  12.638 -1.3480  0.1425 -1.0873
 2378TIP3    H228550   1.826   5.368  12.532  0.9043 -1.7295 -0.5143
 2379TIP3   OH228551   3.894   4.580  11.484  0.0562  0.6993  0.1936
 2379TIP3    H128552   3.969   4.522  11.479 -1.6579 -1.6145 -0.3885
 2379TIP3    H228553   3.925   4.655  11.535  2.9135  0.2017 -0.6450
 2380TIP3   OH228554   1.904   1.505  16.867 -0.1840 -0.1912  0.3013
 2380TIP3    H128555   1.835   1.460  16.820  1.2202 -1.0592 -1.0107
 2380TIP3    H228556   1.881   1.495  16.960 -2.6306  0.9755 -0.1006
 2381TIP3   OH228557   0.577   5.929  12.467 -0.6759  0.2289  0.2207
 2381TIP3    H128558   0.593   6.016  12.431 -3.0183  0.1006 -1.3721
 2381TIP3    H228559   0.662   5.902  12.503  0.3860  2.6872 -0.2210
 2382TIP3   OH228560   5.463   0.139  13.479  0.1473 -0.2915  0.0944
 2382TIP3    H128561   5.418   0.115  13.398  0.1711 -1.2509  0.3581
 2382TIP3    H228562   5.553   0.109  13.467  0.3471  0.2736  0.1657
 2383TIP3   OH228563   1.431   1.604   5.448 -0.4359  0.0363  0.6415
 2383TIP3    H128564   1.405   1.574   5.361 -0.0654  0.8372  0.2370
 2383TIP3    H228565   1.401   1.536   5.508 -0.8204 -0.4557 -0.1019
 2384TIP3   OH228566   5.454   1.145  14.868 -0.5891 -0.0141  0.0669
 2384TIP3    H128567   5.480   1.195  14.946 -2.3704  0.1413  0.5952
 2384TIP3    H228568   5.498   1.061  14.878 -0.2574  0.2465  0.8911
 2385TIP3   OH228569   4.350   0.505  12.458 -0.4784  0.2602  0.1812
 2385TIP3    H128570   4.281   0.571  12.449  1.8202  2.6099 -1.9867
 2385TIP3    H228571   4.315   0.428  12.414 -2.0755  1.0601 -0.0373
 2386TIP3   OH228572   5.169   1.027  11.018  0.1306 -0.5277  0.0587
 2386TIP3    H128573   5.114   1.084  10.965  1.1260  0.1829 -0.2481
 2386TIP3    H228574   5.185   0.951  10.961  1.1062  0.1820 -0.6545
 2387TIP3   OH228575   2.563   2.822  13.200  0.5538 -0.6120  0.2184
 2387TIP3    H128576   2.625   2.750  13.185 -0.4256 -2.1258  2.7493
 2387TIP3    H228577   2.485   2.797  13.150  0.9773 -0.1464 -0.6908
 2388TIP3   OH228578   4.484   5.678  13.313 -0.1645  0.2087  0.4442
 2388TIP3    H128579   4.565   5.686  13.262  0.3602  0.6073  1.3068
 2388TIP3    H228580   4.512   5.690  13.404 -1.1427 -0.0283  0.7913
 2389TIP3   OH228581   2.208   0.792   0.327  0.2864 -0.2582 -0.0231
 2389TIP3    H128582   2.126   0.785   0.376  0.4162 -1.2004  0.0837
 2389TIP3    H228583   2.251   0.870   0.363  0.3324 -0.8740  1.3179
 2390TIP3   OH228584   0.776   5.296  12.448  0.5793 -0.0677  0.6993
 2390TIP3    H128585   0.800   5.245  12.370  1.6427  1.2024  0.1579
 2390TIP3    H228586   0.690   5.333  12.428  0.3267 -0.6925  0.6180
 2391TIP3   OH228587   5.600   5.671   0.109  0.2597 -0.7352 -0.0045
 2391TIP3    H128588   5.525   5.621   0.142 -0.5971  0.1834 -0.5115
 2391TIP3    H228589   5.634   5.617   0.037  0.1615 -1.2155  0.3044
 2392TIP3   OH228590   0.607   3.814   1.681  0.0823 -0.4057  0.8874
 2392TIP3    H128591   0.668   3.741   1.672  0.4593  0.1064 -1.2300
 2392TIP3    H228592   0.613   3.861   1.598 -3.0075 -0.1632  0.6744
 2393TIP3   OH228593   4.848   4.680  14.797  0.2832 -0.1490  0.6657
 2393TIP3    H128594   4.761   4.642  14.783 -0.0517 -0.0801  2.3959
 2393TIP3    H228595   4.852   4.754  14.737  0.1698 -1.6473 -1.3114
 2394TIP3   OH228596   3.551   1.268   3.385 -0.9614  0.2140 -0.1137
 2394TIP3    H128597   3.542   1.239   3.294 -1.1297  1.1481 -0.4070
 2394TIP3    H228598   3.482   1.333   3.397 -1.0547 -0.0296  0.7437
 2395TIP3   OH228599   0.456   5.557   2.896 -0.1973 -0.3142  0.0107
 2395TIP3    H128600   0.461   5.628   2.960 -1.5601  0.2475 -0.4559
 2395TIP3    H228601   0.504   5.589   2.820  0.2585 -0.4135  0.2569
 2396TIP3   OH228602   4.932   1.699  11.427 -0.4555 -0.0584  0.2651
 2396TIP3    H128603   4.838   1.699  11.409 -0.5599 -0.9183  0.7085
 2396TIP3    H228604   4.957   1.791  11.424 -1.4585  0.2569  0.8487
 2397TIP3   OH228605   3.609   4.851   4.339  0.6794  0.1549  0.2210
 2397TIP3    H128606   3.654   4.915   4.284 -0.9308 -0.1441 -1.5397
 2397TIP3    H228607   3.555   4.801   4.278  0.9451 -2.0908  1.6957
 2398TIP3   OH228608   2.216   5.514  15.317  0.2456 -0.0363  0.0189
 2398TIP3    H128609   2.143   5.527  15.256 -0.7079 -0.1027  1.1120
 2398TIP3    H228610   2.178   5.466  15.391  1.5722 -0.7293  0.2908
 2399TIP3   OH228611   3.178   0.731  12.563  0.2690 -0.0365  0.8138
 2399TIP3    H128612   3.253   0.741  12.504  0.0126 -1.6911  0.1550
 2399TIP3    H228613   3.194   0.795  12.632  1.1620  1.1759 -0.4363
 2400TIP3   OH228614   0.306   4.133   0.208 -0.0442 -0.2097  0.1642
 2400TIP3    H128615   0.365   4.150   0.134 -1.7583  0.8554 -1.0108
 2400TIP3    H228616   0.328   4.201   0.272  1.3526 -1.0541  0.6276
 2401TIP3   OH228617   6.296   5.718   2.229  0.6509 -0.2468  0.1160
 2401TIP3    H128618   6.235   5.694   2.159  0.4637  1.4085 -0.3435
 2401TIP3    H228619   6.247   5.701   2.309 -0.4729  1.0691 -0.2457
 2402TIP3   OH228620   1.736   4.120   0.689  0.6481  0.0473 -0.1365
 2402TIP3    H128621   1.688   4.202   0.682 -0.8207 -0.6402  1.2244
 2402TIP3    H228622   1.699   4.064   0.620  1.1763  0.2910 -0.6248
 2403TIP3   OH228623   5.165   5.976   4.072 -0.1091  0.3982 -0.1085
 2403TIP3    H128624   5.110   5.915   4.023  0.4454 -0.4015  0.2495
 2403TIP3    H228625   5.165   5.941   4.161 -0.1619  1.1880  0.2153
 2404TIP3   OH228626   0.831   0.448  11.706  0.4956 -0.0650 -0.2399
 2404TIP3    H128627   0.817   0.418  11.796 -1.7340  0.1983 -0.4465
 2404TIP3    H228628   0.926   0.456  11.698  0.9941 -3.1130  1.1054
 2405TIP3   OH228629   4.554   5.649  11.673  0.4694 -0.0709  0.6983
 2405TIP3    H128630   4.609   5.727  11.684  1.3780 -0.6632  0.4076
 2405TIP3    H228631   4.551   5.610  11.760  0.3189  0.0721  0.7600
 2406TIP3   OH228632   5.752   1.433  14.694 -0.0407  0.3476  0.0606
 2406TIP3    H128633   5.760   1.463  14.784  1.4986 -0.8564  0.3655
 2406TIP3    H228634   5.764   1.512  14.641  1.1040  0.7467  0.8847
 2407TIP3   OH228635   6.630   1.594  15.650 -0.5056 -0.1378 -0.4943
 2407TIP3    H128636   6.687   1.635  15.585 -0.3576 -0.2779 -0.4525
 2407TIP3    H228637   6.627   1.657  15.722 -1.6425  0.5815 -1.1325
 2408TIP3   OH228638   0.738   5.731  15.498 -0.4083 -0.2491  0.1267
 2408TIP3    H128639   0.823   5.688  15.487 -0.4982 -0.1157 -1.3261
 2408TIP3    H228640   0.730   5.787  15.421 -1.4549  0.3762  0.6684
 2409TIP3   OH228641   3.838   2.538  12.478 -0.0791  0.1538 -0.0308
 2409TIP3    H128642   3.764   2.566  12.532 -1.3538  0.3402 -1.7919
 2409TIP3    H228643   3.883   2.620  12.455 -1.4779  0.4504 -1.9070
 2410TIP3   OH228644   3.978   2.532   4.654  0.4634 -0.2770 -0.0987
 2410TIP3    H128645   3.946   2.488   4.732 -0.1139 -0.4016 -0.4049
 2410TIP3    H228646   4.056   2.483   4.629  0.0358 -0.9046 -0.2249
 2411TIP3   OH228647   3.310   3.037   4.606 -0.0700  0.0234 -0.0061
 2411TIP3    H128648   3.386   3.001   4.559 -0.9444 -1.9596  0.0006
 2411TIP3    H228649   3.256   3.077   4.537  0.0294 -0.3257 -0.2877
 2412TIP3   OH228650   3.647   2.345   2.354  0.3928 -0.3934  0.1861
 2412TIP3    H128651   3.739   2.365   2.334  0.6849 -2.2191 -0.4803
 2412TIP3    H228652   3.599   2.372   2.276  0.3980  0.1854  0.3757
 2413TIP3   OH228653   5.002   2.884   5.692  0.3460  0.3662 -0.3520
 2413TIP3    H128654   5.084   2.837   5.680  0.6435  1.0970 -1.2881
 2413TIP3    H228655   4.994   2.938   5.614 -0.8807  0.5290 -0.1317
 2414TIP3   OH228656   2.279   0.739  13.588 -0.1490  0.4980 -0.2902
 2414TIP3    H128657   2.337   0.700  13.654 -1.6640 -0.3372  0.6025
 2414TIP3    H228658   2.251   0.822  13.628 -0.3059  0.4568 -0.3161
 2415TIP3   OH228659   0.475   0.336   0.908 -0.3430 -0.3896  0.0290
 2415TIP3    H128660   0.380   0.332   0.924 -0.8208  3.5888 -0.6085
 2415TIP3    H228661   0.483   0.343   0.813  0.5804 -0.6058  0.0819
 2416TIP3   OH228662   2.899   1.090  16.076 -0.4751  0.0372  0.0304
 2416TIP3    H128663   2.868   1.169  16.120 -0.1871 -0.8284  1.8889
 2416TIP3    H228664   2.969   1.056  16.132 -0.1718 -1.2161 -1.0349
 2417TIP3   OH228665   0.902   6.047  15.082 -0.1251 -0.3338 -0.9465
 2417TIP3    H128666   0.978   6.097  15.113  1.3286 -3.0142  0.1372
 2417TIP3    H228667   0.864   6.102  15.014  1.4315  2.1369  0.0345
 2418TIP3   OH228668   2.012   2.220   2.307  0.1515  0.3547  0.1998
 2418TIP3    H128669   2.070   2.286   2.268 -0.8781  0.9115 -0.4211
 2418TIP3    H228670   2.020   2.144   2.248 -0.6112  0.8311 -0.5295
 2419TIP3   OH228671   3.769   6.132   6.272  0.3501  0.0517  0.2749
 2419TIP3    H128672   3.843   6.124   6.332  0.5611 -0.2895 -0.0279
 2419TIP3    H228673   3.777   6.056   6.214  0.0568  0.2931 -0.0840
 2420TIP3   OH228674   1.593   5.135   6.175 -0.0175 -0.3396  0.2567
 2420TIP3    H128675   1.679   5.178   6.179  0.3272 -0.5676 -2.3723
 2420TIP3    H228676   1.533   5.205   6.149  0.1083 -0.8664 -1.6189
 2421TIP3   OH228677   5.541   1.861   1.196  0.3257 -0.5452 -0.1460
 2421TIP3    H128678   5.547   1.927   1.264 -1.2085 -1.7233  1.2045
 2421TIP3    H228679   5.454   1.871   1.159  0.6257 -0.8433 -0.9500
 2422TIP3   OH228680   0.980   3.160   3.118 -0.4134  0.5272  0.0666
 2422TIP3    H128681   0.947   3.120   3.198  0.5801 -1.6444 -0.5293
 2422TIP3    H228682   1.066   3.196   3.142 -0.5621  0.7958  0.2010
 2423TIP3   OH228683   2.382   1.790  17.176 -0.1241 -0.4233 -0.2278
 2423TIP3    H128684   2.461   1.841  17.160 -0.8007  1.0251  0.8387
 2423TIP3    H228685   2.408   1.725  17.241  0.0782  0.4431  0.5893
 2424TIP3   OH228686   0.297   5.691  15.456 -0.1554 -0.0473  0.3667
 2424TIP3    H128687   0.292   5.696  15.552 -1.8925 -1.2559  0.3741
 2424TIP3    H228688   0.344   5.771  15.431 -0.0818  0.5307  2.1801
 2425TIP3   OH228689   2.136   0.009   4.755 -0.2574 -0.3763 -0.0339
 2425TIP3    H128690   2.076   0.067   4.709  0.7892 -0.5962 -1.7815
 2425TIP3    H228691   2.093  -0.010   4.838 -1.9377  0.5736 -0.6452
 2426TIP3   OH228692   1.572   6.487   5.378 -0.0504 -0.5995 -0.4107
 2426TIP3    H128693   1.656   6.452   5.346  0.4832 -1.5616  1.8805
 2426TIP3    H228694   1.584   6.494   5.473 -1.5049  2.2124 -0.3365
 2427TIP3   OH228695   6.108   4.356   2.188  0.3786  0.3235  0.3446
 2427TIP3    H128696   6.123   4.358   2.094 -0.3824  2.0899  0.2214
 2427TIP3    H228697   6.013   4.352   2.197  0.4907 -1.3693  1.0646
 2428TIP3   OH228698   4.614   0.427   5.887  0.2426  0.6440 -0.1468
 2428TIP3    H128699   4.618   0.487   5.812  0.3065  1.0148  0.1478
 2428TIP3    H228700   4.705   0.414   5.912  0.3340 -0.6849 -1.0636
 2429TIP3   OH228701   0.415   1.492   1.876 -0.0108  0.3659  0.3438
 2429TIP3    H128702   0.330   1.511   1.915  0.1355  0.4536  0.6170
 2429TIP3    H228703   0.424   1.397   1.881 -0.6883  0.2040 -0.9104
 2430TIP3   OH228704   4.275   5.885  15.918 -0.4577  0.0619 -0.3724
 2430TIP3    H128705   4.368   5.875  15.940 -0.5944  0.4569  0.4428
 2430TIP3    H228706   4.264   5.979  15.906 -0.6972 -0.0127 -0.7182
 2431TIP3   OH228707   6.168   2.092  13.155 -0.4012  0.5780  0.2027
 2431TIP3    H128708   6.105   2.162  13.171 -0.5233  0.2024  1.4795
 2431TIP3    H228709   6.171   2.043  13.237  1.4413  0.4951  0.1367
 2432TIP3   OH228710   1.374   2.975   4.648 -0.0317  0.2849 -0.3584
 2432TIP3    H128711   1.431   2.925   4.706  0.3464  1.5167  0.3818
 2432TIP3    H228712   1.424   3.055   4.629 -2.1343  2.2411  1.7138
 2433TIP3   OH228713   6.135   5.670   2.895  0.1022  0.3682  0.3341
 2433TIP3    H128714   6.220   5.632   2.919 -0.4503 -1.7114 -0.7445
 2433TIP3    H228715   6.079   5.652   2.971 -0.9401 -3.8699 -1.1604
 2434TIP3   OH228716   0.150   2.045  16.883 -1.0265  0.0616 -0.8909
 2434TIP3    H128717   0.166   2.064  16.976 -1.1352 -0.9555 -0.6453
 2434TIP3    H228718   0.176   1.953  16.874  1.0361  0.7065 -2.3643
 2435TIP3   OH228719   5.487   2.456   0.861 -0.2284 -1.2137  0.1550
 2435TIP3    H128720   5.419   2.483   0.800 -0.4252  3.9211  2.1425
 2435TIP3    H228721   5.569   2.464   0.812 -0.6065 -0.7663 -0.4061
 2436TIP3   OH228722   0.589   3.956  13.814 -0.5100 -0.2465 -0.3523
 2436TIP3    H128723   0.667   3.946  13.759 -0.0064 -2.6274  0.6478
 2436TIP3    H228724   0.575   4.050  13.818  2.4666  0.3183 -0.4218
 2437TIP3   OH228725   4.220   1.229   1.117 -0.0530  0.1576  0.3601
 2437TIP3    H128726   4.219   1.269   1.030  1.3107  0.1562  0.3221
 2437TIP3    H228727   4.259   1.142   1.103  2.1542  0.9263  1.2238
 2438TIP3   OH228728   3.510   4.891  11.588 -0.2745 -0.0716 -0.6826
 2438TIP3    H128729   3.599   4.915  11.610 -0.7933  0.5565  0.8468
 2438TIP3    H228730   3.518   4.807  11.541  1.1561  0.4832 -1.4824
 2439TIP3   OH228731   1.159   3.361   1.454 -0.0812  0.4235 -0.3477
 2439TIP3    H128732   1.189   3.344   1.543  0.1073 -3.0977 -0.9145
 2439TIP3    H228733   1.235   3.401   1.411  0.6661 -0.0586  0.4798
 2440TIP3   OH228734   5.728   1.438   2.018  0.3420 -0.2923  0.6550
 2440TIP3    H128735   5.757   1.375   1.951 -1.1959 -0.2645 -0.0872
 2440TIP3    H228736   5.740   1.392   2.101 -0.5707 -1.5159  0.1375
 2441TIP3   OH228737   3.180   3.443   2.809 -0.5305  0.1237 -0.3238
 2441TIP3    H128738   3.225   3.516   2.850 -2.2867  1.7002 -1.0459
 2441TIP3    H228739   3.245   3.373   2.804  2.1764  2.5783 -2.3035
 2442TIP3   OH228740   0.173   0.699  16.434  0.2644 -0.1037 -0.1260
 2442TIP3    H128741   0.108   0.720  16.367  0.3925 -1.6537 -0.7803
 2442TIP3    H228742   0.252   0.745  16.406 -0.3909  1.4613  0.4540
 2443TIP3   OH228743   1.443   3.890   1.311  0.4344 -0.1500 -0.7756
 2443TIP3    H128744   1.501   3.815   1.321 -0.4771 -0.7798 -0.0341
 2443TIP3    H228745   1.482   3.958   1.365 -0.7782 -1.3614  1.7969
 2444TIP3   OH228746   3.686   6.032   0.779 -0.0186  0.3589  0.9826
 2444TIP3    H128747   3.638   6.114   0.770  0.5847  0.6245 -0.0040
 2444TIP3    H228748   3.641   5.970   0.721  0.3519  0.3928  0.6502
 2445TIP3   OH228749   6.094   5.598   4.902  0.0316  0.0222 -0.0089
 2445TIP3    H128750   6.088   5.689   4.871  1.9040 -0.2172 -1.2351
 2445TIP3    H228751   6.024   5.552   4.856 -0.6851  0.7447  0.3277
 2446TIP3   OH228752   3.087   1.256  15.957 -0.5487  0.1835 -0.1137
 2446TIP3    H128753   3.023   1.322  15.983 -0.9769  0.4303 -1.6506
 2446TIP3    H228754   3.059   1.176  16.000 -1.6968  0.3762 -0.4762
 2447TIP3   OH228755   4.640   0.210   4.446 -0.5721 -1.1438 -0.1267
 2447TIP3    H128756   4.652   0.133   4.502  0.1197  0.1023  1.5142
 2447TIP3    H228757   4.699   0.276   4.482 -0.6048 -0.0603 -1.9442
 2448TIP3   OH228758   1.343   3.241  16.280  0.2645 -0.0731  0.3891
 2448TIP3    H128759   1.284   3.176  16.241 -0.7608  1.9007 -1.6262
 2448TIP3    H228760   1.408   3.258  16.211 -1.6984  3.6617 -0.8207
 2449TIP3   OH228761   5.607   0.519  10.911 -0.4383  0.8050 -0.5684
 2449TIP3    H128762   5.551   0.472  10.973  1.5787 -0.2280  0.5765
 2449TIP3    H228763   5.552   0.590  10.879 -2.8904 -0.9880 -0.6648
 2450TIP3   OH228764   4.092   0.931  11.965  0.0325  0.6288 -0.6543
 2450TIP3    H128765   4.160   0.902  12.026  0.0757  0.9467 -0.5500
 2450TIP3    H228766   4.058   0.850  11.927 -1.4054  0.2509  1.2986
 2451TIP3   OH228767   5.586   5.800   4.327 -0.1123 -0.5445 -0.0354
 2451TIP3    H128768   5.529   5.725   4.308 -0.1714 -0.8194  1.1694
 2451TIP3    H228769   5.653   5.796   4.259 -0.8927 -0.8711 -0.8131
 2452TIP3   OH228770   6.014   4.357   5.137 -0.9131 -0.6165  0.1678
 2452TIP3    H128771   6.096   4.380   5.093 -0.8163 -0.6462  0.3301
 2452TIP3    H228772   6.031   4.270   5.174 -0.6340 -0.1482  1.1584
 2453TIP3   OH228773   2.503   4.253   4.837 -0.0705  0.5053  0.0852
 2453TIP3    H128774   2.426   4.290   4.792  0.2596  2.3223  0.9210
 2453TIP3    H228775   2.474   4.168   4.868 -0.3424 -0.8785 -3.4444
 2454TIP3   OH228776   5.089   5.471   1.813  0.3474 -0.3793 -0.1522
 2454TIP3    H128777   5.064   5.548   1.761 -1.2502 -1.3110 -0.8422
 2454TIP3    H228778   5.180   5.454   1.788  0.0076 -0.0591 -1.7265
 2455TIP3   OH228779   4.791   3.273  12.526  0.3428 -0.2883 -0.7908
 2455TIP3    H128780   4.788   3.178  12.521 -0.8280 -0.3182  0.2395
 2455TIP3    H228781   4.776   3.302  12.436  0.8870 -1.0632 -1.1423
 2456TIP3   OH228782   4.990   4.820   4.906  0.2406  0.4063 -0.3064
 2456TIP3    H128783   4.907   4.780   4.880 -0.5096  2.5740 -1.4699
 2456TIP3    H228784   4.965   4.906   4.940  1.7569 -0.0742  2.2951
 2457TIP3   OH228785   1.841   5.137  14.051 -0.2145  0.2095 -0.2091
 2457TIP3    H128786   1.855   5.197  14.125 -1.2833  0.2806 -0.0432
 2457TIP3    H228787   1.747   5.119  14.053 -0.0607 -0.7223 -0.8467
 2458TIP3   OH228788   2.874   6.733   2.364  0.0239 -0.5487 -0.5738
 2458TIP3    H128789   2.817   6.659   2.345  0.3211 -0.1175 -3.6008
 2458TIP3    H228790   2.953   6.717   2.312  1.1357  0.7143  0.6296
 2459TIP3   OH228791   3.936   6.673   2.942 -0.5416  0.5548 -0.1330
 2459TIP3    H128792   3.876   6.601   2.957  0.8420 -0.9629 -1.4443
 2459TIP3    H228793   3.942   6.679   2.846  0.9815  0.9740 -0.0375
 2460TIP3   OH228794   4.066   1.665  13.622 -0.0053  0.6937 -0.4148
 2460TIP3    H128795   4.096   1.576  13.639  1.6364  1.2007 -0.4912
 2460TIP3    H228796   4.126   1.721  13.672 -2.3639  1.7168  1.4840
 2461TIP3   OH228797   0.863   0.541   5.443  0.1766  0.2593  0.1830
 2461TIP3    H128798   0.788   0.550   5.502 -0.1049  1.3682 -0.3334
 2461TIP3    H228799   0.832   0.575   5.359  1.2947  0.8781  0.0050
 2462TIP3   OH228800   3.304   5.350  16.412  0.5561  0.4290  0.1913
 2462TIP3    H128801   3.329   5.429  16.460  1.4602  1.7456 -2.2748
 2462TIP3    H228802   3.323   5.370  16.321 -1.3362 -1.8300 -0.8124
 2463TIP3   OH228803   4.252   4.081   2.033 -0.4016  0.7154 -0.5653
 2463TIP3    H128804   4.295   4.115   1.954 -1.5799  1.7585 -0.7819
 2463TIP3    H228805   4.186   4.020   2.000 -0.9393  1.2001 -0.4082
 2464TIP3   OH228806   5.491   3.532  13.736 -0.1517 -0.6771  0.0534
 2464TIP3    H128807   5.526   3.604  13.788 -1.1981  0.8973 -1.3313
 2464TIP3    H228808   5.418   3.498  13.787 -2.8667  2.5414 -1.3190
 2465TIP3   OH228809   5.398   1.651  15.726  0.0638 -0.6409 -0.1049
 2465TIP3    H128810   5.346   1.691  15.656  0.7264  1.5463  0.6027
 2465TIP3    H228811   5.486   1.687  15.714  0.4918 -1.2539  1.0836
 2466TIP3   OH228812   4.164   6.105   1.876 -0.2101 -0.0136  0.3462
 2466TIP3    H128813   4.244   6.077   1.830  1.5818  3.7902  0.7839
 2466TIP3    H228814   4.096   6.102   1.809  1.4751  1.4953 -1.5773
 2467TIP3   OH228815   2.285   3.669   6.043  0.2078  0.1729  0.3007
 2467TIP3    H128816   2.192   3.671   6.064 -0.1805  0.7559 -1.3247
 2467TIP3    H228817   2.291   3.616   5.964  0.8853  2.2433 -1.1164
 2468TIP3   OH228818   5.879   3.728  17.152  0.0128 -0.2904 -0.1902
 2468TIP3    H128819   5.829   3.651  17.123  0.7381 -0.8795  0.0901
 2468TIP3    H228820   5.933   3.750  17.076 -0.0518 -0.1732 -0.2031
 2469TIP3   OH228821   3.105   4.371  15.585 -1.3170  0.2181  0.3686
 2469TIP3    H128822   3.102   4.454  15.538 -1.6160  0.1847  0.3215
 2469TIP3    H228823   3.121   4.305  15.517  1.2107  0.4303  0.6722
 2470TIP3   OH228824   3.689   0.320   2.138 -0.2923 -0.5401 -0.7935
 2470TIP3    H128825   3.644   0.236   2.139 -1.6674  0.1183  1.4975
 2470TIP3    H228826   3.782   0.298   2.142 -0.6493 -2.0031  0.6129
 2471TIP3   OH228827   5.582   3.922  12.498  0.5145 -0.4891  0.3203
 2471TIP3    H128828   5.495   3.882  12.509 -0.9196  1.9882 -1.0701
 2471TIP3    H228829   5.603   3.958  12.584  0.0675 -0.9087  0.6090
 2472TIP3   OH228830   4.887   4.247   5.336 -0.1148 -0.0141  0.3977
 2472TIP3    H128831   4.967   4.222   5.290 -1.4446  0.5644 -2.4064
 2472TIP3    H228832   4.854   4.165   5.373  1.5112 -0.3255  1.2567
 2473TIP3   OH228833   4.351   5.722  15.433  0.1904  0.1452 -0.0840
 2473TIP3    H128834   4.390   5.637  15.456  1.3818  0.4179 -1.0146
 2473TIP3    H228835   4.394   5.747  15.351 -0.4462  1.4625 -0.0410
 2474TIP3   OH228836   5.446   5.816  12.648  0.1066  0.2485  0.1316
 2474TIP3    H128837   5.360   5.816  12.605 -0.0768 -0.1670  0.4793
 2474TIP3    H228838   5.505   5.855  12.584 -0.2870  0.2604 -0.2325
 2475TIP3   OH228839   3.981   4.422  15.198  0.0500 -0.1062  0.5039
 2475TIP3    H128840   3.960   4.379  15.115  1.2029  2.8765 -1.5273
 2475TIP3    H228841   4.077   4.428  15.198  0.0756 -0.0020  2.0760
 2476TIP3   OH228842   0.366   3.041   3.033 -0.6955 -0.5349 -0.1009
 2476TIP3    H128843   0.354   3.099   3.108  0.7621 -1.2857  0.7627
 2476TIP3    H228844   0.449   3.069   2.993 -0.5530 -1.2797 -0.3518
 2477TIP3   OH228845   4.665   6.122   2.327 -0.3874 -0.6602  0.5615
 2477TIP3    H128846   4.707   6.176   2.395 -1.3475  0.4266  0.3220
 2477TIP3    H228847   4.703   6.153   2.245  0.2623 -1.5007  0.5290
 2478TIP3   OH228848   1.381   4.340  11.830 -0.7156  0.6176  0.2106
 2478TIP3    H128849   1.417   4.285  11.760  0.2794  0.6600  0.6723
 2478TIP3    H228850   1.438   4.417  11.832 -1.9108  1.5528 -0.2290
 2479TIP3   OH228851   2.812   3.206  13.865  0.2906  0.0446 -0.3838
 2479TIP3    H128852   2.879   3.217  13.933 -0.0630 -0.9263  0.1431
 2479TIP3    H228853   2.850   3.247  13.787  0.7704  1.0443  0.3474
 2480TIP3   OH228854   3.906   6.211   3.126  0.1630  0.0364  0.2534
 2480TIP3    H128855   3.957   6.133   3.105 -1.8175 -0.9408 -1.3552
 2480TIP3    H228856   3.926   6.230   3.218  1.9044 -1.3921  0.2073
 2481TIP3   OH228857   3.905   1.676  13.412 -0.6945  0.1685 -0.4988
 2481TIP3    H128858   3.962   1.647  13.483  0.9337 -0.1310 -1.8562
 2481TIP3    H228859   3.963   1.685  13.337 -2.0866  1.9054 -1.4520
 2482TIP3   OH228860   1.422   5.827   1.079 -0.1718 -0.0238  0.0869
 2482TIP3    H128861   1.380   5.824   1.164 -0.1620 -1.4846  0.0659
 2482TIP3    H228862   1.477   5.905   1.082 -0.3944  0.1005  1.3083
 2483TIP3   OH228863   5.851   0.960  14.129 -0.1960  0.4131 -0.1663
 2483TIP3    H128864   5.879   0.872  14.155  0.8611  0.6181 -0.5454
 2483TIP3    H228865   5.760   0.966  14.156 -0.2413 -0.7595 -0.0254
 2484TIP3   OH228866   4.184   1.418   4.772 -0.9325  0.3597  0.3581
 2484TIP3    H128867   4.180   1.482   4.843  1.3726 -1.7998  2.6313
 2484TIP3    H228868   4.143   1.340   4.808 -0.4841 -0.5472 -1.0231
 2485TIP3   OH228869   3.165   4.707  15.974  0.7440  0.8855 -0.1243
 2485TIP3    H128870   3.151   4.619  16.010 -0.2709  1.2955  0.5379
 2485TIP3    H228871   3.082   4.727  15.929  1.7816  0.5962 -2.2945
 2486TIP3   OH228872   1.651   1.156  16.416  0.3026 -0.1725  0.2423
 2486TIP3    H128873   1.666   1.183  16.325 -0.1535 -1.2195 -0.1684
 2486TIP3    H228874   1.732   1.177  16.462 -0.0123  1.8100 -0.0422
 2487TIP3   OH228875   6.695   3.482   4.309  0.3213  0.7445  0.6397
 2487TIP3    H128876   6.691   3.528   4.393 -1.6851  0.7646  0.5798
 2487TIP3    H228877   6.701   3.551   4.243  0.0446  0.8037  0.6775
 2488TIP3   OH228878   0.291   1.933   1.940 -0.0207 -0.0398 -0.0323
 2488TIP3    H128879   0.250   2.014   1.911 -0.2688  0.1712  0.9052
 2488TIP3    H228880   0.265   1.923   2.031 -0.0472 -1.2102 -0.1489
 2489TIP3   OH228881   6.259   4.901   6.433 -0.1854 -0.4552  0.0820
 2489TIP3    H128882   6.193   4.884   6.500 -1.1186 -1.7656 -1.0879
 2489TIP3    H228883   6.277   4.995   6.439 -2.7223  0.0936 -0.0453
 2490TIP3   OH228884   4.848   0.640   1.610  0.1087 -0.1426  0.0905
 2490TIP3    H128885   4.833   0.546   1.608 -0.6309 -0.0299 -0.0437
 2490TIP3    H228886   4.768   0.676   1.648 -0.9665  0.6753 -2.7072
 2491TIP3   OH228887   3.263   2.492  11.701 -0.3531 -0.4708  0.0676
 2491TIP3    H128888   3.242   2.414  11.752 -2.9448 -0.3053 -0.6254
 2491TIP3    H228889   3.254   2.464  11.609  0.9367  0.0943 -0.2591
 2492TIP3   OH228890   2.983   2.511  14.523  0.2321  0.0069 -0.2038
 2492TIP3    H128891   2.930   2.590  14.523  0.2114 -0.0009 -1.4473
 2492TIP3    H228892   3.044   2.524  14.596  1.2413  1.8750 -1.3031
 2493TIP3   OH228893   4.718   2.547   4.154 -0.3995  0.0799  0.0237
 2493TIP3    H128894   4.625   2.571   4.158  0.0324  1.9786 -0.6662
 2493TIP3    H228895   4.754   2.575   4.238 -0.7716 -2.3829  1.0944
 2494TIP3   OH228896   0.569   4.766   0.671 -0.8212 -0.5102 -0.0710
 2494TIP3    H128897   0.620   4.834   0.627  0.4855 -1.3547  0.1145
 2494TIP3    H228898   0.629   4.693   0.682 -2.3327 -1.9477 -0.7746
 2495TIP3   OH228899   1.191   1.375  14.979  0.2564 -0.0979  0.3631
 2495TIP3    H128900   1.237   1.297  14.948 -0.5239 -1.0510  1.5085
 2495TIP3    H228901   1.206   1.376  15.073 -1.4933 -0.0798  0.6756
 2496TIP3   OH228902   2.210   1.093  12.895 -0.1061 -0.1069 -0.2328
 2496TIP3    H128903   2.234   1.117  12.806  0.9036 -1.1259 -0.2638
 2496TIP3    H228904   2.260   1.153  12.950  1.1553 -1.0129 -0.3360
 2497TIP3   OH228905   1.261   1.404   2.660 -0.3790  0.2520 -0.4909
 2497TIP3    H128906   1.206   1.430   2.734 -0.4477  3.1360 -1.4241
 2497TIP3    H228907   1.208   1.425   2.583  0.0193 -1.9064 -1.4139
 2498TIP3   OH228908   4.674   1.417  15.108  0.0194  0.3599  0.5856
 2498TIP3    H128909   4.580   1.405  15.111  0.0359  0.2617  0.7052
 2498TIP3    H228910   4.692   1.450  15.020  0.1959 -2.3168 -0.4742
 2499TIP3   OH228911   4.058   2.619   6.170 -0.2336 -0.2346 -0.4376
 2499TIP3    H128912   4.056   2.714   6.185 -1.8567 -0.1132 -1.1963
 2499TIP3    H228913   4.104   2.609   6.086  0.2300 -0.1619 -0.1977
 2500TIP3   OH228914   0.915   1.557  15.822  0.2473 -0.2291 -0.8437
 2500TIP3    H128915   0.988   1.550  15.760  1.1348  0.1314  0.1430
 2500TIP3    H228916   0.869   1.636  15.796 -0.4575 -1.0223 -2.1408
 2501TIP3   OH228917   5.195   0.812  12.877  0.3882  0.0524 -1.0723
 2501TIP3    H128918   5.135   0.741  12.858  1.1438 -1.0280  0.3670
 2501TIP3    H228919   5.279   0.784  12.841  0.4880  0.6443 -1.3183
 2502TIP3   OH228920   0.210   4.638   5.299 -0.6703 -0.3282  0.1084
 2502TIP3    H128921   0.259   4.675   5.372 -0.5202 -1.0364  0.3788
 2502TIP3    H228922   0.140   4.586   5.340  0.1701 -1.7590 -0.1907
 2503TIP3   OH228923   0.849   2.078  16.312 -0.3688  0.0032  0.1905
 2503TIP3    H128924   0.933   2.035  16.295 -1.0771 -0.9715 -1.0298
 2503TIP3    H228925   0.832   2.130  16.233 -1.9697 -1.6482 -0.6379
 2504TIP3   OH228926   5.949   4.646   5.893  0.0394 -0.4793 -0.2388
 2504TIP3    H128927   5.864   4.638   5.936 -0.7728  1.5688 -1.3064
 2504TIP3    H228928   5.941   4.593   5.814 -0.1807 -0.4387 -0.2459
 2505TIP3   OH228929   6.483   4.726   4.693 -0.2448  0.3067  0.0313
 2505TIP3    H128930   6.561   4.776   4.667  0.1734  0.7435  1.9729
 2505TIP3    H228931   6.489   4.645   4.643  0.2094  1.2821 -1.5745
 2506TIP3   OH228932   5.184   5.929  16.737 -0.1655 -0.1519  0.2038
 2506TIP3    H128933   5.175   6.010  16.788  1.0408  0.5578 -0.6325
 2506TIP3    H228934   5.206   5.863  16.802  1.5640  0.7800  0.6396
 2507TIP3   OH228935   4.755   4.476   0.474 -0.4478 -0.5021 -0.9942
 2507TIP3    H128936   4.834   4.427   0.494  0.8913  2.0776  0.4445
 2507TIP3    H228937   4.760   4.492   0.379  0.3416 -1.0020 -1.0474
 2508TIP3   OH228938   6.507   1.549  10.534  0.4304 -0.0304 -0.5709
 2508TIP3    H128939   6.529   1.588  10.450  0.9435 -0.8907 -0.8365
 2508TIP3    H228940   6.554   1.466  10.536  0.5662  0.0561  0.6390
 2509TIP3   OH228941   6.198   3.590   2.706  0.2516 -0.1067 -0.3884
 2509TIP3    H128942   6.156   3.536   2.639 -2.3311  0.4037  0.7172
 2509TIP3    H228943   6.241   3.660   2.658 -1.1586 -0.0020 -1.5368
 2510TIP3   OH228944   5.274   1.349  15.984  0.6087 -0.1075  0.0885
 2510TIP3    H128945   5.297   1.309  16.068  2.3855  0.7987  0.0713
 2510TIP3    H228946   5.235   1.433  16.006 -0.8682 -0.7509  0.0416
 2511TIP3   OH228947   2.595   2.133  16.799 -0.4255  0.2578  0.7136
 2511TIP3    H128948   2.631   2.190  16.867  0.7932 -0.0589  0.3641
 2511TIP3    H228949   2.656   2.060  16.794 -1.3225 -0.4919  0.3239
 2512TIP3   OH228950   1.560   1.319   1.786  0.1190 -0.4273 -0.0985
 2512TIP3    H128951   1.543   1.268   1.865 -1.4354 -0.4774 -0.4381
 2512TIP3    H228952   1.562   1.410   1.816  0.1818 -0.4916  0.0916
 2513TIP3   OH228953   0.475   3.376   1.867  0.5823  0.4025  0.3964
 2513TIP3    H128954   0.383   3.368   1.842  0.0476 -1.8054  2.5881
 2513TIP3    H228955   0.484   3.466   1.897 -0.7984  0.7194 -0.0356
 2514TIP3   OH228956   4.441   4.852  13.943  0.5223 -0.0886 -0.2993
 2514TIP3    H128957   4.527   4.810  13.947 -0.5681 -2.4482  0.0072
 2514TIP3    H228958   4.393   4.815  14.017 -1.1767  0.1768 -1.2255
 2515TIP3   OH228959   0.477   1.115   5.681  0.3473  0.1849 -0.0804
 2515TIP3    H128960   0.511   1.116   5.771 -1.6345  5.0816  0.9153
 2515TIP3    H228961   0.383   1.106   5.691 -0.0490  2.1669 -1.4532
 2516TIP3   OH228962   3.803   4.771  16.443  0.6261 -0.1229 -0.0703
 2516TIP3    H128963   3.812   4.793  16.350  0.4666  0.5115  0.0565
 2516TIP3    H228964   3.720   4.724  16.449 -0.1219  1.1704 -0.0300
 2517TIP3   OH228965   5.940   2.037   6.531 -0.2411  0.0117 -0.1926
 2517TIP3    H128966   5.966   2.027   6.623  1.4369 -0.9420 -0.7307
 2517TIP3    H228967   5.846   2.059   6.535 -0.2774 -0.3057  1.7203
 2518TIP3   OH228968   4.553   4.154  14.885 -0.1610  0.5153  0.2376
 2518TIP3    H128969   4.558   4.065  14.920  0.6024  0.4915  0.0752
 2518TIP3    H228970   4.459   4.175  14.889 -0.5979 -0.9070 -1.2434
 2519TIP3   OH228971   6.741   5.152  17.202 -0.8223  0.3770  0.0903
 2519TIP3    H128972   6.794   5.162  17.281 -1.4290  0.3371  0.5056
 2519TIP3    H228973   6.724   5.058  17.196 -0.6265  0.3570 -0.1918
 2520TIP3   OH228974   5.423   2.113   4.605  0.0679  0.1256  0.3314
 2520TIP3    H128975   5.415   2.039   4.545 -1.4195 -0.5079  1.2488
 2520TIP3    H228976   5.358   2.176   4.574 -1.0627 -0.4111  1.4952
 2521TIP3   OH228977   5.408   3.079  15.736  0.0808  0.1482 -0.0770
 2521TIP3    H128978   5.385   3.071  15.644  2.0618  1.3705 -0.7544
 2521TIP3    H228979   5.476   3.147  15.738  1.2190 -0.9276  2.0674
 2522TIP3   OH228980   0.074   5.729   4.506  0.2695 -0.0285 -0.0557
 2522TIP3    H128981   0.097   5.738   4.413  0.2661 -3.4269 -0.4951
 2522TIP3    H228982  -0.015   5.695   4.505  0.6186 -1.0211  1.1618
 2523TIP3   OH228983   6.555   5.696   4.512 -0.0353 -0.0792  0.4549
 2523TIP3    H128984   6.497   5.655   4.576 -4.2293  2.3964 -1.3077
 2523TIP3    H228985   6.519   5.785   4.502  2.5553  0.7900 -2.7714
 2524TIP3   OH228986   2.045   3.642   4.098  0.2202 -0.1489 -0.0931
 2524TIP3    H128987   2.129   3.613   4.063  0.4029  0.2079  0.0527
 2524TIP3    H228988   1.982   3.623   4.028  0.5269  0.2162 -0.4732
 2525TIP3   OH228989   1.714   0.842  16.191 -0.1761  0.9386 -0.5185
 2525TIP3    H128990   1.777   0.802  16.251  1.4325  2.5365 -1.0733
 2525TIP3    H228991   1.629   0.827  16.233  0.6103 -0.5497  0.6631
 2526TIP3   OH228992   4.109   5.919   1.106  0.3199  0.1367 -0.1129
 2526TIP3    H128993   4.149   5.899   1.021 -0.7947 -0.8056 -0.4369
 2526TIP3    H228994   4.059   5.999   1.090  1.8560  1.2179  0.2484
 2527TIP3   OH228995   1.510   0.684   6.303 -0.3114 -0.3321 -0.3599
 2527TIP3    H128996   1.589   0.737   6.318  1.1440 -1.9147 -1.8560
 2527TIP3    H228997   1.506   0.675   6.208 -2.9247  0.4989 -0.4043
 2528TIP3   OH228998   1.571   2.996   4.259  0.3938 -0.2471 -0.1835
 2528TIP3    H128999   1.538   2.942   4.330  1.7933  1.0973  1.5654
 2528TIP3    H229000   1.648   3.040   4.295  0.1283  1.8568 -1.9434
 2529TIP3   OH229001   6.267   2.800   6.684  0.8789 -0.2378  0.4378
 2529TIP3    H129002   6.187   2.838   6.648  0.6475  0.7087  1.8745
 2529TIP3    H229003   6.291   2.731   6.621 -0.9965 -0.4881 -0.0694
 2530TIP3   OH229004   5.137   2.555   4.086 -0.5426 -0.7484  0.3259
 2530TIP3    H129005   5.105   2.629   4.033 -0.3278 -0.8188  0.0953
 2530TIP3    H229006   5.130   2.479   4.028 -2.1293 -1.1839  1.0330
 2531TIP3   OH229007   0.272   1.455  11.209 -0.2524 -0.4544  0.8401
 2531TIP3    H129008   0.317   1.370  11.207 -0.5698 -0.6843 -2.5924
 2531TIP3    H229009   0.340   1.519  11.189 -0.6657 -0.3400 -0.2515
 2532TIP3   OH229010   6.349   2.266   5.200 -0.7724 -0.0520 -0.4182
 2532TIP3    H129011   6.315   2.305   5.120  1.1773 -2.7320 -2.7496
 2532TIP3    H229012   6.317   2.175   5.198  0.0806 -0.4358  1.3781
 2533TIP3   OH229013   0.381   1.475  12.627  0.2598  1.1966 -0.1252
 2533TIP3    H129014   0.317   1.493  12.558 -0.0367  1.3003  0.1717
 2533TIP3    H229015   0.437   1.407  12.591 -0.9486 -0.0117  0.1810
 2534TIP3   OH229016   1.590   4.447   2.305 -0.4179 -0.5596  0.2428
 2534TIP3    H129017   1.583   4.536   2.272 -1.1247 -0.8642 -0.4611
 2534TIP3    H229018   1.684   4.430   2.309 -0.2872  0.1000  0.0886
 2535TIP3   OH229019   6.652   5.124   5.584 -0.5198  0.2625  0.2729
 2535TIP3    H129020   6.685   5.202   5.630 -0.4707 -0.0482  0.7702
 2535TIP3    H229021   6.727   5.093   5.533 -0.4737  0.4155  0.2475
 2536TIP3   OH229022   2.189   0.766  15.152 -0.5368 -0.2227 -0.0321
 2536TIP3    H129023   2.235   0.768  15.068 -1.2156 -1.4502 -0.4495
 2536TIP3    H229024   2.116   0.706  15.138 -0.7272 -0.3505  1.4039
 2537TIP3   OH229025   0.039   4.891  14.782  0.4773 -0.0387  0.1428
 2537TIP3    H129026   0.128   4.888  14.747  0.5962  2.3626  0.0801
 2537TIP3    H229027  -0.013   4.935  14.715 -1.1397 -2.5434 -0.4134
 2538TIP3   OH229028   4.329   4.861   6.337  0.4277 -0.5844 -0.6462
 2538TIP3    H129029   4.273   4.792   6.303 -2.0253  0.8197  0.3225
 2538TIP3    H229030   4.345   4.836   6.428  0.7198 -0.5786 -0.6946
 2539TIP3   OH229031   4.802   4.247  14.876  0.1589 -0.0721  0.2899
 2539TIP3    H129032   4.709   4.229  14.859  0.1699  0.7618 -0.7519
 2539TIP3    H229033   4.803   4.293  14.960 -0.3023 -0.6932  0.6405
 2540TIP3   OH229034   0.739   3.074  11.635  0.3136 -0.7614 -0.4293
 2540TIP3    H129035   0.800   3.116  11.697  0.4965  1.0314 -1.7477
 2540TIP3    H229036   0.795   3.018  11.581  0.6552  0.0235 -0.9136
 2541TIP3   OH229037   1.724   0.885   0.550  0.2264  0.2202 -0.1955
 2541TIP3    H129038   1.691   0.939   0.479 -1.7243 -1.3476 -0.5557
 2541TIP3    H229039   1.689   0.926   0.629 -0.1254  0.2522 -0.3667
 2542TIP3   OH229040   2.473   4.400  14.845 -0.4695 -0.2573  0.0356
 2542TIP3    H129041   2.415   4.408  14.769 -1.0731  0.0826  0.5221
 2542TIP3    H229042   2.515   4.486  14.852 -1.6130  0.2427  1.0237
 2543TIP3   OH229043   3.549   2.239   0.963 -0.5661 -0.3479 -0.0625
 2543TIP3    H129044   3.476   2.301   0.970 -1.6497 -1.5019 -0.5312
 2543TIP3    H229045   3.530   2.174   1.030 -0.7661 -1.4095 -1.1037
 2544TIP3   OH229046   6.463   3.850   2.786  0.0335 -0.1225  0.0682
 2544TIP3    H129047   6.533   3.826   2.725 -0.1327 -0.1694 -0.1027
 2544TIP3    H229048   6.501   3.920   2.839  0.3140 -0.3494  0.1739
 2545TIP3   OH229049   4.742   4.486  17.321 -0.7958  0.5573  0.0054
 2545TIP3    H129050   4.812   4.550  17.318 -0.0821 -0.2311 -0.7075
 2545TIP3    H229051   4.668   4.529  17.278 -0.4693  1.0601 -0.0586
 2546TIP3   OH229052   5.373   2.229   0.424 -0.1022  0.2724  0.3528
 2546TIP3    H129053   5.443   2.166   0.407 -0.9782 -1.4541  2.6426
 2546TIP3    H229054   5.350   2.263   0.337  3.3294  0.7526 -0.5320
 2547TIP3   OH229055   2.967   6.668  15.029 -0.4742  0.3460 -0.3130
 2547TIP3    H129056   2.955   6.751  15.075  0.9962  0.2759  0.2401
 2547TIP3    H229057   2.959   6.692  14.936  1.7682  1.5060 -0.2824
 2548TIP3   OH229058   6.734   2.578  16.508 -0.3526 -0.1809 -0.1901
 2548TIP3    H129059   6.784   2.606  16.585 -2.0197  2.0290  0.1922
 2548TIP3    H229060   6.647   2.556  16.542 -1.3019  1.4046 -1.4466
 2549TIP3   OH229061   0.670   6.043  14.923 -0.0266 -0.4134  0.2225
 2549TIP3    H129062   0.632   6.128  14.945 -0.1280 -0.4609  0.2322
 2549TIP3    H229063   0.612   5.979  14.964  0.9135 -0.4502  1.5324
 2550TIP3   OH229064   1.140   1.165  12.884 -0.8085 -0.4209  0.0512
 2550TIP3    H129065   1.235   1.166  12.876 -0.6664  1.0558  1.4485
 2550TIP3    H229066   1.123   1.113  12.963 -1.2708 -1.7419 -0.8763
 2551TIP3   OH229067   6.694   1.300  15.359 -0.7476  0.0191 -0.1448
 2551TIP3    H129068   6.777   1.269  15.323  0.8855 -0.2617  3.4113
 2551TIP3    H229069   6.695   1.394  15.342  1.4423  0.4117  1.5746
 2552TIP3   OH229070   4.350   0.701  16.089  0.8611 -0.6289  0.1353
 2552TIP3    H129071   4.321   0.772  16.031  0.6829  0.4620  1.4951
 2552TIP3    H229072   4.296   0.626  16.065  1.6002 -0.5791 -1.8824
 2553TIP3   OH229073   1.135   6.073   0.958 -0.0049  0.2671 -0.3039
 2553TIP3    H129074   1.160   6.158   0.994 -0.3958  0.1229  0.3183
 2553TIP3    H229075   1.208   6.048   0.901 -0.3284  1.4842 -1.3046
 2554TIP3   OH229076   4.448   2.772  16.419  0.8933  0.2125 -0.5371
 2554TIP3    H129077   4.524   2.765  16.477 -0.8139 -1.2178  1.6553
 2554TIP3    H229078   4.418   2.682  16.406 -2.0514  0.8185  1.0504
 2555TIP3   OH229079   1.649   4.294   6.692 -0.5363 -0.2577 -0.2838
 2555TIP3    H129080   1.668   4.219   6.749 -0.4217  0.2442  0.3450
 2555TIP3    H229081   1.667   4.261   6.604  0.8509 -0.5685  0.0825
 2556TIP3   OH229082   1.931   2.337   0.124 -0.2490 -0.3844  0.4831
 2556TIP3    H129083   1.948   2.303   0.212 -1.5646 -0.0113  0.8987
 2556TIP3    H229084   1.956   2.429   0.129  1.2666 -0.7295 -0.0383
 2557TIP3   OH229085   0.570   0.357  14.513  0.2646  0.1739  0.6054
 2557TIP3    H129086   0.607   0.339  14.427 -1.8577  0.5175 -0.4307
 2557TIP3    H229087   0.623   0.429  14.547  2.2301 -1.0968  0.3795
 2558TIP3   OH229088   4.287   3.514   5.262  0.1112 -0.2559 -0.0541
 2558TIP3    H129089   4.274   3.467   5.344 -2.4471 -0.1834 -0.3526
 2558TIP3    H229090   4.332   3.594   5.288  2.1908 -1.5828  0.7945
 2559TIP3   OH229091   4.238   2.203   0.351  0.1366 -0.1853  0.0450
 2559TIP3    H129092   4.181   2.279   0.340  1.4577  0.7885 -0.4437
 2559TIP3    H229093   4.251   2.169   0.263  1.1342  0.2639  0.0028
 2560TIP3   OH229094   3.217   6.526  15.118 -0.8993  0.1791  0.0409
 2560TIP3    H129095   3.149   6.592  15.103 -2.0998 -1.2357 -1.0845
 2560TIP3    H229096   3.169   6.443  15.120  0.8441 -0.9396 -1.4351
 2561TIP3   OH229097   6.561   4.401  16.357  0.3468  0.1025 -0.5615
 2561TIP3    H129098   6.593   4.346  16.429  0.0567 -1.8122 -1.8264
 2561TIP3    H229099   6.631   4.466  16.344  0.7255  0.0507  0.9321
 2562TIP3   OH229100   5.748   4.882   0.456  0.5173 -0.7790  0.5959
 2562TIP3    H129101   5.736   4.844   0.369  2.2825 -2.2216  0.9299
 2562TIP3    H229102   5.685   4.837   0.511  0.3629 -0.8785  0.3390
 2563TIP3   OH229103   5.922   6.137  13.836 -0.1301 -0.0746 -0.8330
 2563TIP3    H129104   6.011   6.142  13.872  0.0981  0.8174 -1.4662
 2563TIP3    H229105   5.935   6.137  13.741 -0.7355 -2.0652 -0.9614
 2564TIP3   OH229106   4.745   6.657  11.348  0.0149 -0.5459 -0.5382
 2564TIP3    H129107   4.769   6.686  11.260 -2.2783  0.2363 -0.9807
 2564TIP3    H229108   4.812   6.592  11.372  0.5190 -1.0135 -2.9822
 2565TIP3   OH229109   1.519   5.583  15.069  0.3143  0.0278 -0.3028
 2565TIP3    H129110   1.592   5.646  15.065  1.0236 -0.8241 -1.3268
 2565TIP3    H229111   1.495   5.581  15.161  1.9553 -0.0511  0.1639
 2566TIP3   OH229112   2.056   3.142  13.597 -0.0588 -0.1157  0.2191
 2566TIP3    H129113   2.062   3.209  13.665 -0.5629 -0.9839  1.1389
 2566TIP3    H229114   1.976   3.095  13.616  0.9033 -1.7739  0.3417
 2567TIP3   OH229115   6.069   2.716   5.657 -0.0769  0.1688  0.1098
 2567TIP3    H129116   6.058   2.694   5.750 -2.2825  2.1181  0.3993
 2567TIP3    H229117   6.018   2.649   5.610 -2.0628  1.2366  0.6143
 2568TIP3   OH229118   5.070   5.048   1.131 -0.4326  0.1273 -0.2612
 2568TIP3    H129119   5.067   5.015   1.220  0.1716  1.2452  0.1913
 2568TIP3    H229120   5.112   5.134   1.138 -0.0469  0.0860 -1.6583
 2569TIP3   OH229121   6.575   3.658   0.894 -0.0238 -0.2324  0.0768
 2569TIP3    H129122   6.596   3.745   0.927  0.3410  0.0818 -0.9581
 2569TIP3    H229123   6.487   3.640   0.928 -0.1770  0.6070  0.1377
 2570TIP3   OH229124   2.046   2.231  13.882  0.2536  0.0079 -0.1356
 2570TIP3    H129125   1.960   2.211  13.919 -0.9820  1.7835 -1.8304
 2570TIP3    H229126   2.026   2.273  13.797  2.7186  1.7029  0.0222
 2571TIP3   OH229127   5.357   6.445   0.555 -0.2849 -0.5207  0.2640
 2571TIP3    H129128   5.276   6.396   0.548 -0.4182 -0.2801  0.0945
 2571TIP3    H229129   5.422   6.381   0.586 -0.8834 -0.3498  1.9658
 2572TIP3   OH229130   3.747   5.514   2.520 -0.4216  0.6827  0.2358
 2572TIP3    H129131   3.842   5.525   2.521 -0.1520 -1.0810 -1.2128
 2572TIP3    H229132   3.720   5.549   2.435 -0.5913 -1.7124 -0.7744
 2573TIP3   OH229133   0.834   5.731  14.504 -0.9958  0.5188 -0.0090
 2573TIP3    H129134   0.829   5.639  14.528  2.5990 -0.4995 -2.2140
 2573TIP3    H229135   0.868   5.774  14.582  0.3428 -0.6945  0.1318
 2574TIP3   OH229136   2.508   2.820   3.012  0.1332 -0.2792  0.1676
 2574TIP3    H129137   2.433   2.870   3.045  0.2399  0.5476 -0.7835
 2574TIP3    H229138   2.499   2.734   3.052  0.7666  0.8880  3.0625
 2575TIP3   OH229139   0.975   4.079   5.100 -0.0840 -0.0243  0.1365
 2575TIP3    H129140   0.969   3.994   5.055 -0.1267  0.8324 -1.5798
 2575TIP3    H229141   0.927   4.067   5.182 -0.9474 -1.3720 -0.5342
 2576TIP3   OH229142   4.595   2.009  16.362  0.4665  0.0299 -0.5197
 2576TIP3    H129143   4.673   2.062  16.379 -0.3230  0.6748  1.3508
 2576TIP3    H229144   4.623   1.919  16.381  0.5264  0.3733  1.2010
 2577TIP3   OH229145   1.277   5.600  13.570  0.2044 -0.6892 -0.0191
 2577TIP3    H129146   1.183   5.593  13.555  0.3306 -0.4820 -1.0200
 2577TIP3    H229147   1.287   5.604  13.665 -0.8410 -0.1429  0.0775
 2578TIP3   OH229148   2.191   1.699  11.936 -0.2531  0.3867 -0.1694
 2578TIP3    H129149   2.156   1.641  11.868  1.4906  2.0523 -2.6479
 2578TIP3    H229150   2.285   1.701  11.920  0.4026  0.1702  2.9559
 2579TIP3   OH229151   4.972   4.862  12.254 -0.0871 -0.2460 -0.2644
 2579TIP3    H129152   4.932   4.811  12.184 -1.3873  1.1200 -0.5781
 2579TIP3    H229153   4.975   4.951  12.219  2.0776 -0.0637  0.2647
 2580TIP3   OH229154   4.461   1.508   0.051 -0.0428 -0.0578 -0.8491
 2580TIP3    H129155   4.454   1.549   0.137 -1.8604  1.0374 -1.4641
 2580TIP3    H229156   4.421   1.422   0.062 -0.0560 -0.0121 -0.5324
 2581TIP3   OH229157   4.521   6.433   1.615  0.0685 -0.2624  0.0856
 2581TIP3    H129158   4.521   6.384   1.697 -2.0691 -0.0006  0.2805
 2581TIP3    H229159   4.464   6.383   1.556 -1.8325  1.6896  0.1577
 2582TIP3   OH229160   4.848   5.441  15.091 -0.1622  0.0586  0.3131
 2582TIP3    H129161   4.923   5.496  15.111 -0.1093  0.5512 -1.1217
 2582TIP3    H229162   4.871   5.399  15.007 -1.4831  0.2291 -0.1570
 2583TIP3   OH229163   6.699   3.415   5.950 -0.2010 -0.6038  0.2653
 2583TIP3    H129164   6.715   3.352   5.880  0.3288  2.0463 -2.1828
 2583TIP3    H229165   6.608   3.399   5.977  0.0848 -2.6909  0.1262
 2584TIP3   OH229166   0.470   5.609  11.814 -0.4432  0.1528  0.5979
 2584TIP3    H129167   0.389   5.659  11.818 -1.1128 -0.4542 -2.4759
 2584TIP3    H229168   0.526   5.658  11.754 -0.0644 -1.3332 -0.3332
 2585TIP3   OH229169   2.660   6.595  14.842  0.1363 -0.0601  0.4196
 2585TIP3    H129170   2.743   6.624  14.803 -0.5101  0.9591 -0.2378
 2585TIP3    H229171   2.655   6.642  14.925 -0.5978  1.2714 -0.3469
 2586TIP3   OH229172   1.080   5.281  14.166 -0.2515  0.2253 -0.3511
 2586TIP3    H129173   0.999   5.332  14.175 -0.6406 -0.5953  1.0398
 2586TIP3    H229174   1.055   5.205  14.113  0.2192  1.1784 -2.0199
 2587TIP3   OH229175   2.546   3.724   1.517 -0.2783 -0.0429 -0.0673
 2587TIP3    H129176   2.504   3.804   1.550  1.6401  0.5660  1.1089
 2587TIP3    H229177   2.497   3.653   1.558  0.2967  0.6594  1.9641
 2588TIP3   OH229178   1.665   4.003  17.153  0.2187 -0.0650  0.0703
 2588TIP3    H129179   1.585   3.968  17.113 -0.4961 -0.0563  1.4120
 2588TIP3    H229180   1.680   4.086  17.108  1.1846 -1.4210 -2.2495
 2589TIP3   OH229181   4.406   3.169   3.165  0.4909  0.6162  0.0354
 2589TIP3    H129182   4.431   3.223   3.241  0.9537  0.1325  0.2301
 2589TIP3    H229183   4.335   3.218   3.124  0.0655  0.7566  0.9289
 2590TIP3   OH229184   6.283   4.476  16.362  0.8216  0.1332  0.0638
 2590TIP3    H129185   6.293   4.517  16.448  1.9071  2.4188 -1.0462
 2590TIP3    H229186   6.369   4.441  16.342  0.2704 -1.4691  0.3609
 2591TIP3   OH229187   0.439   5.980   2.399 -0.6399  0.1609  0.1797
 2591TIP3    H129188   0.441   5.953   2.491 -1.0765  0.8642  0.4068
 2591TIP3    H229189   0.370   5.926   2.360 -0.3446 -0.2539  0.2243
 2592TIP3   OH229190   5.212   6.292   6.035  0.2116 -0.4913 -0.2062
 2592TIP3    H129191   5.164   6.283   6.117 -0.1335 -0.8984 -0.4463
 2592TIP3    H229192   5.304   6.299   6.062 -0.1002  2.5903  0.3893
 2593TIP3   OH229193   2.914   6.046  13.660 -0.3251 -0.1301 -0.2568
 2593TIP3    H129194   2.897   6.140  13.661 -1.3568 -0.3030 -0.2610
 2593TIP3    H229195   3.006   6.038  13.634 -0.6554  0.8364 -1.8608
 2594TIP3   OH229196   1.228   2.461   4.834  0.3443 -0.3287 -0.1179
 2594TIP3    H129197   1.273   2.385   4.797  2.5213 -0.3135  2.2304
 2594TIP3    H229198   1.282   2.536   4.809  0.7991 -0.1167  1.3983
 2595TIP3   OH229199   2.807   4.191   4.080 -0.3165 -0.2476 -0.7243
 2595TIP3    H129200   2.760   4.126   4.132  1.1119 -1.5477 -1.0085
 2595TIP3    H229201   2.750   4.268   4.082 -1.9487 -1.3983 -0.1735
 2596TIP3   OH229202   4.004   6.183  11.216 -0.2537 -1.0223 -0.2882
 2596TIP3    H129203   3.909   6.179  11.209 -0.2138 -0.5385 -1.2684
 2596TIP3    H229204   4.029   6.100  11.258 -1.1688 -0.7269  0.8880
 2597TIP3   OH229205   5.737   0.084  13.071 -0.1309  0.1090  0.2238
 2597TIP3    H129206   5.717   0.059  12.981 -0.6779 -0.7910  0.5756
 2597TIP3    H229207   5.661   0.054  13.122  0.8208 -0.7901  1.1860
 2598TIP3   OH229208   5.299   2.129  16.106 -0.8293  0.1112  0.3032
 2598TIP3    H129209   5.300   2.054  16.046 -0.0063 -0.0124  0.4542
 2598TIP3    H229210   5.229   2.110  16.168 -1.6993  0.2410 -0.6146
 2599TIP3   OH229211   3.291   4.874  14.431 -0.3917 -0.0251 -0.0886
 2599TIP3    H129212   3.370   4.869  14.377  0.2280  2.2619  0.5252
 2599TIP3    H229213   3.324   4.876  14.521 -0.9334  3.1520  0.1223
 2600TIP3   OH229214   4.007   2.387   2.308 -1.0141  0.0444 -0.2343
 2600TIP3    H129215   4.062   2.389   2.230 -0.8113 -1.1734 -0.1330
 2600TIP3    H229216   4.056   2.333   2.371 -2.4887 -1.4160 -0.2848
 2601TIP3   OH229217   0.445   2.041   0.040  0.3300 -0.4554  0.3858
 2601TIP3    H129218   0.497   2.048  -0.040 -0.4409  1.4608 -0.0105
 2601TIP3    H229219   0.496   2.088   0.107 -0.3051  0.4075  0.2850
 2602TIP3   OH229220   1.096   0.920   2.166 -0.2728 -0.2092  0.1536
 2602TIP3    H129221   1.015   0.938   2.119 -0.7455 -0.9383  0.6446
 2602TIP3    H229222   1.147   0.866   2.106 -0.5931 -0.5906  0.2156
 2603TIP3   OH229223   2.899   6.697  12.094  0.5741 -0.2016  0.5728
 2603TIP3    H129224   2.821   6.749  12.076  0.6154 -0.2149  0.3610
 2603TIP3    H229225   2.941   6.685  12.009 -0.1021 -1.6710  0.4087
 2604TIP3   OH229226   0.688   5.257  14.371  0.2348  0.2543  0.3209
 2604TIP3    H129227   0.750   5.184  14.378  0.8120  0.6346 -0.5349
 2604TIP3    H229228   0.613   5.221  14.325  0.3972  0.1275  0.1544
 2605TIP3   OH229229   2.674   5.530  15.105  0.4922 -0.2023 -0.1714
 2605TIP3    H129230   2.612   5.485  15.162  2.1359 -1.6665  0.5472
 2605TIP3    H229231   2.721   5.589  15.163  0.8714 -0.2968 -0.3822
 2606TIP3   OH229232   0.810   5.755  13.305 -0.3733 -0.1290 -0.1449
 2606TIP3    H129233   0.716   5.738  13.300 -0.5152  0.4020  0.4969
 2606TIP3    H229234   0.818   5.821  13.374  0.1700  2.1746 -2.2859
 2607TIP3   OH229235   0.374   0.343   4.663 -0.3122  0.8580 -0.5933
 2607TIP3    H129236   0.458   0.372   4.698 -0.0983  0.9488 -1.1648
 2607TIP3    H229237   0.342   0.279   4.726 -0.5487  1.9541  0.4326
 2608TIP3   OH229238   1.585   0.883  16.977  0.4027  0.4120 -0.0798
 2608TIP3    H129239   1.609   0.959  17.030 -3.0368  0.2941  1.9288
 2608TIP3    H229240   1.597   0.809  17.036 -0.0951 -0.1432 -0.6676
 2609TIP3   OH229241   5.393   3.072  12.591  0.7213  0.7821 -0.0863
 2609TIP3    H129242   5.302   3.044  12.583  0.9870  0.2102 -1.4553
 2609TIP3    H229243   5.402   3.142  12.526  1.1137  1.2182  0.4357
 2610TIP3   OH229244   3.339   1.957  14.934 -0.2471 -0.4891  0.3127
 2610TIP3    H129245   3.432   1.973  14.951 -0.2337  0.3407 -0.4359
 2610TIP3    H229246   3.338   1.890  14.866 -0.0305  2.0482 -2.3912
 2611TIP3   OH229247   2.318   3.919  15.069  0.0953  0.0892  0.0833
 2611TIP3    H129248   2.300   3.976  14.994 -2.5760  0.5975  0.9739
 2611TIP3    H229249   2.379   3.969  15.123 -0.4073  1.1221 -0.2699
 2612TIP3   OH229250   3.633   6.697   2.721  0.1043 -0.0872  0.7732
 2612TIP3    H129251   3.553   6.697   2.668  0.0115  1.0986  0.8952
 2612TIP3    H229252   3.627   6.617   2.773 -0.1821 -0.8660 -0.4283
 2613TIP3   OH229253   5.095   1.802   5.351  0.3929  0.8085  0.5494
 2613TIP3    H129254   5.160   1.783   5.283 -0.8798 -0.8320 -0.2956
 2613TIP3    H229255   5.135   1.871   5.404  1.6855  1.7235 -1.4988
 2614TIP3   OH229256   4.205   5.271   0.052  0.2794  0.1389  0.1473
 2614TIP3    H129257   4.220   5.192   0.104 -0.5677  0.4707  0.9468
 2614TIP3    H229258   4.226   5.247  -0.038 -0.5303 -1.1678  0.2921
 2615TIP3   OH229259   0.259   4.367  11.687  0.4827  1.2090 -0.7179
 2615TIP3    H129260   0.293   4.324  11.608  0.8303  1.1560 -0.5408
 2615TIP3    H229261   0.200   4.434  11.654 -0.6517  0.1260 -0.9999
 2616TIP3   OH229262   2.637   4.355  15.564  0.4666  0.1093  1.0045
 2616TIP3    H129263   2.650   4.292  15.493  0.4904  1.4013 -0.1765
 2616TIP3    H229264   2.712   4.414  15.557 -0.7668  1.6712  0.5462
 2617TIP3   OH229265   3.044   6.344   2.970 -0.3821  0.6305  0.1668
 2617TIP3    H129266   2.973   6.326   3.032 -1.9104  1.3115 -1.3041
 2617TIP3    H229267   3.032   6.280   2.900  1.1770  0.0214  0.4176
 2618TIP3   OH229268   3.025   0.615  13.461 -0.2354  0.2228  0.0828
 2618TIP3    H129269   3.084   0.550  13.422 -0.6759 -0.1414  0.0144
 2618TIP3    H229270   3.058   0.699  13.430 -1.8199 -0.1248 -2.8687
 2619TIP3   OH229271   1.012   1.622   3.355 -0.5005  0.6339 -0.3965
 2619TIP3    H129272   1.056   1.612   3.440  0.2755  1.5359 -0.6671
 2619TIP3    H229273   1.034   1.542   3.308 -2.3626 -0.6790  0.8323
 2620TIP3   OH229274   1.486   3.265  17.030  0.0577 -0.0711  0.4068
 2620TIP3    H129275   1.410   3.312  16.996 -0.6955 -1.6311 -0.1856
 2620TIP3    H229276   1.457   3.230  17.114  0.1490 -0.5555  0.2425
 2621TIP3   OH229277   1.645   1.073  10.988  0.3814  0.0897  0.0029
 2621TIP3    H129278   1.653   1.041  11.077  2.3625 -0.5811 -0.3791
 2621TIP3    H229279   1.655   0.995  10.933 -2.0682  0.2716 -0.8365
 2622TIP3   OH229280   1.330   2.446  10.776 -0.1809 -0.2352  0.1294
 2622TIP3    H129281   1.368   2.363  10.805 -2.1579 -1.5875 -0.8827
 2622TIP3    H229282   1.238   2.425  10.756 -0.3148  1.7740 -1.8336
 2623TIP3   OH229283   3.787   6.492   0.461  1.0346 -0.3146  0.3586
 2623TIP3    H129284   3.820   6.537   0.383 -0.4014  0.9038  0.3865
 2623TIP3    H229285   3.712   6.442   0.430 -0.3846  1.2295  1.0951
 2624TIP3   OH229286   1.435   4.647   1.870 -0.4473  0.0832  0.0115
 2624TIP3    H129287   1.493   4.705   1.822 -0.5865  0.6548  0.5226
 2624TIP3    H229288   1.441   4.563   1.824  0.2480  0.3244 -0.3509
 2625TIP3   OH229289   3.525   4.926   5.445 -0.3773 -0.2411 -0.0133
 2625TIP3    H129290   3.446   4.880   5.417  0.5817 -1.0525 -1.4596
 2625TIP3    H229291   3.591   4.858   5.456 -0.1280  0.2774  2.2993
 2626TIP3   OH229292   2.155   1.132  13.960  0.1176 -0.0308  0.3700
 2626TIP3    H129293   2.095   1.129  13.886  1.7332  0.8280 -1.0299
 2626TIP3    H229294   2.228   1.075  13.934  0.7339  0.3320  1.2581
 2627TIP3   OH229295   3.113   0.501   2.206 -0.2657  0.3391  0.4938
 2627TIP3    H129296   3.109   0.412   2.171 -2.1662  0.0606  1.3116
 2627TIP3    H229297   3.122   0.557   2.129  2.4378 -0.5711  0.0446
 2628TIP3   OH229298   4.352   5.201  16.961  0.5274 -0.4537 -0.3669
 2628TIP3    H129299   4.333   5.231  16.872 -0.8024 -0.5184 -0.1181
 2628TIP3    H229300   4.393   5.115  16.949 -0.2794 -0.7755 -0.9043
 2629TIP3   OH229301   3.458   3.952   6.528  0.1970  0.4420  0.1417
 2629TIP3    H129302   3.543   3.915   6.506 -0.2838 -1.0006  0.5696
 2629TIP3    H229303   3.404   3.876   6.553 -0.8053  1.4458  1.1834
 2630TIP3   OH229304   3.122   0.965  12.044 -0.3311 -0.0653 -0.1100
 2630TIP3    H129305   3.216   0.970  12.064  0.0082 -2.4896 -0.8459
 2630TIP3    H229306   3.115   0.896  11.978 -2.7010 -0.3013  0.3061
 2631TIP3   OH229307   3.702   6.471   3.354  0.3906  0.0059 -0.4859
 2631TIP3    H129308   3.722   6.554   3.398  0.4478 -0.2017 -0.1103
 2631TIP3    H229309   3.764   6.408   3.392 -0.0481 -0.3385 -0.3256
 2632TIP3   OH229310   4.393   2.408   2.084 -0.2473  1.0724 -0.1965
 2632TIP3    H129311   4.468   2.458   2.117 -0.1302 -0.6869  2.4832
 2632TIP3    H229312   4.406   2.405   1.990  3.5019  0.2394  0.2082
 2633TIP3   OH229313   2.212   4.981   2.371  0.0946  0.0264 -0.1607
 2633TIP3    H129314   2.308   4.983   2.366  0.2268  0.5193  1.7316
 2633TIP3    H229315   2.183   5.011   2.285  1.6730  1.7290 -0.1733
 2634TIP3   OH229316   3.402   6.189  10.854  0.5202 -0.6246 -0.3170
 2634TIP3    H129317   3.318   6.231  10.876 -0.6193 -2.7652 -0.3476
 2634TIP3    H229318   3.467   6.237  10.905 -1.0760 -0.6259  1.8353
 2635TIP3   OH229319   3.550   2.174   0.150 -0.1802 -0.4780  0.6802
 2635TIP3    H129320   3.576   2.137   0.235 -2.1042 -2.5413  0.4477
 2635TIP3    H229321   3.534   2.267   0.169  2.1712 -0.2340  1.8916
 2636TIP3   OH229322   2.980   5.789   3.551 -0.5562  0.2116 -0.1401
 2636TIP3    H129323   2.992   5.767   3.643  1.3769 -1.2057 -0.6750
 2636TIP3    H229324   2.974   5.885   3.549 -1.0517  0.2372  1.4591
 2637TIP3   OH229325   6.299   6.155   0.787 -0.4465 -0.2824  0.1679
 2637TIP3    H129326   6.389   6.175   0.812 -0.4869  2.1453 -1.2748
 2637TIP3    H229327   6.301   6.152   0.691 -2.1071  1.3451  0.0137
 2638TIP3   OH229328   6.287   0.339   0.994 -0.1270 -0.2934 -0.1682
 2638TIP3    H129329   6.280   0.421   0.945 -1.1755  1.7228  3.0748
 2638TIP3    H229330   6.252   0.273   0.935 -2.2806  2.1101 -1.8035
 2639TIP3   OH229331   1.282   3.245  13.462  0.2878  0.5758  0.6546
 2639TIP3    H129332   1.326   3.211  13.539 -2.7103 -1.7466  1.5629
 2639TIP3    H229333   1.308   3.185  13.391  0.6813  0.8622  0.5553
 2640TIP3   OH229334   3.231   2.173  13.411  0.5076 -0.3907  0.0194
 2640TIP3    H129335   3.240   2.093  13.359 -0.7862  0.2883 -1.3520
 2640TIP3    H229336   3.142   2.169  13.447  0.0492  0.8254 -0.8749
 2641TIP3   OH229337   1.371   2.656   6.839 -0.8237 -0.3031  0.0755
 2641TIP3    H129338   1.279   2.683   6.836 -0.5938  0.4314 -0.5297
 2641TIP3    H229339   1.407   2.699   6.916 -1.0324 -0.7543  0.4289
 2642TIP3   OH229340   5.378   2.890   5.160  0.8189 -0.1988 -0.3720
 2642TIP3    H129341   5.360   2.953   5.230  1.7505  0.1159 -0.4079
 2642TIP3    H229342   5.412   2.813   5.205  1.4008 -0.0033 -0.4722
 2643TIP3   OH229343   6.317   5.284   1.620 -0.4552 -0.0395  0.1014
 2643TIP3    H129344   6.317   5.261   1.527  0.7703  0.4417 -0.0366
 2643TIP3    H229345   6.224   5.284   1.644 -0.7712 -0.5573 -1.0142
 2644TIP3   OH229346   3.646   5.075   2.092  0.4323 -0.2507  0.3731
 2644TIP3    H129347   3.637   4.983   2.117  1.6862 -0.1242  1.4064
 2644TIP3    H229348   3.704   5.112   2.158 -1.7952  1.8415  1.3156
 2645TIP3   OH229349   4.631   4.035  12.961  0.0450 -0.6668 -0.4360
 2645TIP3    H129350   4.718   4.019  12.998 -1.2349 -2.0813  2.3534
 2645TIP3    H229351   4.621   4.130  12.964  1.4050 -0.5006 -0.5687
 2646TIP3   OH229352   0.205   5.973  15.562  0.3198  0.1774 -0.0810
 2646TIP3    H129353   0.295   5.942  15.553  0.0845 -1.5915  2.5716
 2646TIP3    H229354   0.208   6.065  15.534  2.9552  0.2033  0.0434
 2647TIP3   OH229355   4.609   0.206  15.815 -0.3372 -0.0264 -0.0789
 2647TIP3    H129356   4.678   0.147  15.845 -0.1207  0.3684  0.2063
 2647TIP3    H229357   4.533   0.183  15.868  0.1002  0.8097  0.9427
 2648TIP3   OH229358   2.468   4.425  16.543 -0.0536  0.4419 -0.3787
 2648TIP3    H129359   2.426   4.350  16.501 -1.6828  0.8240  0.5019
 2648TIP3    H229360   2.406   4.453  16.610  0.0822  3.1499 -1.2636
 2649TIP3   OH229361   0.193   5.246   1.159 -0.4237  0.1829 -0.0303
 2649TIP3    H129362   0.287   5.227   1.149 -0.5191  0.0988 -0.8624
 2649TIP3    H229363   0.178   5.321   1.100 -1.3835 -1.4102 -1.9357
 2650TIP3   OH229364   2.389   1.312  11.707 -0.4279 -0.4619  0.1593
 2650TIP3    H129365   2.401   1.260  11.786 -1.4704  0.4696  0.9751
 2650TIP3    H229366   2.447   1.388  11.719  0.4934 -1.0156 -0.6552
 2651TIP3   OH229367   0.559   4.577  16.888  0.1143  0.0194  0.5629
 2651TIP3    H129368   0.571   4.493  16.845  1.7857  0.1085  0.7719
 2651TIP3    H229369   0.466   4.580  16.911  0.2706 -2.3834  1.8031
 2652TIP3   OH229370   3.529   2.649   0.143  0.3476 -0.2276  0.1878
 2652TIP3    H129371   3.560   2.574   0.194 -1.2889  0.0552  1.7113
 2652TIP3    H229372   3.551   2.725   0.196 -1.8037  0.0446  0.8133
 2653TIP3   OH229373   1.262   1.170  16.223  0.0790  0.4367  0.4914
 2653TIP3    H129374   1.212   1.153  16.143 -0.5991  1.2724  0.7261
 2653TIP3    H229375   1.338   1.221  16.194 -0.1579  0.7251  0.3752
 2654TIP3   OH229376   3.054   0.790   5.800  0.2413  0.2390 -0.8890
 2654TIP3    H129377   2.964   0.775   5.773  0.3371 -1.2882 -0.4321
 2654TIP3    H229378   3.075   0.717   5.858  1.3731  1.2458  0.0294
 2655TIP3   OH229379   0.147   6.423   5.142 -0.5057 -0.5092  0.4651
 2655TIP3    H129380   0.138   6.423   5.238 -0.5679 -0.6056  0.4597
 2655TIP3    H229381   0.241   6.415   5.127 -0.3009  1.3938  0.5306
 2656TIP3   OH229382   0.561   2.313  11.662 -0.2394  0.3599 -0.0771
 2656TIP3    H129383   0.649   2.341  11.688 -0.0719 -0.8583  0.7643
 2656TIP3    H229384   0.511   2.394  11.654  0.6355  0.9870  0.6579
 2657TIP3   OH229385   4.683   0.704  13.022  0.1319  0.1291  0.1682
 2657TIP3    H129386   4.719   0.747  13.100  0.9921 -0.5823  0.1772
 2657TIP3    H229387   4.699   0.766  12.951 -1.2713  1.0816  0.6484
 2658TIP3   OH229388   1.267   2.102  13.726  0.0896 -0.5707  0.2271
 2658TIP3    H129389   1.338   2.066  13.780 -0.0471 -0.4461  0.4950
 2658TIP3    H229390   1.190   2.097  13.782  0.4264  1.9596  1.0426
 2659TIP3   OH229391   5.347   0.196   0.591 -0.3351 -0.3822 -0.6273
 2659TIP3    H129392   5.406   0.182   0.517 -0.6713 -2.3208 -0.5845
 2659TIP3    H229393   5.388   0.147   0.663 -0.4004  0.8575  0.2772
 2660TIP3   OH229394   5.258   1.430  13.110 -0.7639  0.3411  0.2955
 2660TIP3    H129395   5.314   1.422  13.032 -1.7472 -0.7929 -0.3313
 2660TIP3    H229396   5.219   1.517  13.103  0.7310  1.0672  0.6375
 2661TIP3   OH229397   0.686   3.092   0.888  0.1510 -0.0019 -0.1209
 2661TIP3    H129398   0.660   3.040   0.812  0.2654 -2.4498  1.4024
 2661TIP3    H229399   0.606   3.100   0.941  0.4219  0.3298  0.2503
 2662TIP3   OH229400   0.578   1.324   0.284 -0.6526 -0.1140 -0.4725
 2662TIP3    H129401   0.570   1.398   0.224 -1.1985  1.8848  1.8649
 2662TIP3    H229402   0.488   1.302   0.308 -0.5307 -1.9719 -1.5383
 2663TIP3   OH229403   0.671   1.373   5.867 -0.0411  0.3950 -0.0918
 2663TIP3    H129404   0.603   1.440   5.875 -1.1360 -0.6465 -0.2868
 2663TIP3    H229405   0.628   1.292   5.895  0.9417 -0.3920 -0.7815
 2664TIP3   OH229406   6.042   1.517   5.606  0.3599  0.1470  0.2274
 2664TIP3    H129407   6.086   1.472   5.534  1.7678  1.5610  0.1260
 2664TIP3    H229408   5.954   1.481   5.608  0.9331 -1.4159 -0.8417
 2665TIP3   OH229409   2.093   4.995  16.581 -0.1430  0.2843  0.5500
 2665TIP3    H129410   2.125   5.056  16.515  0.7712  0.2556  0.9534
 2665TIP3    H229411   2.133   5.024  16.663 -0.6070 -0.1696  0.9489
 2666TIP3   OH229412   0.180   2.211  11.954 -0.2287  0.1342 -0.3677
 2666TIP3    H129413   0.248   2.195  12.020 -1.6931 -1.5526  0.8203
 2666TIP3    H229414   0.180   2.306  11.942  1.0453  0.3377  1.0041
 2667TIP3   OH229415   5.851   4.185   4.614  0.6251 -0.5948 -0.1444
 2667TIP3    H129416   5.781   4.240   4.648  0.8775 -0.1354 -0.3602
 2667TIP3    H229417   5.909   4.170   4.689  1.7083  1.2325 -0.5594
 2668TIP3   OH229418   1.022   6.620   1.155 -0.3184 -0.0331 -0.2044
 2668TIP3    H129419   1.078   6.644   1.081 -1.2371  0.0253 -0.9094
 2668TIP3    H229420   1.010   6.526   1.147 -1.7668  0.1917 -1.1535
 2669TIP3   OH229421   4.983   0.257  12.074  0.6181 -0.4055  0.4517
 2669TIP3    H129422   4.915   0.299  12.022 -0.4704 -1.9441  0.5404
 2669TIP3    H229423   4.939   0.236  12.157  1.4333 -0.6930  0.8149
 2670TIP3   OH229424   1.836   4.232  13.605 -0.2349  0.0781  0.0899
 2670TIP3    H129425   1.745   4.204  13.596 -0.2276  0.1958 -0.4269
 2670TIP3    H229426   1.868   4.188  13.684 -0.8034  0.2100  0.3983
 2671TIP3   OH229427   5.099   2.481  16.068  0.1303  0.9479  0.1995
 2671TIP3    H129428   5.102   2.415  15.998 -1.3561  1.0853 -0.0249
 2671TIP3    H229429   5.086   2.430  16.148 -1.9929  0.9886 -0.0828
 2672TIP3   OH229430   4.169   2.038  12.370 -0.5507  0.0433 -0.3160
 2672TIP3    H129431   4.261   2.060  12.386 -0.0540 -1.7016 -0.6053
 2672TIP3    H229432   4.161   1.946  12.395 -2.2519  0.1766 -0.2344
 2673TIP3   OH229433   0.792   1.334   2.151  0.4810  0.3043  0.0583
 2673TIP3    H129434   0.859   1.274   2.184 -1.0466 -0.4192  2.0208
 2673TIP3    H229435   0.710   1.285   2.160 -1.2182  3.3599  3.9938
 2674TIP3   OH229436   1.665   5.150   3.502  0.0023 -0.7560  0.1494
 2674TIP3    H129437   1.696   5.076   3.450 -1.7738 -1.2278 -0.2950
 2674TIP3    H229438   1.739   5.172   3.558  0.6421 -2.7649  0.1853
 2675TIP3   OH229439   2.458   3.819  16.057  0.5932  0.1287  0.1138
 2675TIP3    H129440   2.536   3.786  16.100 -1.0128 -1.4433  2.0381
 2675TIP3    H229441   2.387   3.764  16.091 -1.2103  0.7291 -2.4154
 2676TIP3   OH229442   0.121   2.743   6.172  0.7218  0.2564  0.1734
 2676TIP3    H129443   0.180   2.719   6.243  0.2675  0.1694  0.5289
 2676TIP3    H229444   0.056   2.800   6.213  1.3950  1.5645 -0.5231
 2677TIP3   OH229445   2.748   0.441  14.802  0.3298 -0.7463 -0.4473
 2677TIP3    H129446   2.808   0.500  14.755 -1.2793  0.3580 -1.2104
 2677TIP3    H229447   2.805   0.371  14.835  2.1431  0.6127 -0.5087
 2678TIP3   OH229448   0.222   4.390  12.544  0.2843  0.1699 -0.0433
 2678TIP3    H129449   0.303   4.428  12.511  0.3062 -1.4014 -1.9776
 2678TIP3    H229450   0.154   4.421  12.484  0.0878 -1.5132 -0.7694
 2679TIP3   OH229451   0.257   0.656  11.841  0.4388  0.5631 -0.2835
 2679TIP3    H129452   0.213   0.681  11.760  0.6912 -1.9141 -1.2730
 2679TIP3    H229453   0.326   0.722  11.853 -0.7714  2.0129 -1.0443
 2680TIP3   OH229454   1.234   2.766   0.398 -0.0075 -0.1295  0.0534
 2680TIP3    H129455   1.327   2.757   0.377  0.2919 -0.0207  1.2579
 2680TIP3    H229456   1.218   2.701   0.466 -1.0624 -0.8193 -0.8316
 2681TIP3   OH229457   2.443   1.183   0.853 -0.2444 -0.2122 -0.0611
 2681TIP3    H129458   2.421   1.093   0.829 -1.0357  0.2926 -1.3276
 2681TIP3    H229459   2.385   1.203   0.927 -1.8228  0.0289 -1.3137
 2682TIP3   OH229460   2.108   5.724   1.322  0.1306 -0.2860  0.5751
 2682TIP3    H129461   2.127   5.817   1.310 -0.4074 -0.3859 -1.4551
 2682TIP3    H229462   2.190   5.687   1.355  0.6149  0.7563  0.5752
 2683TIP3   OH229463   3.020   6.526   4.961 -0.0099 -0.1310 -0.0565
 2683TIP3    H129464   2.987   6.463   5.025 -0.5647  1.2316  1.0507
 2683TIP3    H229465   3.045   6.473   4.885 -2.8621 -1.4520 -0.1950
 2684TIP3   OH229466   6.000   3.212  13.134 -0.5580  0.0070 -0.1993
 2684TIP3    H129467   5.948   3.263  13.072  0.6526 -0.2580 -1.4764
 2684TIP3    H229468   5.950   3.130  13.144 -0.9459  0.1947 -0.5476
 2685TIP3   OH229469   1.607   5.442   3.003 -0.3429 -0.1259  0.4700
 2685TIP3    H129470   1.640   5.472   2.919 -0.9380  1.5643  0.8010
 2685TIP3    H229471   1.521   5.403   2.982 -0.3636  0.0294  0.2634
 2686TIP3   OH229472   1.329   3.292   5.343 -0.0346 -0.2364  0.4772
 2686TIP3    H129473   1.251   3.275   5.290 -0.3001  0.6808  0.5485
 2686TIP3    H229474   1.356   3.380   5.318  1.5201 -0.8618 -0.1854
 2687TIP3   OH229475   0.844   5.519  15.121 -0.5433  0.0676 -0.3770
 2687TIP3    H129476   0.914   5.577  15.154 -0.6144  0.6208 -1.1713
 2687TIP3    H229477   0.815   5.561  15.040 -1.2889 -0.5631 -0.4410
 2688TIP3   OH229478   6.398   6.301   0.534 -0.2880 -0.4282 -0.1880
 2688TIP3    H129479   6.425   6.342   0.452 -1.7712 -0.1871 -0.5819
 2688TIP3    H229480   6.473   6.311   0.592 -0.6978  3.3148 -0.0881
 2689TIP3   OH229481   6.349   4.290  11.894  0.3466 -0.0174 -0.7646
 2689TIP3    H129482   6.344   4.386  11.896 -0.6807 -0.0768 -0.2838
 2689TIP3    H229483   6.327   4.267  11.804  3.3223  0.3065 -1.7006
 2690TIP3   OH229484   1.924   6.524   3.700 -0.6291  0.5679 -0.0139
 2690TIP3    H129485   1.848   6.499   3.647 -1.8037  0.9041  1.4188
 2690TIP3    H229486   1.998   6.521   3.639 -1.3072 -2.3635 -0.8905
 2691TIP3   OH229487   2.765   4.057  14.866 -0.1180  0.0885 -0.1563
 2691TIP3    H129488   2.749   4.102  14.783 -0.8755  0.8296  0.3727
 2691TIP3    H229489   2.678   4.051  14.906  0.4517  1.0952  1.2672
 2692TIP3   OH229490   3.088   3.523   5.502  0.3523  0.8131  0.5908
 2692TIP3    H129491   3.135   3.559   5.577  3.1818 -0.9984 -0.1476
 2692TIP3    H229492   3.156   3.495   5.442 -1.7817  2.4862 -2.9230
 2693TIP3   OH229493   5.242   1.411   5.260 -0.5519 -0.0092  0.5904
 2693TIP3    H129494   5.228   1.322   5.228 -0.5627 -0.4164  1.6686
 2693TIP3    H229495   5.242   1.466   5.181 -0.6760 -0.9421 -0.0746
 2694TIP3   OH229496   3.248   4.928   1.099  0.1015  0.5207  0.1468
 2694TIP3    H129497   3.282   4.873   1.170 -0.2504 -0.4555 -0.4175
 2694TIP3    H229498   3.312   4.920   1.029  0.1533  1.0186  0.1294
 2695TIP3   OH229499   3.083   1.389   3.791 -0.2607  0.8567  0.7062
 2695TIP3    H129500   3.142   1.344   3.852 -1.3335 -0.1571  1.0237
 2695TIP3    H229501   3.005   1.408   3.844 -1.0730  0.2639 -0.2465
 2696TIP3   OH229502   2.553   3.563  16.175  0.0740  0.4083  0.1147
 2696TIP3    H129503   2.641   3.534  16.202  0.5535  1.3702 -0.3517
 2696TIP3    H229504   2.517   3.488  16.129  0.8018  0.1183 -0.0034
 2697TIP3   OH229505   0.846   0.764  15.777 -0.1520  0.5326 -0.6920
 2697TIP3    H129506   0.844   0.859  15.791  1.1343  0.8467 -2.3078
 2697TIP3    H229507   0.856   0.727  15.865 -1.0951  1.8504  0.0077
 2698TIP3   OH229508   3.364   2.312   3.806  0.4979 -0.6342  0.8922
 2698TIP3    H129509   3.387   2.239   3.864  0.9036 -0.1304  1.3825
 2698TIP3    H229510   3.410   2.387   3.844 -1.0367  0.1726  1.2048
 2699TIP3   OH229511   3.351   5.485  13.315  0.3585  0.0687  0.4288
 2699TIP3    H129512   3.390   5.432  13.385  1.0371  0.0483  0.0488
 2699TIP3    H229513   3.282   5.535  13.358  1.2714  0.6417  1.2869
 2700TIP3   OH229514   5.393   2.198   2.405 -0.0534 -0.2740 -0.3390
 2700TIP3    H129515   5.395   2.287   2.369 -2.5059 -1.1415 -3.0218
 2700TIP3    H229516   5.482   2.166   2.396  0.1922  0.8334 -2.4147
 2701TIP3   OH229517   0.206   4.055  13.606  0.4490 -0.6091  0.6576
 2701TIP3    H129518   0.219   3.961  13.595  0.5937 -0.6052  0.7830
 2701TIP3    H229519   0.240   4.093  13.525  1.0069 -0.6196  0.8774
 2702TIP3   OH229520   4.919   5.572   5.014 -0.0073  0.0064 -0.6157
 2702TIP3    H129521   4.848   5.532   5.064 -0.2542 -1.3148 -1.9370
 2702TIP3    H229522   4.887   5.574   4.924  1.9782 -1.6008 -1.4538
 2703TIP3   OH229523   2.435   2.638   4.654  0.0212 -0.3006 -0.2602
 2703TIP3    H129524   2.504   2.670   4.595 -0.2696 -0.2597 -0.5815
 2703TIP3    H229525   2.356   2.636   4.599  0.1439 -2.1751 -0.4377
 2704TIP3   OH229526   3.329   4.289   3.559 -0.6524  0.2692  0.5360
 2704TIP3    H129527   3.236   4.301   3.578 -0.8455  0.6928 -0.6070
 2704TIP3    H229528   3.368   4.272   3.645 -1.6299  1.0090  1.1622
 2705TIP3   OH229529   3.424   4.492  14.472  0.8020  0.1313  0.0538
 2705TIP3    H129530   3.477   4.529  14.543  1.1043  1.0915 -0.6378
 2705TIP3    H229531   3.453   4.540  14.394 -2.4943  2.2487 -0.0596
 2706TIP3   OH229532   0.241   4.487   2.766 -0.7168 -0.0282  0.5366
 2706TIP3    H129533   0.308   4.554   2.753 -1.7941  1.0000  0.1916
 2706TIP3    H229534   0.261   4.420   2.701  0.1444  0.1225  0.6318
 2707TIP3   OH229535   0.858   1.952  17.123 -0.0250  0.7214  0.7919
 2707TIP3    H129536   0.937   1.955  17.069 -1.3354  2.1728 -1.1951
 2707TIP3    H229537   0.891   1.956  17.213  2.1485  1.7655  0.0316
 2708TIP3   OH229538   2.301   5.546  12.274  0.5997 -0.3714  0.3101
 2708TIP3    H129539   2.380   5.495  12.256  0.3053 -0.0570 -2.1661
 2708TIP3    H229540   2.229   5.483  12.267  0.3655  0.0223 -1.1910
 2709TIP3   OH229541   2.598   4.950   1.559  0.0295 -0.1786 -0.2945
 2709TIP3    H129542   2.630   4.901   1.483 -0.5187  0.0372 -0.6700
 2709TIP3    H229543   2.561   4.883   1.617 -2.3624 -0.1038 -1.6097
 2710TIP3   OH229544   2.076   3.299  12.781  0.2510  0.2321  0.2179
 2710TIP3    H129545   2.001   3.353  12.757  1.2035  1.7779  0.5784
 2710TIP3    H229546   2.117   3.345  12.854  0.0214 -2.0118  1.8597
 2711TIP3   OH229547   6.215   5.602  12.542  0.4519  0.0198 -0.3638
 2711TIP3    H129548   6.181   5.608  12.453 -0.4971  0.6144  0.0217
 2711TIP3    H229549   6.292   5.545  12.534 -0.6469 -1.4328 -1.2710
 2712TIP3   OH229550   3.559   2.942  15.681  0.6012 -0.6640 -0.1937
 2712TIP3    H129551   3.585   2.861  15.638  0.6466 -0.8492  0.1750
 2712TIP3    H229552   3.581   2.928  15.773  1.4960  0.1397 -0.2702
 2713TIP3   OH229553   1.803   3.181  15.800 -0.1925 -0.3502 -0.0167
 2713TIP3    H129554   1.859   3.103  15.799 -0.3077 -0.4345  0.2911
 2713TIP3    H229555   1.729   3.158  15.855 -1.5473 -0.9376 -1.9496
 2714TIP3   OH229556   2.596   1.805   5.665  0.4454 -0.2330 -0.2306
 2714TIP3    H129557   2.617   1.810   5.758  0.6632  1.3221 -0.3361
 2714TIP3    H229558   2.579   1.895   5.639  1.1177 -0.5373 -1.8744
 2715TIP3   OH229559   1.240   1.501  17.016 -0.3958  0.0363  0.1809
 2715TIP3    H129560   1.288   1.521  16.936  0.0890 -0.0304  0.4512
 2715TIP3    H229561   1.280   1.421  17.049 -0.1003  0.4543  0.8698
 2716TIP3   OH229562   4.853   1.479  12.975 -0.2482 -0.1872 -0.3434
 2716TIP3    H129563   4.803   1.414  13.025  0.7972 -0.4461  0.3982
 2716TIP3    H229564   4.788   1.545  12.950 -1.0209 -0.6621  0.3396
 2717TIP3   OH229565   1.848   0.280   5.785  0.2395  0.3094 -0.4811
 2717TIP3    H129566   1.893   0.319   5.860 -2.1341 -0.5572  1.5264
 2717TIP3    H229567   1.875   0.188   5.786 -1.3280 -0.1584  0.5859
 2718TIP3   OH229568   4.823   1.429  11.241  0.1481  0.4969  0.1165
 2718TIP3    H129569   4.858   1.494  11.180  1.3944 -1.0016 -0.8694
 2718TIP3    H229570   4.888   1.358  11.239 -0.3862 -0.1234  2.2958
 2719TIP3   OH229571   2.999   2.325   2.299 -0.4989  0.1893  0.0293
 2719TIP3    H129572   2.935   2.343   2.368 -0.0146  0.0650  0.5198
 2719TIP3    H229573   2.989   2.397   2.236 -1.0960  0.1831  0.1158
 2720TIP3   OH229574   0.385   0.668   0.570  0.0843 -0.6285 -0.0882
 2720TIP3    H129575   0.413   0.728   0.501  0.6806 -2.0945 -1.1854
 2720TIP3    H229576   0.291   0.682   0.579  0.2279  0.4957 -0.2756
 2721TIP3   OH229577   4.316   1.750  13.794 -0.4024  0.8523  0.3180
 2721TIP3    H129578   4.352   1.663  13.811  0.3670  1.0013 -0.4599
 2721TIP3    H229579   4.377   1.810  13.838  0.3271  1.1016 -0.9517
 2722TIP3   OH229580   0.774   0.635  16.375  0.2232  0.8152  0.6843
 2722TIP3    H129581   0.747   0.689  16.450  1.2944  0.8322  1.0638
 2722TIP3    H229582   0.771   0.695  16.301  1.2058  1.3602  1.0705
 2723TIP3   OH229583   5.969   0.193   1.088  0.2498 -0.2486 -0.8402
 2723TIP3    H129584   6.015   0.249   1.026  1.0913 -0.8407 -0.7650
 2723TIP3    H229585   5.910   0.253   1.135  1.0454  0.5577 -0.8362
 2724TIP3   OH229586   5.789   4.901  14.515 -0.5539  0.9361 -0.3960
 2724TIP3    H129587   5.792   4.826  14.456 -0.1535  1.2568 -0.7875
 2724TIP3    H229588   5.840   4.874  14.591 -1.3517  0.3964 -0.0377
 2725TIP3   OH229589   1.404   1.594  15.430 -0.6023 -0.5782  0.4037
 2725TIP3    H129590   1.489   1.551  15.440 -0.4725 -0.1807  1.0848
 2725TIP3    H229591   1.412   1.645  15.350 -0.6628 -1.5983 -0.2612
 2726TIP3   OH229592   2.780   3.158   0.791 -0.2968 -0.9467  0.0543
 2726TIP3    H129593   2.827   3.164   0.874  0.3362  2.6917 -0.4056
 2726TIP3    H229594   2.821   3.085   0.745  0.5796 -1.8534  2.1640
 2727TIP3   OH229595   5.463   3.519  12.332  0.4434 -0.2952  0.0121
 2727TIP3    H129596   5.499   3.434  12.357 -0.1601 -0.9746 -1.3488
 2727TIP3    H229597   5.540   3.572  12.312  0.8618 -0.2511  1.6143
 2728TIP3   OH229598   1.466   5.406  14.753 -0.1441  0.2667 -0.4252
 2728TIP3    H129599   1.489   5.382  14.842 -1.4094 -0.3856 -0.2493
 2728TIP3    H229600   1.399   5.342  14.727  0.7118 -0.0257 -2.1098
 2729TIP3   OH229601   5.955   2.803  11.987 -0.1363  0.3089  0.8151
 2729TIP3    H129602   5.948   2.898  11.982 -0.8613  0.4315  3.0370
 2729TIP3    H229603   6.012   2.787  12.062  2.2143 -1.0416 -1.1076
 2730TIP3   OH229604   6.579   3.525  15.120  0.3968  0.1884  0.4310
 2730TIP3    H129605   6.574   3.429  15.121  1.8231  0.0773 -0.6505
 2730TIP3    H229606   6.545   3.551  15.206 -1.4859 -1.1746  0.1691
 2731TIP3   OH229607   0.252   0.071  15.514 -0.5177  0.8315  0.1426
 2731TIP3    H129608   0.235  -0.012  15.470 -1.9668  0.1284  1.9092
 2731TIP3    H229609   0.166   0.114  15.519  0.0887  2.1537 -0.1296
 2732TIP3   OH229610   4.250   2.190   4.846 -0.0961  0.0798 -0.1484
 2732TIP3    H129611   4.254   2.272   4.896  0.1318 -0.2786  0.4217
 2732TIP3    H229612   4.161   2.189   4.809  0.5477  1.6011 -1.9141
 2733TIP3   OH229613   3.316   0.186   0.241 -0.2933  0.2890 -0.0118
 2733TIP3    H129614   3.243   0.245   0.223 -0.4558 -0.4100 -1.7914
 2733TIP3    H229615   3.394   0.240   0.226 -0.4454  0.3461 -0.6157
 2734TIP3   OH229616   1.941   5.653   2.943  0.3336 -0.2543 -0.2536
 2734TIP3    H129617   1.986   5.617   3.020 -0.1572  0.8288  0.5638
 2734TIP3    H229618   2.012   5.683   2.886  0.6930 -0.7026 -0.0569
 2735TIP3   OH229619   6.520   4.887  12.489  0.3229 -0.4955  0.5514
 2735TIP3    H129620   6.517   4.792  12.499 -2.5491 -0.3724  1.9089
 2735TIP3    H229621   6.440   4.909  12.442  1.5202  1.2030 -0.8253
 2736TIP3   OH229622   5.464   4.331   4.372  0.2374  0.0131  0.3640
 2736TIP3    H129623   5.532   4.391   4.403 -0.4560  0.6779  0.6435
 2736TIP3    H229624   5.498   4.296   4.290  0.1334  1.7775 -0.4747
 2737TIP3   OH229625   4.954   5.126  11.630 -0.6424 -0.3113  0.1937
 2737TIP3    H129626   4.905   5.058  11.583 -1.5825  1.7529 -2.0423
 2737TIP3    H229627   4.903   5.142  11.710 -0.5916 -1.9471  0.5820
 2738TIP3   OH229628   1.783   2.631   6.417 -0.2379 -0.3354 -0.1666
 2738TIP3    H129629   1.861   2.686   6.405  0.5466 -0.7644  2.4184
 2738TIP3    H229630   1.739   2.668   6.493 -1.2037 -1.6387 -0.0609
 2739TIP3   OH229631   1.938   1.599  14.733  0.0136 -0.1022  0.1107
 2739TIP3    H129632   1.924   1.524  14.790 -1.5404  0.8359  1.0188
 2739TIP3    H229633   1.976   1.666  14.790 -1.8650  0.9586  0.1857
 2740TIP3   OH229634   1.821   3.744  17.195 -0.0359  0.0219 -0.0817
 2740TIP3    H129635   1.778   3.829  17.185 -0.9352 -0.0286  2.7195
 2740TIP3    H229636   1.896   3.760  17.252 -0.7131 -1.1880  1.2056
 2741TIP3   OH229637   4.684   1.156   4.007 -1.1347  0.1873  0.6122
 2741TIP3    H129638   4.770   1.126   4.039 -1.7743  0.0215  2.3070
 2741TIP3    H229639   4.625   1.085   4.030 -1.5155 -0.4683 -2.0768
 2742TIP3   OH229640   2.812   0.854  15.354 -0.2918  0.4301 -0.0432
 2742TIP3    H129641   2.725   0.874  15.387 -0.8486 -1.0819 -0.5263
 2742TIP3    H229642   2.798   0.828  15.263  0.7761  1.0317 -0.3951
 2743TIP3   OH229643   3.546   5.639  11.953 -0.2961 -0.7094  0.0647
 2743TIP3    H129644   3.464   5.590  11.944 -0.9298  0.4088 -0.5367
 2743TIP3    H229645   3.589   5.629  11.868 -0.3275 -0.4217  0.0128
 2744TIP3   OH229646   3.298   4.706  16.659  0.5198 -0.0143 -0.3953
 2744TIP3    H129647   3.266   4.787  16.617 -0.6264 -0.4396 -0.3746
 2744TIP3    H229648   3.239   4.693  16.733  0.9043 -0.7024 -0.2108
 2745TIP3   OH229649   3.907   1.255   1.064 -0.5861 -0.0216  0.7514
 2745TIP3    H129650   3.831   1.275   1.010  0.8406  2.1393 -0.5998
 2745TIP3    H229651   3.948   1.180   1.021 -0.2146  0.8336 -0.4405
 2746TIP3   OH229652   6.045   6.573  12.886 -0.6898 -0.3879 -0.2474
 2746TIP3    H129653   6.046   6.636  12.814 -1.0250 -2.1616 -1.8937
 2746TIP3    H229654   5.990   6.501  12.854 -0.6555 -1.3422  1.7022
 2747TIP3   OH229655   2.796   3.562  12.455 -0.0896  0.1692  0.1170
 2747TIP3    H129656   2.727   3.624  12.481  0.0181  0.3077  0.0717
 2747TIP3    H229657   2.784   3.550  12.361 -0.2959 -0.1074  0.1779
 2748TIP3   OH229658   2.913   6.242   1.023  0.2017 -0.5946 -0.4932
 2748TIP3    H129659   2.883   6.152   1.012 -1.9675 -0.0469  0.3953
 2748TIP3    H229660   2.992   6.234   1.078 -1.3221 -1.8627  1.6712
 2749TIP3   OH229661   0.059   4.646   5.869 -0.0677 -0.2018  0.1741
 2749TIP3    H129662   0.150   4.617   5.881  0.0073  0.2430  0.6918
 2749TIP3    H229663   0.019   4.638   5.956  0.2702  2.3310  0.6378
 2750TIP3   OH229664   4.410   5.465   2.079 -0.7053 -0.4236  0.4741
 2750TIP3    H129665   4.499   5.478   2.045 -0.3679 -1.5767  0.8340
 2750TIP3    H229666   4.374   5.553   2.089  0.5016  0.0746  0.5780
 2751TIP3   OH229667   2.941   4.998  12.147  0.2010  0.3895 -0.2064
 2751TIP3    H129668   3.009   5.037  12.091 -2.1577  2.9448 -1.5306
 2751TIP3    H229669   2.925   5.065  12.214 -1.2775  0.0286 -0.1781
 2752TIP3   OH229670   1.110   2.095  14.637  0.7619  0.6859 -0.4179
 2752TIP3    H129671   1.053   2.143  14.577 -0.9309 -2.2516 -1.3666
 2752TIP3    H229672   1.089   2.131  14.724  1.2184  3.0916 -1.2309
 2753TIP3   OH229673   0.957   0.829   3.924 -0.7244 -0.6646 -0.3043
 2753TIP3    H129674   0.866   0.818   3.953 -1.7333  0.2568 -2.8324
 2753TIP3    H229675   0.984   0.741   3.897 -1.6722 -0.6054 -1.5548
 2754TIP3   OH229676   3.162   5.155  16.258 -0.2612 -0.0800  0.2211
 2754TIP3    H129677   3.205   5.192  16.335  0.5587  1.0763 -0.7492
 2754TIP3    H229678   3.091   5.217  16.238 -0.0033  0.0410 -0.3644
 2755TIP3   OH229679   4.554   2.666   2.644  0.3432 -0.2873 -0.1618
 2755TIP3    H129680   4.465   2.648   2.674  0.4417 -2.8259 -1.1521
 2755TIP3    H229681   4.565   2.760   2.656 -2.6753  0.2078 -0.6074
 2756TIP3   OH229682   4.633   5.789   0.893  0.4679  0.0773 -0.2631
 2756TIP3    H129683   4.559   5.731   0.912  0.7208 -0.5710 -1.2069
 2756TIP3    H229684   4.592   5.871   0.867  0.1064  0.7310  2.1357
 2757TIP3   OH229685   5.236   1.108   0.693  0.1105  0.2503 -0.0986
 2757TIP3    H129686   5.231   1.016   0.720  1.5508  0.2153  0.1417
 2757TIP3    H229687   5.147   1.141   0.702 -1.0082 -1.7435 -2.5220
 2758TIP3   OH229688   1.414   3.398  13.840 -0.1181 -0.1916 -0.1398
 2758TIP3    H129689   1.430   3.479  13.889 -1.1887 -1.0867  1.7671
 2758TIP3    H229690   1.319   3.397  13.826 -0.1360 -1.2174  0.0190
 2759TIP3   OH229691   4.736   1.502  13.581 -0.0236  0.6268 -0.2557
 2759TIP3    H129692   4.695   1.418  13.598 -0.0869  0.8025  0.4872
 2759TIP3    H229693   4.805   1.509  13.648  0.6520  0.7157 -0.9427
 2760TIP3   OH229694   4.219   0.324  13.498 -0.2250 -0.2697 -0.1341
 2760TIP3    H129695   4.311   0.301  13.513 -0.6119 -3.2843 -1.6254
 2760TIP3    H229696   4.169   0.266  13.555 -1.2688  0.2072 -0.5253
 2761TIP3   OH229697   2.056   2.748  16.509 -0.0931 -0.0979 -0.0231
 2761TIP3    H129698   1.975   2.702  16.533  0.7402 -1.6451 -0.0680
 2761TIP3    H229699   2.032   2.799  16.431 -1.5366  1.1015  1.1379
 2762TIP3   OH229700   5.738   1.355  16.756  0.7333  0.3843  0.4488
 2762TIP3    H129701   5.777   1.416  16.693  0.5831  1.1164  1.0430
 2762TIP3    H229702   5.812   1.310  16.796  0.8555  0.2829  0.1025
 2763TIP3   OH229703   3.383   0.126   2.797  0.4370  0.3659 -1.1639
 2763TIP3    H129704   3.334   0.069   2.738 -0.4628 -1.7181  1.4098
 2763TIP3    H229705   3.471   0.090   2.798  0.3288  0.1007 -0.9065
 2764TIP3   OH229706   2.281   0.053   0.080  0.8379 -0.7967 -0.3856
 2764TIP3    H129707   2.250   0.027  -0.007  1.2882  0.0021 -0.8052
 2764TIP3    H229708   2.375   0.071   0.067  0.6839  0.3908  0.0057
 2765TIP3   OH229709   2.774   3.185  17.165  0.1473 -0.9879  0.0662
 2765TIP3    H129710   2.796   3.171  17.073 -1.7207 -1.3084 -0.3799
 2765TIP3    H229711   2.858   3.184  17.210  1.2075  0.3013 -1.7599
 2766TIP3   OH229712   1.773   4.363   3.104  0.2374  0.3633  0.2577
 2766TIP3    H129713   1.781   4.291   3.167  2.3267  0.3637  0.0641
 2766TIP3    H229714   1.843   4.424   3.128  0.4013  0.8719 -1.3884
 2767TIP3   OH229715   0.148   0.005   5.022  0.5754  0.3780  1.1845
 2767TIP3    H129716   0.106  -0.031   5.100 -0.7202 -2.0588 -0.5021
 2767TIP3    H229717   0.213  -0.060   4.997  0.5901  0.8300 -0.0512
 2768TIP3   OH229718   5.453   3.571  15.483 -0.1680  0.3210  0.0526
 2768TIP3    H129719   5.544   3.581  15.509  0.4649 -1.2361 -1.3615
 2768TIP3    H229720   5.438   3.642  15.421  0.2085  0.3389 -0.0209
 2769TIP3   OH229721   0.811   2.904  11.939 -0.0902 -0.4251  0.1656
 2769TIP3    H129722   0.795   2.940  12.026 -0.3302 -2.3626  0.9704
 2769TIP3    H229723   0.753   2.954  11.882  0.3131  1.1124  1.0274
 2770TIP3   OH229724   2.631   3.991   0.425 -0.2681  0.4264  0.5187
 2770TIP3    H129725   2.705   3.942   0.388 -1.0138 -0.7303  0.5059
 2770TIP3    H229726   2.586   3.927   0.481 -0.6707  1.4092  1.3477
 2771TIP3   OH229727   6.117   1.779  12.511  0.3266  0.5484 -0.0474
 2771TIP3    H129728   6.121   1.708  12.447  0.9076  0.4031  0.1452
 2771TIP3    H229729   6.127   1.859  12.458 -1.1523  0.5629 -0.3698
 2772TIP3   OH229730   1.090   3.165  11.618  0.1023  0.0851 -0.1102
 2772TIP3    H129731   1.061   3.169  11.710 -2.1342  1.1226 -0.7875
 2772TIP3    H229732   1.135   3.249  11.604  0.9567 -0.3138  0.1597
 2773TIP3   OH229733   5.032   5.718   3.759  0.3943 -0.2072 -0.1701
 2773TIP3    H129734   4.952   5.667   3.746  0.8780 -1.4281  1.3886
 2773TIP3    H229735   5.026   5.750   3.849  1.9006 -0.8011  0.1689
 2774TIP3   OH229736   5.021   2.651  12.305 -0.6739 -0.1571  0.3162
 2774TIP3    H129737   4.976   2.574  12.271  1.3060 -1.6606  0.9055
 2774TIP3    H229738   5.063   2.621  12.385  0.0923  1.5753  0.6108
 2775TIP3   OH229739   4.989   3.268   2.064 -0.1816 -0.2717  0.1637
 2775TIP3    H129740   4.963   3.187   2.108  0.5960  0.9018  3.0379
 2775TIP3    H229741   5.085   3.268   2.069 -0.1196  0.3468 -0.7742
 2776TIP3   OH229742   6.748   4.591  16.268 -0.5810 -0.4243 -0.0386
 2776TIP3    H129743   6.815   4.611  16.334  0.1452 -1.8331 -0.3088
 2776TIP3    H229744   6.701   4.673  16.256 -0.8460 -0.1608  2.3519
 2777TIP3   OH229745   2.240   0.279   0.828 -0.4041  0.2942 -0.1175
 2777TIP3    H129746   2.274   0.285   0.917 -0.2958  0.6069 -0.1769
 2777TIP3    H229747   2.161   0.333   0.829 -1.9672 -1.9105  0.5054
 2778TIP3   OH229748   2.996   2.014   3.399  0.6182 -0.7610 -0.2406
 2778TIP3    H129749   3.033   1.999   3.486  0.6573 -0.2828 -0.1748
 2778TIP3    H229750   2.901   2.015   3.413  0.6556  1.8683  0.2354
 2779TIP3   OH229751   4.370   3.933  14.589 -0.5149  0.2166 -0.4496
 2779TIP3    H129752   4.360   3.846  14.627  0.8987 -0.1120 -0.7492
 2779TIP3    H229753   4.409   3.917  14.503  0.2498  1.1572 -0.2894
 2780TIP3   OH229754   5.646   3.026   1.085  0.1574 -0.2336 -0.6389
 2780TIP3    H129755   5.619   2.955   1.027 -0.2187  0.3639 -1.2252
 2780TIP3    H229756   5.601   3.009   1.167  2.5183 -2.4043  0.3387
 2781TIP3   OH229757   2.744   4.428  16.565  0.1276 -0.6178  0.0473
 2781TIP3    H129758   2.651   4.449  16.566  0.6969  2.2644  1.3980
 2781TIP3    H229759   2.767   4.426  16.472 -1.0372 -0.2227 -0.2719
 2782TIP3   OH229760   3.785   1.286  12.889  0.0795 -0.0126  0.1091
 2782TIP3    H129761   3.826   1.273  12.975  0.7546  1.1099 -0.0193
 2782TIP3    H229762   3.841   1.236  12.829  2.5195  2.9769 -0.3495
 2783TIP3   OH229763   0.027   4.353   1.358 -0.0120 -0.6281 -0.0705
 2783TIP3    H129764   0.001   4.283   1.418 -0.8862  1.2751  1.9029
 2783TIP3    H229765  -0.027   4.340   1.280 -1.7212 -0.9355  1.1114
 2784TIP3   OH229766   3.053   0.658  12.239  0.3597 -0.8034 -0.0409
 2784TIP3    H129767   3.059   0.563  12.253 -1.5254 -0.6902  2.0451
 2784TIP3    H229768   3.127   0.694  12.287 -0.2807 -1.1078  1.2178
 2785TIP3   OH229769   4.654   0.448  12.895 -0.0698  0.9014 -0.7157
 2785TIP3    H129770   4.606   0.524  12.862  1.8637  1.5749 -2.1299
 2785TIP3    H229771   4.732   0.485  12.935  1.3141 -0.3494 -2.1626
 2786TIP3   OH229772   3.945   2.191  12.293  0.0006  0.1609 -0.3777
 2786TIP3    H129773   4.001   2.137  12.349  0.6324 -0.8747 -1.9121
 2786TIP3    H229774   3.977   2.173  12.204 -3.0792 -0.8688 -1.4085
 2787TIP3   OH229775   3.510   2.003  12.197  0.2256 -0.2270 -0.2301
 2787TIP3    H129776   3.580   1.940  12.215  0.6731  0.5627  0.9396
 2787TIP3    H229777   3.481   2.032  12.284  1.2199  2.4543 -0.7022
 2788TIP3   OH229778   4.965   1.380   5.022 -0.2782  0.4723 -0.8156
 2788TIP3    H129779   5.010   1.335   5.094 -2.3855  0.5687  0.6310
 2788TIP3    H229780   4.978   1.322   4.946 -0.6422 -1.2447  0.3681
 2789TIP3   OH229781   0.078   4.614  13.882  0.0226  0.1734  0.3050
 2789TIP3    H129782   0.124   4.533  13.905 -2.1317 -0.8010  1.4205
 2789TIP3    H229783   0.120   4.643  13.800  2.1778 -0.9408  0.9514
 2790TIP3   OH229784   1.863   6.225  11.567 -0.4008 -0.2469  0.1793
 2790TIP3    H129785   1.943   6.197  11.611  0.6323  1.3075 -0.6100
 2790TIP3    H229786   1.826   6.292  11.624 -1.6814 -1.6050  0.9989
 2791TIP3   OH229787   0.376   2.574  14.903 -0.1456  0.5550  0.0311
 2791TIP3    H129788   0.431   2.652  14.889 -1.6361  2.1467  2.2737
 2791TIP3    H229789   0.437   2.505  14.928  1.0449  1.6056  0.1054
 2792TIP3   OH229790   3.718   5.558   3.477  0.8610 -0.2653 -0.3897
 2792TIP3    H129791   3.738   5.636   3.425  1.2453 -0.2186 -0.1775
 2792TIP3    H229792   3.650   5.513   3.427  0.1215  0.5663 -0.1581
 2793TIP3   OH229793   1.599   4.133   5.075  0.0968  0.0696 -0.1277
 2793TIP3    H129794   1.631   4.204   5.131  0.3196 -0.4079  0.3542
 2793TIP3    H229795   1.658   4.133   5.000  1.2714 -0.8032  0.7522
 2794TIP3   OH229796   4.104   3.667  15.728 -0.5634  0.2643  0.2114
 2794TIP3    H129797   4.098   3.585  15.776  3.3812  0.1339  0.8095
 2794TIP3    H229798   4.132   3.732  15.793  0.5904  1.0820 -1.0396
 2795TIP3   OH229799   3.846   1.187   3.850 -1.4006 -0.1507 -0.0528
 2795TIP3    H129800   3.876   1.112   3.798  0.8683  0.3897  0.3558
 2795TIP3    H229801   3.925   1.238   3.866 -2.6627  1.6528  0.8139
 2796TIP3   OH229802   1.578   0.959   6.553 -0.4548 -0.0080  0.0451
 2796TIP3    H129803   1.640   0.895   6.518  0.0104  0.4334  0.0428
 2796TIP3    H229804   1.495   0.912   6.559  0.1677 -1.0138  1.2641
 2797TIP3   OH229805   5.581   5.923  11.440  0.1725  0.1314 -0.4372
 2797TIP3    H129806   5.545   6.008  11.416  1.3025  0.7793  0.0497
 2797TIP3    H229807   5.648   5.905  11.373  1.6335  0.8060  0.7694
 2798TIP3   OH229808   4.998   6.426  13.839 -0.4185 -0.3937 -0.4389
 2798TIP3    H129809   5.015   6.488  13.768 -0.2811  0.4866  0.3565
 2798TIP3    H229810   4.971   6.480  13.913 -1.6430 -1.3728 -0.1219
 2799TIP3   OH229811   6.409   6.742   3.280  0.3189 -0.2599 -0.3886
 2799TIP3    H129812   6.403   6.646   3.280 -0.5252 -0.3433 -3.6507
 2799TIP3    H229813   6.382   6.767   3.191  0.6506  3.0146  0.3184
 2800TIP3   OH229814   3.262   5.153   1.358  0.0654  0.1818  0.1369
 2800TIP3    H129815   3.300   5.176   1.273 -0.8830 -0.9764 -0.6393
 2800TIP3    H229816   3.167   5.164   1.345 -0.0919 -0.0293  1.0512
 2801TIP3   OH229817   4.652   3.716   4.996  0.6320 -0.0376  0.3103
 2801TIP3    H129818   4.580   3.684   5.051  0.1674  0.9755  0.3051
 2801TIP3    H229819   4.618   3.796   4.955  1.4292 -0.0618 -0.4387
 2802TIP3   OH229820   1.261   2.078  13.235 -0.4384  0.1281  0.0782
 2802TIP3    H129821   1.280   2.082  13.141 -3.5946 -0.5118 -0.6874
 2802TIP3    H229822   1.274   2.167  13.266  0.5025  0.3856 -0.9840
 2803TIP3   OH229823   5.880   0.221   2.825 -0.7647  0.1305 -0.3284
 2803TIP3    H129824   5.843   0.220   2.913 -0.4163 -1.4128 -0.1593
 2803TIP3    H229825   5.964   0.176   2.833 -1.0306 -0.6493 -1.5537
 2804TIP3   OH229826   5.148   2.353  11.678 -0.4639 -0.0002 -0.6180
 2804TIP3    H129827   5.165   2.279  11.736  0.9149 -0.2826 -1.3345
 2804TIP3    H229828   5.097   2.316  11.606 -0.7324 -0.0093 -0.4238
 2805TIP3   OH229829   3.228   0.721  11.286  1.1393 -0.7523 -0.1902
 2805TIP3    H129830   3.150   0.767  11.254  1.4042 -0.0832  0.1136
 2805TIP3    H229831   3.295   0.737  11.220  1.7079  0.6940  0.7072
 2806TIP3   OH229832   0.725   1.925   2.126 -0.1894 -0.6359 -0.2858
 2806TIP3    H129833   0.713   1.896   2.217 -2.6249 -0.7369 -0.5725
 2806TIP3    H229834   0.638   1.917   2.087  0.3081  1.5362 -2.0181
 2807TIP3   OH229835   4.840   3.768  11.448  0.1522  0.0890 -0.0279
 2807TIP3    H129836   4.756   3.809  11.466 -0.6667 -2.2027  1.9123
 2807TIP3    H229837   4.823   3.709  11.374  1.0222  2.1765 -1.9989
 2808TIP3   OH229838   2.864   6.046  11.747 -0.6295  0.2983  0.3388
 2808TIP3    H129839   2.842   6.132  11.712 -0.9976 -0.6083 -1.7724
 2808TIP3    H229840   2.891   5.995  11.671  0.8936 -1.0764  1.7239
 2809TIP3   OH229841   5.001   1.861   4.766 -0.4862  0.0822  0.2853
 2809TIP3    H129842   5.069   1.794   4.753 -1.1560 -0.5108 -0.2346
 2809TIP3    H229843   5.040   1.923   4.828 -0.2342 -1.3352  1.5857
 2810TIP3   OH229844   1.449   4.898   2.087  0.0856  0.0514  0.2825
 2810TIP3    H129845   1.535   4.856   2.090 -0.6348 -1.5976 -0.8737
 2810TIP3    H229846   1.456   4.971   2.149  2.2114 -0.2089  0.4247
 2811TIP3   OH229847   2.110   5.156  14.295  0.5867 -0.4728  0.4634
 2811TIP3    H129848   2.191   5.205  14.311 -1.0883  2.9970 -0.6279
 2811TIP3    H229849   2.117   5.129  14.203 -0.4394  2.1268 -0.4729
 2812TIP3   OH229850   0.369   3.429  15.438 -0.0170 -0.1928  0.0152
 2812TIP3    H129851   0.358   3.444  15.344  1.9755 -0.1521 -0.2662
 2812TIP3    H229852   0.315   3.495  15.480 -1.2737 -0.4832 -1.0902
 2813TIP3   OH229853   4.572   1.218  11.922 -0.6226 -0.6044  0.4875
 2813TIP3    H129854   4.494   1.164  11.935 -3.3756  2.9693  0.2665
 2813TIP3    H229855   4.594   1.206  11.829 -2.2047 -0.1775  0.0193
 2814TIP3   OH229856   4.120   2.481   5.831 -0.3345  0.4050  0.6255
 2814TIP3    H129857   4.094   2.558   5.781  1.1157 -0.5621 -1.7816
 2814TIP3    H229858   4.052   2.416   5.812 -0.7804  0.6057  1.4809
 2815TIP3   OH229859   0.477   5.892  15.519 -0.1237  0.6408  0.5602
 2815TIP3    H129860   0.541   5.953  15.482  0.4806  1.8849  3.3993
 2815TIP3    H229861   0.529   5.822  15.559 -0.6788  0.0399  0.2595
 2816TIP3   OH229862   5.932   1.183  12.145  0.4685 -0.3435  0.5304
 2816TIP3    H129863   5.907   1.267  12.108  1.7127 -0.8505 -1.6330
 2816TIP3    H229864   6.015   1.200  12.191  1.4149 -0.5783 -1.0194
 2817TIP3   OH229865   0.421   5.295  15.417  0.5255  0.4683  0.1794
 2817TIP3    H129866   0.409   5.201  15.404 -2.2266  0.7618 -0.0392
 2817TIP3    H229867   0.516   5.308  15.413  1.0876 -2.4208  1.2943
 2818TIP3   OH229868   0.451   4.811  15.470 -0.1538  0.3146 -0.2186
 2818TIP3    H129869   0.389   4.851  15.531  0.8723  2.1605 -0.2954
 2818TIP3    H229870   0.467   4.879  15.404  1.3349 -0.3680 -0.6140
 2819TIP3   OH229871   0.644   5.122  16.007 -0.1441 -0.1209  0.7278
 2819TIP3    H129872   0.659   5.043  15.954 -2.1916 -1.4981  2.0801
 2819TIP3    H229873   0.549   5.130  16.012  0.0146  1.2330  2.3535
 2820TIP3   OH229874   3.209   2.678  17.066 -0.2805 -0.6678  0.4939
 2820TIP3    H129875   3.263   2.728  17.129  3.0601 -3.9753  0.5989
 2820TIP3    H229876   3.265   2.669  16.989 -2.5820 -0.4544 -1.2729
 2821TIP3   OH229877   3.788   6.242  15.880  0.0784  0.3072  0.0138
 2821TIP3    H129878   3.882   6.257  15.869  0.1064  1.4671  1.4929
 2821TIP3    H229879   3.780   6.147  15.890  0.7897 -0.0678 -2.3589
 2822TIP3   OH229880   5.535   5.897  16.812 -0.6220  0.2332 -0.7287
 2822TIP3    H129881   5.596   5.931  16.878  0.1465 -0.3005 -1.1503
 2822TIP3    H229882   5.474   5.843  16.863  0.4986 -0.8951 -0.5475
 2823TIP3   OH229883   0.858   3.802  12.867  0.0321  0.1225 -0.2356
 2823TIP3    H129884   0.897   3.784  12.781 -0.1777  0.7485 -0.4631
 2823TIP3    H229885   0.766   3.819  12.850 -0.5628 -2.1166  0.3912
 2824TIP3   OH229886   1.346   4.248  12.781  0.4525 -0.5354  0.0030
 2824TIP3    H129887   1.396   4.311  12.833 -0.3073 -2.0677  2.7363
 2824TIP3    H229888   1.345   4.286  12.693  0.0991  3.2406  1.4501
 2825TIP3   OH229889   0.581   2.704  13.185 -0.1457  0.4153  0.4556
 2825TIP3    H129890   0.568   2.753  13.267  0.2366 -1.3962  1.6633
 2825TIP3    H229891   0.603   2.616  13.214 -1.4373 -0.6529 -1.6469
 2826TIP3   OH229892   4.106   3.890  15.183 -0.4932 -0.5458 -0.0986
 2826TIP3    H129893   4.155   3.846  15.253  0.6048 -0.8062 -0.9845
 2826TIP3    H229894   4.055   3.957  15.228  2.0430  0.9625  0.7689
 2827TIP3   OH229895   5.812   4.879   0.842  0.2848  0.0056 -0.4110
 2827TIP3    H129896   5.894   4.874   0.793  0.5258  0.3878 -0.0616
 2827TIP3    H229897   5.839   4.866   0.933  0.0808  1.0367 -0.1965
 2828TIP3   OH229898   5.259   2.758   3.734 -0.2880 -0.1864 -0.1008
 2828TIP3    H129899   5.284   2.749   3.642  0.7587  0.2599  0.1260
 2828TIP3    H229900   5.277   2.672   3.772  0.7462  0.0658  0.0097
 2829TIP3   OH229901   3.780   2.077   2.947  0.5098 -0.0642 -0.2760
 2829TIP3    H129902   3.839   2.011   2.911  1.2366  0.5019 -0.1472
 2829TIP3    H229903   3.761   2.135   2.874  0.4256 -0.0137 -0.2148
 2830TIP3   OH229904   0.188   1.439   2.122  0.0876  0.2777 -0.2037
 2830TIP3    H129905   0.114   1.415   2.179  0.5294  0.1738  0.3294
 2830TIP3    H229906   0.242   1.360   2.119 -0.4776 -0.0938 -1.6522
 2831TIP3   OH229907   6.450   0.432   4.505 -0.2652  1.0654  0.2069
 2831TIP3    H129908   6.528   0.377   4.506 -0.9019  0.1113 -0.4517
 2831TIP3    H229909   6.456   0.481   4.423  0.7104  2.6323  1.1692
 2832TIP3   OH229910   6.730   1.660  16.535  0.0210 -0.3572  0.0833
 2832TIP3    H129911   6.816   1.697  16.517 -1.0988  1.5812 -1.7768
 2832TIP3    H229912   6.693   1.641  16.449 -2.1044  0.6334  0.7019
 2833TIP3   OH229913   2.714   0.526  11.386  0.6027 -0.7548 -0.9699
 2833TIP3    H129914   2.783   0.576  11.429  1.3520 -1.4807 -1.2979
 2833TIP3    H229915   2.642   0.525  11.450  0.7784  0.2468 -0.7364
 2834TIP3   OH229916   6.659   6.077  13.753  0.1052  0.0670  0.4184
 2834TIP3    H129917   6.587   6.135  13.728  1.6963  1.6309 -0.7272
 2834TIP3    H229918   6.626   6.030  13.830 -0.9484  3.1030  1.9792
 2835TIP3   OH229919   5.095   2.020  16.268  0.4366  0.5641  0.1344
 2835TIP3    H129920   5.040   1.995  16.343  1.7424 -0.1980  0.8639
 2835TIP3    H229921   5.033   2.055  16.204 -0.6874  1.5345  1.6805
 2836TIP3   OH229922   1.787   5.426   1.508 -0.1141  0.6370  0.1616
 2836TIP3    H129923   1.772   5.334   1.529  1.3635  0.0183 -1.2660
 2836TIP3    H229924   1.865   5.450   1.557  0.4765  0.6220 -0.7536
 2837TIP3   OH229925   3.747   2.711  10.746  0.1412  0.5093 -0.1490
 2837TIP3    H129926   3.824   2.694  10.692  0.6305  0.9517  0.3933
 2837TIP3    H229927   3.679   2.737  10.683  0.3283 -0.2263 -0.6645
 2838TIP3   OH229928   4.754   3.040  14.317 -0.2849 -0.3748 -0.1845
 2838TIP3    H129929   4.732   3.030  14.225 -0.0285  0.0115 -0.2930
 2838TIP3    H229930   4.773   3.134  14.327 -0.4337 -0.3913  0.2867
 2839TIP3   OH229931   5.904   4.423  13.979  0.1649 -0.0313  0.2200
 2839TIP3    H129932   5.954   4.504  13.988 -1.2458  1.0893 -1.3622
 2839TIP3    H229933   5.813   4.449  13.996 -0.5696 -0.8366 -2.1089
 2840TIP3   OH229934   2.288   6.345   5.080 -0.1831 -0.4909 -0.2355
 2840TIP3    H129935   2.297   6.426   5.130  1.7065  0.5710 -2.1334
 2840TIP3    H229936   2.243   6.285   5.140 -1.2838  1.7886  1.3944
 2841TIP3   OH229937   6.693   5.103  13.239  0.1081 -0.0713  0.6866
 2841TIP3    H129938   6.714   5.012  13.261 -0.1380 -0.7637 -1.6434
 2841TIP3    H229939   6.670   5.100  13.146 -1.2418  2.1730  0.8845
 2842TIP3   OH229940   3.586   6.047   5.692  0.1957  0.0324 -0.3117
 2842TIP3    H129941   3.525   6.014   5.757  0.8357 -0.8506 -0.1444
 2842TIP3    H229942   3.603   6.137   5.719 -0.8363  0.2080 -0.2248
 2843TIP3   OH229943   3.903   3.277  14.869  0.7865  0.8957  0.5801
 2843TIP3    H129944   3.883   3.357  14.820 -0.4050 -0.3517 -1.0916
 2843TIP3    H229945   3.818   3.233  14.879  1.6989 -1.3388 -0.7731
 2844TIP3   OH229946   0.601   0.172  16.419 -0.0463 -0.3855  0.2643
 2844TIP3    H129947   0.689   0.160  16.455 -0.6397 -1.4230  1.4475
 2844TIP3    H229948   0.576   0.261  16.445  0.2607 -0.4605  0.8374
 2845TIP3   OH229949   2.469   4.202  14.446  0.3437  0.2159  0.7073
 2845TIP3    H129950   2.382   4.229  14.415  0.9957  2.8941  0.9303
 2845TIP3    H229951   2.504   4.148  14.376 -1.2539 -0.4419  0.3645
 2846TIP3   OH229952   1.186   3.086   2.891  0.3742 -0.3340  0.2821
 2846TIP3    H129953   1.139   3.108   2.972 -0.0978 -0.8796  0.1636
 2846TIP3    H229954   1.133   3.124   2.821  0.1288 -0.9064  0.1515
 2847TIP3   OH229955   2.932   4.365   1.092  0.8925  0.0324 -0.4897
 2847TIP3    H129956   2.987   4.318   1.155 -2.5116 -2.1796  1.1494
 2847TIP3    H229957   2.939   4.457   1.117  1.2827 -0.5595  1.8086
 2848TIP3   OH229958   6.242   1.648   0.242  0.3194  0.1632  0.3179
 2848TIP3    H129959   6.256   1.554   0.249  0.7814  0.3536  2.3470
 2848TIP3    H229960   6.314   1.679   0.187  2.1670 -0.2594  2.3671
 2849TIP3   OH229961   4.438   0.291   5.061  0.4098 -0.0065  0.1561
 2849TIP3    H129962   4.521   0.246   5.079  1.2182  0.9710 -0.9949
 2849TIP3    H229963   4.428   0.353   5.133  0.0992 -0.8751  0.8853
 2850TIP3   OH229964   2.206   2.673  12.239 -0.9503 -0.0459 -0.2398
 2850TIP3    H129965   2.220   2.583  12.209 -1.0923 -0.3065  0.4456
 2850TIP3    H229966   2.257   2.680  12.320  0.4812  1.0509 -1.1858
 2851TIP3   OH229967   1.057   2.194  11.834 -0.0706 -0.1334 -0.2940
 2851TIP3    H129968   1.086   2.264  11.775  0.2355  0.2470  0.2912
 2851TIP3    H229969   1.002   2.138  11.780  2.1394 -1.1675 -1.6205
 2852TIP3   OH229970   3.718   4.835   2.209  0.8387 -0.1455  0.1527
 2852TIP3    H129971   3.659   4.760   2.204 -1.7624  1.7822 -0.6540
 2852TIP3    H229972   3.720   4.858   2.303 -0.0573 -0.0105  0.1482
 2853TIP3   OH229973   0.031   1.540   3.183 -0.2157 -0.2975 -0.2752
 2853TIP3    H129974   0.123   1.530   3.161 -0.0486 -0.0661  0.2805
 2853TIP3    H229975  -0.016   1.521   3.102  0.4316  2.7937 -1.5328
 2854TIP3   OH229976   2.742   4.943   6.401  0.9331 -0.8640  0.2940
 2854TIP3    H129977   2.744   4.958   6.306 -0.0190 -3.0968 -0.1325
 2854TIP3    H229978   2.650   4.925   6.420  0.9265  0.5386  1.8617
 2855TIP3   OH229979   0.729   4.656   1.208 -0.5238 -0.0024  0.0926
 2855TIP3    H129980   0.637   4.636   1.193 -0.4589 -0.1935 -0.0573
 2855TIP3    H229981   0.731   4.751   1.222 -0.8797 -0.1371  1.1410
 2856TIP3   OH229982   6.149   3.642  17.383 -0.0561 -0.1828 -0.6875
 2856TIP3    H129983   6.079   3.702  17.359 -1.3906 -0.6708  1.6815
 2856TIP3    H229984   6.166   3.592  17.303 -0.7093  1.5632 -1.9691
 2857TIP3   OH229985   6.496   5.018  14.707  0.4493  0.2015  0.4961
 2857TIP3    H129986   6.414   5.067  14.720  1.0762  1.6255 -0.5731
 2857TIP3    H229987   6.533   5.009  14.795 -0.8135 -0.4119  0.9858
 2858TIP3   OH229988   5.700   3.953   5.335  0.5338 -0.3320 -0.0991
 2858TIP3    H129989   5.713   3.916   5.423  0.9077 -1.2869 -0.5436
 2858TIP3    H229990   5.720   4.046   5.346  2.2481 -0.7320  0.4850
 2859TIP3   OH229991   5.216   5.901  13.428  0.0546  0.0889 -0.1480
 2859TIP3    H129992   5.275   5.833  13.395  0.4824 -0.1836  1.1202
 2859TIP3    H229993   5.182   5.944  13.349 -0.2831 -1.6316 -0.9793
 2860TIP3   OH229994   1.442   4.684  12.462 -0.2632 -0.0214 -0.6229
 2860TIP3    H129995   1.393   4.603  12.453 -0.5204  0.1545 -0.7943
 2860TIP3    H229996   1.376   4.753  12.457  0.0970  0.2589 -1.7473
 2861TIP3   OH229997   2.630   6.259   5.148 -0.2213  0.5833 -0.0877
 2861TIP3    H129998   2.598   6.322   5.084  0.6288 -0.1255 -1.2659
 2861TIP3    H229999   2.580   6.179   5.131  1.5886 -0.3299 -1.5031
 2862TIP3   OH230000   4.139   2.388  12.059  0.0258  0.5412  0.1457
 2862TIP3    H130001   4.183   2.464  12.021 -0.1507 -0.0458 -1.2685
 2862TIP3    H230002   4.091   2.423  12.134 -0.1251  1.8476 -0.5368
 2863TIP3   OH230003   3.485   1.309   5.314 -0.5835  0.1284  0.3401
 2863TIP3    H130004   3.507   1.222   5.348  2.9917  0.4566 -0.7734
 2863TIP3    H230005   3.436   1.292   5.234  0.0784 -0.8889  0.1328
 2864TIP3   OH230006   4.754   1.730   4.487  0.0252  0.4141 -0.3527
 2864TIP3    H130007   4.828   1.787   4.506 -0.6031  1.0570  0.2143
 2864TIP3    H230008   4.680   1.769   4.534 -0.4366 -0.8457  0.0134
 2865TIP3   OH230009   2.263   4.980   4.946 -0.5405  0.2178 -0.0766
 2865TIP3    H130010   2.303   5.062   4.917 -1.2830  0.6643  0.1448
 2865TIP3    H230011   2.265   4.924   4.868  0.2189  0.3353 -0.1557
 2866TIP3   OH230012   0.528   3.721   5.617  0.4250 -0.0494  0.2676
 2866TIP3    H130013   0.548   3.772   5.538  0.9749 -0.1096  0.3664
 2866TIP3    H230014   0.571   3.769   5.688  0.3631 -0.2769  0.4590
 2867TIP3   OH230015   3.967   3.363   0.229  0.2567  0.3037  0.1873
 2867TIP3    H130016   4.002   3.416   0.158  0.4311  0.9778  0.7684
 2867TIP3    H230017   4.038   3.360   0.294  0.3541 -0.8698  0.0457
 2868TIP3   OH230018   2.470   1.473  11.331 -0.0512  0.0017  0.4496
 2868TIP3    H130019   2.538   1.511  11.386  1.3441 -2.7710  0.8356
 2868TIP3    H230020   2.517   1.408  11.277 -1.7550  0.8502 -2.2821
 2869TIP3   OH230021   5.386   0.394  12.691 -0.0044 -0.3922 -0.4704
 2869TIP3    H130022   5.305   0.373  12.644  1.2317 -1.1997 -2.3621
 2869TIP3    H230023   5.384   0.339  12.769 -0.9580 -0.9091 -0.8517
 2870TIP3   OH230024   5.737   3.848  15.977  0.6135 -0.0266 -0.1732
 2870TIP3    H130025   5.711   3.806  16.060  0.9266  0.7929  0.3526
 2870TIP3    H230026   5.656   3.879  15.939  0.4129 -0.8261 -0.4124
 2871TIP3   OH230027   0.856   1.547  15.063 -0.2437 -0.0785  0.0320
 2871TIP3    H130028   0.950   1.527  15.062 -0.4822 -1.2822  0.2656
 2871TIP3    H230029   0.838   1.579  14.974 -0.0741 -2.2890 -0.8701
 2872TIP3   OH230030   3.595   3.204   2.571 -0.7385  0.5445 -0.3501
 2872TIP3    H130031   3.680   3.167   2.594 -1.5201 -0.0987  1.6942
 2872TIP3    H230032   3.613   3.295   2.549  0.3461  0.6941  1.0848
 2873TIP3   OH230033   4.754   4.028   5.127  0.4922  0.2640  0.3084
 2873TIP3    H130034   4.824   3.987   5.077 -1.4370 -1.6386 -1.0284
 2873TIP3    H230035   4.753   3.983   5.211 -0.2487 -1.0534 -0.3672
 2874TIP3   OH230036   1.852   3.899   4.930 -0.1349 -0.0033  0.0723
 2874TIP3    H130037   1.788   3.947   4.878  0.3534  1.7977  1.0058
 2874TIP3    H230038   1.817   3.811   4.937 -2.0655  0.6902 -0.1818
 2875TIP3   OH230039   4.519   4.581   2.746  0.4373  0.1633 -0.1615
 2875TIP3    H130040   4.462   4.658   2.739  1.9062  1.3200  0.0194
 2875TIP3    H230041   4.528   4.566   2.840  0.5989  0.1139 -0.1849
 2876TIP3   OH230042   2.506   1.529  15.373  0.6468  0.4747 -0.6014
 2876TIP3    H130043   2.575   1.566  15.318  0.2827  0.5633 -1.0060
 2876TIP3    H230044   2.436   1.594  15.371  1.1860  1.1562  1.1679
 2877TIP3   OH230045   0.084   6.011  16.958 -0.2089  0.4207 -0.0851
 2877TIP3    H130046   0.087   6.048  16.869  0.4121 -0.2223 -0.3468
 2877TIP3    H230047   0.136   6.071  17.011 -0.5179  0.7668 -0.1750
 2878TIP3   OH230048   5.114   5.438   2.762 -0.4363 -0.1881  0.4973
 2878TIP3    H130049   5.167   5.364   2.734  0.7011 -0.2357  2.5900
 2878TIP3    H230050   5.024   5.408   2.753 -0.0052 -1.7059  0.9539
 2879TIP3   OH230051   6.346   5.326   2.023 -0.5754 -0.2427 -0.2461
 2879TIP3    H130052   6.369   5.379   1.947 -0.5033 -1.5811 -1.2025
 2879TIP3    H230053   6.251   5.334   2.031 -0.3428  1.9666  1.1559
 2880TIP3   OH230054   5.571   4.923  11.037  0.1275  0.1943  0.4168
 2880TIP3    H130055   5.547   4.940  10.946  1.5425  2.4208  0.3914
 2880TIP3    H230056   5.666   4.930  11.038  0.0653  1.3542  2.2386
 2881TIP3   OH230057   3.805   5.364   2.968  0.2919 -0.5896  0.5133
 2881TIP3    H130058   3.762   5.281   2.949 -1.4008  0.5747 -1.1721
 2881TIP3    H230059   3.868   5.375   2.896  1.7485 -1.1390  1.6477
 2882TIP3   OH230060   4.915   0.145  14.087  0.1984 -0.3117  0.1485
 2882TIP3    H130061   4.988   0.087  14.069  0.2120 -0.6412  1.2137
 2882TIP3    H230062   4.916   0.157  14.182 -1.7304 -1.1328  0.3086
 2883TIP3   OH230063   6.363   1.380  12.380 -0.2784  0.1780 -0.0981
 2883TIP3    H130064   6.298   1.338  12.324  1.3464  0.4726 -2.3230
 2883TIP3    H230065   6.437   1.320  12.379 -0.5792 -0.3771  2.7632
 2884TIP3   OH230066   3.411   2.672  13.297 -0.7391 -0.1456 -0.0598
 2884TIP3    H130067   3.504   2.656  13.279 -0.6422  0.4391 -0.1094
 2884TIP3    H230068   3.392   2.753  13.249 -0.4166  1.6274  2.6091
 2885TIP3   OH230069   6.533   6.505   5.188 -0.1649  0.0077 -0.6880
 2885TIP3    H130070   6.454   6.554   5.165  0.4852  0.6875 -1.5188
 2885TIP3    H230071   6.533   6.431   5.128  0.2374  0.4380 -1.2239
 2886TIP3   OH230072   3.869   3.167  13.101 -0.0219  0.5795 -0.3100
 2886TIP3    H130073   3.899   3.207  13.019 -0.8533  0.6209 -0.6159
 2886TIP3    H230074   3.899   3.226  13.169  0.2495  0.8171 -0.6304
 2887TIP3   OH230075   3.032   0.444  16.592  0.2042  0.2009  0.1925
 2887TIP3    H130076   2.948   0.484  16.615  0.2303  0.0939  0.4783
 2887TIP3    H230077   3.025   0.426  16.498  1.0840  3.0265 -0.5204
 2888TIP3   OH230078   6.291   4.602   1.266 -0.2957  0.1579  0.0584
 2888TIP3    H130079   6.355   4.587   1.196  1.6381  1.7465  1.3595
 2888TIP3    H230080   6.261   4.692   1.251 -2.2663 -0.5414 -0.4930
 2889TIP3   OH230081   2.096   0.037  13.801 -0.6268  0.1131  0.1309
 2889TIP3    H130082   2.017  -0.011  13.828  0.5213 -3.1638 -1.6825
 2889TIP3    H230083   2.087   0.046  13.706  0.6298  0.7952  0.0586
 2890TIP3   OH230084   2.011   5.405  15.495 -0.6979  0.0392 -0.0846
 2890TIP3    H130085   1.945   5.462  15.536  0.3912 -0.3170  2.3942
 2890TIP3    H230086   2.028   5.338  15.561  1.2168 -0.5997 -1.1654
 2891TIP3   OH230087   1.852   4.494   5.336  0.3274  0.0184  0.2504
 2891TIP3    H130088   1.822   4.569   5.284 -2.6811 -0.6254  0.8446
 2891TIP3    H230089   1.941   4.517   5.362  0.1822  2.5220 -1.1369
 2892TIP3   OH230090   6.518   2.431   6.037  0.0715 -0.2046 -0.2505
 2892TIP3    H130091   6.612   2.443   6.048  0.3275 -2.2396  0.1425
 2892TIP3    H230092   6.502   2.339   6.061 -2.1808  0.3823  0.7962
 2893TIP3   OH230093   1.025   4.474  15.646 -0.3039  0.2811  0.0850
 2893TIP3    H130094   1.089   4.402  15.644 -0.3219  0.1819  1.6056
 2893TIP3    H230095   0.989   4.471  15.735 -2.3066  0.4499 -0.6664
 2894TIP3   OH230096   6.446   5.737  14.223 -0.0057  0.2489  0.0059
 2894TIP3    H130097   6.411   5.816  14.182  3.1819  1.2864 -0.9606
 2894TIP3    H230098   6.539   5.755  14.236  0.7122 -3.0896  0.4578
 2895TIP3   OH230099   2.875   6.206  15.212  0.0969  0.2916  0.0180
 2895TIP3    H130100   2.859   6.292  15.175 -0.6089 -0.3572 -1.2351
 2895TIP3    H230101   2.879   6.221  15.307 -0.7165  1.5871 -0.1328
 2896TIP3   OH230102   2.797   3.292   3.766 -0.2330  0.7730  0.7185
 2896TIP3    H130103   2.793   3.291   3.671 -0.6671 -0.3481  0.7344
 2896TIP3    H230104   2.873   3.238   3.787 -1.4789 -0.9182  1.0397
 2897TIP3   OH230105   6.706   2.233  17.119 -0.0932  0.2845 -0.2636
 2897TIP3    H130106   6.772   2.296  17.088 -0.6609  1.5907  1.0853
 2897TIP3    H230107   6.622   2.272  17.095 -0.4798  0.4280  1.2462
 2898TIP3   OH230108   4.644   6.458  11.566  0.6335  0.0978  0.4142
 2898TIP3    H130109   4.651   6.517  11.491  1.9403 -0.3443  0.1582
 2898TIP3    H230110   4.694   6.381  11.541 -0.7942 -1.0268  0.8585
 2899TIP3   OH230111   0.895   2.363  16.074 -0.2265 -0.0390  0.2997
 2899TIP3    H130112   0.922   2.451  16.102 -0.1203  0.2472 -0.6633
 2899TIP3    H230113   0.801   2.360  16.094 -0.4647  0.6963 -0.5934
 2900TIP3   OH230114   1.963   3.809  12.690  0.0590 -0.0547  0.4731
 2900TIP3    H130115   2.018   3.776  12.619 -0.8149  0.1581 -0.3213
 2900TIP3    H230116   1.888   3.749  12.691 -1.1250  1.3478 -0.4191
 2901TIP3   OH230117   5.334   5.081   2.419 -0.0772 -0.7378  0.4702
 2901TIP3    H130118   5.429   5.095   2.421 -0.2791  0.8862  0.3401
 2901TIP3    H230119   5.314   5.066   2.327 -0.1842  1.2142  0.1216
 2902TIP3   OH230120   5.861   5.584   1.043 -0.4227  1.1467  0.0937
 2902TIP3    H130121   5.806   5.516   1.081 -0.3574  1.1851  0.2615
 2902TIP3    H230122   5.807   5.663   1.045 -0.5729  1.0553 -0.2942
 2903TIP3   OH230123   6.183   0.452   4.490  0.2792 -0.1969 -0.3056
 2903TIP3    H130124   6.148   0.392   4.425 -0.8407 -1.2272  1.1651
 2903TIP3    H230125   6.278   0.443   4.484  0.2057 -0.1329 -1.8675
 2904TIP3   OH230126   4.208   3.231  10.470 -0.6403 -0.1329  0.1983
 2904TIP3    H130127   4.158   3.308  10.444 -3.0722 -0.9914  1.9789
 2904TIP3    H230128   4.275   3.265  10.529  1.0950  1.0563 -2.3090
 2905TIP3   OH230129   6.419   3.265  15.984 -0.2231 -0.3733 -0.2626
 2905TIP3    H130130   6.345   3.308  15.942  0.3979 -0.0412 -1.0321
 2905TIP3    H230131   6.426   3.180  15.941 -0.3299 -0.5199  0.0072
 2906TIP3   OH230132   3.221   1.290   3.074  0.0759  0.0730 -0.4797
 2906TIP3    H130133   3.316   1.288   3.064 -0.0935 -0.1164 -2.4538
 2906TIP3    H230134   3.197   1.199   3.091  0.2658  0.2041  0.5844
 2907TIP3   OH230135   5.114   2.334   0.929  0.0558  0.1176 -0.0434
 2907TIP3    H130136   5.030   2.338   0.975  0.8145 -0.5197  1.4759
 2907TIP3    H230137   5.158   2.257   0.965  1.0478  0.0662 -1.2664
 2908TIP3   OH230138   1.367   1.581   0.269 -0.0722  0.2670  0.2632
 2908TIP3    H130139   1.347   1.497   0.309 -1.6581  1.2780  1.7512
 2908TIP3    H230140   1.282   1.618   0.246  0.5934  1.4199 -0.4690
 2909TIP3   OH230141   0.111   3.255  12.907 -0.3528  0.1513  0.1962
 2909TIP3    H130142   0.023   3.218  12.901 -1.6765  2.9854  0.7806
 2909TIP3    H230143   0.165   3.182  12.939 -2.0792 -2.1196 -1.6576
 2910TIP3   OH230144   4.343   4.767   2.851 -0.3095 -0.0959  0.1459
 2910TIP3    H130145   4.297   4.717   2.918 -2.2026  1.0246 -0.2355
 2910TIP3    H230146   4.273   4.802   2.795  1.0531  1.1969 -0.8285
 2911TIP3   OH230147   2.459   5.689  16.488  0.2943  0.3348 -0.0461
 2911TIP3    H130148   2.491   5.611  16.534  0.5892  1.2115  1.2883
 2911TIP3    H230149   2.519   5.699  16.414 -0.1161 -1.0328 -0.5978
 2912TIP3   OH230150   5.361   1.170   4.978 -0.1866  0.8242  0.1102
 2912TIP3    H130151   5.293   1.153   5.043 -0.3220  0.8535 -0.0215
 2912TIP3    H230152   5.374   1.087   4.933  0.7120  0.5021  0.9183
 2913TIP3   OH230153   3.803   0.168   5.746  0.3388  0.1618  0.1115
 2913TIP3    H130154   3.736   0.230   5.716 -0.3472 -0.8425 -0.4562
 2913TIP3    H230155   3.754   0.103   5.797  0.9856 -0.2070  0.2706
 2914TIP3   OH230156   5.258   4.753   4.962  0.8500 -0.0839  0.3258
 2914TIP3    H130157   5.171   4.790   4.944  0.3787 -0.6126  1.4303
 2914TIP3    H230158   5.308   4.825   4.999  1.0569  0.3614 -0.7890
 2915TIP3   OH230159   4.657   3.408  12.748 -0.2465 -0.2313  0.3309
 2915TIP3    H130160   4.712   3.352  12.693  2.7032  2.4679  0.2537
 2915TIP3    H230161   4.614   3.468  12.686 -0.1013  0.2316  0.6744
 2916TIP3   OH230162   3.749   0.521  11.520 -0.0481  0.1301 -0.4904
 2916TIP3    H130163   3.761   0.537  11.614  1.1975 -1.2491 -0.3914
 2916TIP3    H230164   3.656   0.537  11.505 -0.1335  1.0485  0.8263
 2917TIP3   OH230165   2.789   0.970   5.283  0.1118 -0.5199 -0.8925
 2917TIP3    H130166   2.818   1.005   5.367  0.7303  0.0064 -1.3175
 2917TIP3    H230167   2.696   0.949   5.296  0.1525 -0.2402 -0.1494
 2918TIP3   OH230168   2.568   2.838   5.593  0.1629  0.1706 -0.1655
 2918TIP3    H130169   2.653   2.833   5.638 -0.0290  1.1634  0.3483
 2918TIP3    H230170   2.506   2.802   5.656  0.2735 -1.1170 -0.7770
 2919TIP3   OH230171   5.329   2.267   4.213 -0.5840 -0.2768 -0.0612
 2919TIP3    H130172   5.406   2.325   4.208  0.9415 -2.2585 -1.0844
 2919TIP3    H230173   5.356   2.188   4.166 -3.2100 -1.1463 -0.2443
 2920TIP3   OH230174   6.558   5.560   0.452 -0.3740 -0.4459  0.6651
 2920TIP3    H130175   6.586   5.646   0.482  0.0695 -0.6874  0.9444
 2920TIP3    H230176   6.636   5.505   0.458 -0.8869 -1.1100  1.4148
 2921TIP3   OH230177   5.644   6.040   1.435 -0.0353  0.9573  0.3848
 2921TIP3    H130178   5.738   6.054   1.452  0.4465  0.5568 -1.6487
 2921TIP3    H230179   5.615   6.122   1.395 -0.1838  0.5449 -0.3596
 2922TIP3   OH230180   0.839   0.310  14.717 -0.2998 -0.0605 -0.1340
 2922TIP3    H130181   0.748   0.320  14.742 -0.7279  3.1424 -2.4201
 2922TIP3    H230182   0.885   0.378  14.765  0.5801 -0.4055 -0.4575
 2923TIP3   OH230183   0.104   1.432   2.566  0.1169  0.2023  0.0282
 2923TIP3    H130184   0.026   1.432   2.622 -0.2418 -0.2899 -0.4514
 2923TIP3    H230185   0.142   1.519   2.578 -0.5443  0.4751  0.2261
 2924TIP3   OH230186   1.342   3.533   2.723  0.2669 -0.0935  0.3168
 2924TIP3    H130187   1.359   3.527   2.629  0.2815  2.2708  0.1114
 2924TIP3    H230188   1.374   3.620   2.748 -0.2863 -0.4297  2.4018
 2925TIP3   OH230189   3.417   1.108   5.493 -0.1238  0.0540  0.5375
 2925TIP3    H130190   3.442   1.041   5.428  1.6359  2.0807 -1.0219
 2925TIP3    H230191   3.458   1.079   5.574  1.6474 -0.2141 -0.3959
 2926TIP3   OH230192   0.264   0.639   1.141  0.4907 -0.6709  0.2543
 2926TIP3    H130193   0.249   0.667   1.051  1.0813 -1.0609  0.0273
 2926TIP3    H230194   0.191   0.676   1.190  0.7148  0.4333 -0.2076
 2927TIP3   OH230195   0.634   1.825   2.367 -0.1984 -0.1819 -0.7297
 2927TIP3    H130196   0.668   1.737   2.354  1.6142  0.4233 -0.3375
 2927TIP3    H230197   0.611   1.830   2.459 -0.2002 -0.2096 -0.7289
 2928TIP3   OH230198   2.359   5.968  15.590  0.0248  0.2446 -0.0162
 2928TIP3    H130199   2.280   6.002  15.548 -0.2080 -0.3518 -0.0682
 2928TIP3    H230200   2.398   5.911  15.525  0.6415  0.7282 -0.0820
 2929TIP3   OH230201   2.955   2.138  12.782  0.1354 -0.1754 -0.4927
 2929TIP3    H130202   2.901   2.131  12.704  0.2528 -0.0016 -0.5882
 2929TIP3    H230203   2.926   2.064  12.837 -0.1803 -0.0980 -0.5520
 2930TIP3   OH230204   5.848   3.579   0.882  0.4849  0.2011  0.0143
 2930TIP3    H130205   5.829   3.552   0.792  0.4739 -1.2585  0.4304
 2930TIP3    H230206   5.762   3.578   0.926  0.6175 -0.0242  0.2712
 2931TIP3   OH230207   4.255   4.091  17.053 -0.8154 -0.0141 -0.3141
 2931TIP3    H130208   4.297   4.072  16.969 -1.4478 -0.2039 -0.5946
 2931TIP3    H230209   4.179   4.143  17.031 -1.0653 -0.1832  0.1314
 2932TIP3   OH230210   5.062   0.789  10.637 -0.2190 -0.1006  0.0144
 2932TIP3    H130211   5.145   0.812  10.680 -0.4536 -0.7059  0.8170
 2932TIP3    H230212   5.069   0.828  10.550  1.1204 -0.5539 -0.1147
 2933TIP3   OH230213   5.667   0.393  11.820  0.1606 -0.7966  1.0034
 2933TIP3    H130214   5.664   0.486  11.840 -0.8128 -0.2681 -1.3286
 2933TIP3    H230215   5.760   0.373  11.808  0.3698 -0.1319  1.4794
 2934TIP3   OH230216   1.234   4.225  14.129  0.2847  0.7072 -0.1530
 2934TIP3    H130217   1.324   4.256  14.119  0.3262  0.2323 -1.4661
 2934TIP3    H230218   1.240   4.130  14.121 -0.3167  0.6614 -0.1105
 2935TIP3   OH230219   6.742   1.424  11.947  0.4704 -0.0057  0.1426
 2935TIP3    H130220   6.717   1.332  11.947  2.1180 -0.4895  0.9798
 2935TIP3    H230221   6.836   1.424  11.965  0.8102  1.7808 -1.2840
 2936TIP3   OH230222   1.471   2.669  13.101 -0.1802  0.3428  0.0438
 2936TIP3    H130223   1.519   2.736  13.052  0.4657 -1.0402 -1.3023
 2936TIP3    H230224   1.382   2.703  13.108  0.4727  1.9933  0.7058
 2937TIP3   OH230225   2.971   4.839   1.302  0.0954 -0.2536  0.8695
 2937TIP3    H130226   3.006   4.893   1.373 -0.2996 -1.1889  1.8055
 2937TIP3    H230227   2.888   4.881   1.279  0.2212  0.0515  0.9692
 2938TIP3   OH230228   1.509   1.239  11.867 -0.3081  0.1990 -0.0164
 2938TIP3    H130229   1.548   1.159  11.903 -0.6826  0.4593  1.0017
 2938TIP3    H230230   1.415   1.220  11.863 -0.1077 -0.7037 -3.1598
 2939TIP3   OH230231   4.335   2.868   1.537 -0.1364 -0.3293 -0.3463
 2939TIP3    H130232   4.399   2.915   1.484  0.8982 -1.9857 -0.6171
 2939TIP3    H230233   4.275   2.936   1.567 -0.1217  0.8435 -2.7206
 2940TIP3   OH230234   5.898   4.205  13.187 -0.2953  0.5370 -0.1544
 2940TIP3    H130235   5.936   4.123  13.220 -1.4247  0.3169  0.6536
 2940TIP3    H230236   5.809   4.182  13.162 -1.3023  1.8722  1.9043
 2941TIP3   OH230237   0.106   4.564  11.973  0.3314 -0.4635 -0.2769
 2941TIP3    H130238   0.056   4.625  11.919 -0.0370 -1.1089 -0.6700
 2941TIP3    H230239   0.057   4.482  11.969  0.6795 -0.7208  0.4591
 2942TIP3   OH230240   2.461   1.397   0.696 -0.1860 -0.6323  0.3191
 2942TIP3    H130241   2.457   1.341   0.774 -0.5313  0.2420  0.9346
 2942TIP3    H230242   2.373   1.432   0.686 -0.2676 -1.1042 -0.7510
 2943TIP3   OH230243   2.890   0.146   5.529 -0.2419  0.0539 -0.0808
 2943TIP3    H130244   2.838   0.078   5.485 -0.6423  0.9028 -0.9598
 2943TIP3    H230245   2.831   0.182   5.595 -0.1478 -0.2191  0.1522
 2944TIP3   OH230246   1.554   0.994   4.074 -0.1080  0.6537 -0.2698
 2944TIP3    H130247   1.475   1.013   4.126  0.4142  1.3233  0.3062
 2944TIP3    H230248   1.626   1.023   4.130  0.5065  0.7844 -1.1176
 2945TIP3   OH230249   5.610   4.385  15.700  0.1022  0.8489  0.5523
 2945TIP3    H130250   5.518   4.376  15.725 -0.1564  0.4452 -0.4750
 2945TIP3    H230251   5.656   4.326  15.759 -0.4740  0.0092  0.1933
 2946TIP3   OH230252   3.001   4.919  15.017 -0.3721 -0.3856 -0.4812
 2946TIP3    H130253   3.052   4.917  14.937 -0.3921 -0.6986 -0.4858
 2946TIP3    H230254   2.930   4.856  15.002 -1.3793  0.7935 -0.8883
 2947TIP3   OH230255   6.045   2.281  12.541  0.4782  0.3077  0.2979
 2947TIP3    H130256   6.089   2.247  12.463  0.9162  1.9274 -0.2034
 2947TIP3    H230257   6.102   2.351  12.572  0.1931 -0.1692  1.9571
 2948TIP3   OH230258   6.033   0.932  12.079  0.4785 -0.1701  0.6351
 2948TIP3    H130259   6.065   0.898  12.163 -2.1433 -1.3727  1.2642
 2948TIP3    H230260   5.992   1.016  12.101 -2.7883 -1.7703  1.2635
 2949TIP3   OH230261   3.538   0.992   5.287 -0.4238  0.0557 -0.0141
 2949TIP3    H130262   3.604   0.948   5.340  0.9851  0.6322 -1.2195
 2949TIP3    H230263   3.569   0.983   5.197 -3.6100 -2.4141 -1.0665
 2950TIP3   OH230264   2.801   3.857   3.249  0.5948  0.3818 -0.5371
 2950TIP3    H130265   2.859   3.834   3.177 -0.7222 -1.2499 -1.1443
 2950TIP3    H230266   2.731   3.908   3.208  1.1437  1.6644  0.0556
 2951TIP3   OH230267   2.763   4.961   6.120 -0.3190  0.3203 -0.2909
 2951TIP3    H130268   2.783   4.868   6.130 -0.9281  0.2265  0.1147
 2951TIP3    H230269   2.695   4.964   6.053 -2.2133  0.2127  1.5172
 2952TIP3   OH230270   4.144   3.811   4.958 -1.1333 -0.1544 -0.1944
 2952TIP3    H130271   4.069   3.803   5.018 -2.5337  0.8474 -1.7201
 2952TIP3    H230272   4.153   3.906   4.945  0.3474 -0.2742 -0.1447
 2953TIP3   OH230273   0.257   1.007   1.110  0.2340  0.5492  0.2541
 2953TIP3    H130274   0.194   1.032   1.042 -0.4283 -0.9424  0.2833
 2953TIP3    H230275   0.226   0.923   1.142  0.3770  1.3257  2.6280
 2954TIP3   OH230276   6.561   1.644  12.031 -0.5957  0.3524  0.2516
 2954TIP3    H130277   6.596   1.619  12.117 -1.1428 -1.7371 -0.0920
 2954TIP3    H230278   6.632   1.625  11.970 -1.0838 -0.5535 -0.0407
 2955TIP3   OH230279   1.895   4.807  14.984 -0.0200  0.8037 -0.1375
 2955TIP3    H130280   1.870   4.820  14.893 -1.4633  0.0685  0.1248
 2955TIP3    H230281   1.990   4.791  14.981  0.2402  2.3185 -1.3276
 2956TIP3   OH230282   5.312   1.993  16.427  0.0479 -0.4463 -0.0775
 2956TIP3    H130283   5.290   2.080  16.460 -0.5795 -0.7920  0.4167
 2956TIP3    H230284   5.246   1.974  16.361 -1.3589 -1.5760  1.5658
 2957TIP3   OH230285   5.291   2.770  13.056  0.1506 -0.2564  0.0806
 2957TIP3    H130286   5.316   2.842  13.114 -1.8132  0.5049  0.0545
 2957TIP3    H230287   5.296   2.807  12.968  1.2926 -0.8542 -0.1290
 2958TIP3   OH230288   5.262   2.477  11.058  0.1825 -0.0458 -0.2544
 2958TIP3    H130289   5.199   2.531  11.106  0.9744  0.2565  0.4689
 2958TIP3    H230290   5.209   2.422  11.001 -0.6625  1.5218 -1.0471
 2959TIP3   OH230291   6.532   5.045   2.596  0.7497 -0.0637  0.7283
 2959TIP3    H130292   6.592   5.118   2.576  0.4075  0.3518  1.1989
 2959TIP3    H230293   6.448   5.087   2.609  0.6207 -0.5166  1.3666
 2960TIP3   OH230294   0.187   1.960   5.438 -0.1872  0.5689 -0.6579
 2960TIP3    H130295   0.248   1.993   5.503  0.3392  0.8541 -1.2883
 2960TIP3    H230296   0.101   1.970   5.479  0.2741 -1.4037  0.9064
 2961TIP3   OH230297   1.864   5.854   2.092  1.0229  0.4556  0.2461
 2961TIP3    H130298   1.788   5.911   2.103  0.6262 -0.1764  0.8680
 2961TIP3    H230299   1.917   5.898   2.025 -0.2510  0.5328 -0.7546
 2962TIP3   OH230300   3.221   2.827  12.203 -0.1302  0.6484  0.5005
 2962TIP3    H130301   3.210   2.823  12.298  0.8603 -0.4963  0.5820
 2962TIP3    H230302   3.296   2.884  12.190  1.8878 -1.8155  0.6252
 2963TIP3   OH230303   4.986   4.086  16.001 -0.7660 -0.4637 -0.1780
 2963TIP3    H130304   4.958   4.130  16.081 -1.8927 -0.3421 -0.6179
 2963TIP3    H230305   5.080   4.074  16.012 -0.5893  1.1940  0.3696
 2964TIP3   OH230306   2.510   1.661   5.998  0.4015 -0.2437 -0.2578
 2964TIP3    H130307   2.526   1.606   6.074  0.4133 -1.7987 -1.3405
 2964TIP3    H230308   2.419   1.644   5.975  0.5641 -0.2203 -0.9277
 2965TIP3   OH230309   3.001   5.642   3.834  0.2747 -0.1192  0.0285
 2965TIP3    H130310   3.039   5.567   3.878 -1.7395 -1.3556 -0.2050
 2965TIP3    H230311   2.937   5.677   3.897 -1.2963 -0.7721 -1.1455
 2966TIP3   OH230312   1.009   2.042  12.061 -0.0071 -0.6709  0.2780
 2966TIP3    H130313   1.080   1.979  12.052  1.5691  1.0888 -0.2242
 2966TIP3    H230314   1.037   2.117  12.009 -2.7109 -0.2803 -0.7701
 2967TIP3   OH230315   4.909   6.530   4.724  0.0595 -0.2955  0.3900
 2967TIP3    H130316   4.896   6.465   4.654  1.9429  0.2420 -0.5307
 2967TIP3    H230317   4.886   6.484   4.804 -1.4388 -1.1801 -0.4972
 2968TIP3   OH230318   1.163   3.686  13.010 -0.7536 -0.2908 -0.2111
 2968TIP3    H130319   1.131   3.683  12.920 -0.0826  0.3387 -0.4885
 2968TIP3    H230320   1.119   3.613  13.054 -0.9729 -0.7019 -1.0835
 2969TIP3   OH230321   1.237   2.112   5.382  0.1177 -0.0061  0.0378
 2969TIP3    H130322   1.299   2.039   5.375  0.8907  0.6878 -0.6042
 2969TIP3    H230323   1.251   2.163   5.302 -0.9719  0.4203  0.0955
 2970TIP3   OH230324   2.197   3.946  13.061  0.4611  0.5030 -0.1389
 2970TIP3    H130325   2.240   3.861  13.067 -1.5155 -0.5009  0.6318
 2970TIP3    H230326   2.232   3.996  13.134  1.0467  0.0696 -0.1142
 2971TIP3   OH230327   0.465   5.122  16.935  0.3725 -0.5952 -0.6284
 2971TIP3    H130328   0.425   5.208  16.927  1.1064 -0.1232  0.5758
 2971TIP3    H230329   0.391   5.061  16.934 -0.3312  0.1952  0.6041
 2972TIP3   OH230330   4.023   0.980   1.625  0.5029  0.2199  0.0796
 2972TIP3    H130331   3.933   0.962   1.597  0.0992  1.4090  0.5544
 2972TIP3    H230332   4.076   0.920   1.574 -0.6347 -1.1712  0.4688
 2973TIP3   OH230333   3.551   1.481  11.041  0.4378 -0.0376 -0.2251
 2973TIP3    H130334   3.548   1.404  11.097  0.9874 -0.8911 -1.3284
 2973TIP3    H230335   3.577   1.448  10.955  0.3612  1.3316 -0.8124
 2974TIP3   OH230336   2.891   0.721   2.642  0.3097  0.3278  0.8460
 2974TIP3    H130337   2.827   0.788   2.665 -0.3698  0.2472 -0.6540
 2974TIP3    H230338   2.963   0.769   2.603 -0.0346  0.2388  0.0722
 2975TIP3   OH230339   1.704   3.586   3.140  0.0858  1.1158  0.4714
 2975TIP3    H130340   1.665   3.532   3.072  1.1086  1.1291 -0.1538
 2975TIP3    H230341   1.723   3.525   3.212 -1.7951  1.2570  1.1261
 2976TIP3   OH230342   3.961   6.137   1.027  0.6082 -0.2167  0.6937
 2976TIP3    H130343   3.900   6.210   1.025  1.4783  0.5322  0.9056
 2976TIP3    H230344   4.025   6.157   0.958  1.2152 -0.4528  1.1826
 2977TIP3   OH230345   3.759   6.042   1.205  0.6256 -0.0252  0.0833
 2977TIP3    H130346   3.839   6.025   1.156 -0.3131 -0.4399 -1.3470
 2977TIP3    H230347   3.688   6.014   1.148 -0.5858  0.7234  1.1418
 2978TIP3   OH230348   0.553   3.622   2.170 -0.4387 -0.1983 -0.0537
 2978TIP3    H130349   0.631   3.678   2.166  0.7052 -1.7316 -0.1092
 2978TIP3    H230350   0.521   3.619   2.080 -0.6091  0.4947 -0.0195
 2979TIP3   OH230351   0.665   6.348   2.774 -0.3503 -0.0663 -0.3106
 2979TIP3    H130352   0.676   6.348   2.679 -0.3811 -0.2307 -0.3154
 2979TIP3    H230353   0.711   6.269   2.804  0.6689  0.6113 -0.0622
 2980TIP3   OH230354   6.705   5.300  12.742  0.6204  0.0360 -0.4904
 2980TIP3    H130355   6.626   5.322  12.791  0.6481 -1.7898  0.4937
 2980TIP3    H230356   6.672   5.265  12.659  0.5221  1.7944 -1.2237
 2981TIP3   OH230357   1.256   1.178  11.852 -0.5369  0.0967 -0.0013
 2981TIP3    H130358   1.213   1.092  11.859 -2.1476  0.9701  1.9024
 2981TIP3    H230359   1.194   1.232  11.802 -0.6169  0.7445  0.7805
 2982TIP3   OH230360   0.690   5.322  13.971 -0.2218 -0.0582 -0.6794
 2982TIP3    H130361   0.667   5.229  13.976  0.3848 -0.2639 -1.5034
 2982TIP3    H230362   0.744   5.337  14.049 -0.4647 -0.3514 -0.4515
 2983TIP3   OH230363   6.030   3.113   4.460 -0.4171  0.9870  0.6425
 2983TIP3    H130364   6.081   3.060   4.521 -1.1849 -3.0717 -1.8637
 2983TIP3    H230365   5.946   3.127   4.503 -0.6896 -1.1742  0.9325
 2984TIP3   OH230366   0.810   0.871  17.079  0.2207  0.8815 -0.1232
 2984TIP3    H130367   0.812   0.777  17.065 -0.7430  1.1205 -2.4139
 2984TIP3    H230368   0.724   0.887  17.119  1.1183  0.6790  2.0664
 2985TIP3   OH230369   5.297   6.373  14.739 -0.1110  0.0916  0.1117
 2985TIP3    H130370   5.225   6.409  14.687 -0.8949  0.3888  1.3609
 2985TIP3    H230371   5.354   6.331  14.675 -1.4056 -0.1694 -0.9066
 2986TIP3   OH230372   4.463   3.071  12.467 -0.2735 -0.1264 -0.7064
 2986TIP3    H130373   4.485   3.071  12.374 -0.2069 -0.3023 -0.6915
 2986TIP3    H230374   4.391   3.133  12.475 -0.4525 -0.3069 -0.9158
 2987TIP3   OH230375   4.683   0.325   3.746 -0.1163 -0.0592 -0.1867
 2987TIP3    H130376   4.662   0.416   3.726 -2.1904 -0.5760 -0.5853
 2987TIP3    H230377   4.741   0.298   3.675  1.2220  1.1369  0.3808
 2988TIP3   OH230378   1.657   2.404  12.666  0.1095 -0.6719  0.0094
 2988TIP3    H130379   1.738   2.376  12.623 -1.1201 -1.4908 -1.9373
 2988TIP3    H230380   1.682   2.479  12.718  1.9548 -0.2779 -1.3439
 2989TIP3   OH230381   3.025   6.114   5.519 -0.1359 -0.1131  0.0737
 2989TIP3    H130382   3.046   6.100   5.427  0.6740  0.6463  0.1287
 2989TIP3    H230383   3.107   6.095   5.565 -0.3512  0.1540  0.5675
 2990TIP3   OH230384   6.341   6.112  11.403  0.1450 -0.0426  0.4299
 2990TIP3    H130385   6.349   6.086  11.311  1.9192  0.1875  0.4771
 2990TIP3    H230386   6.250   6.094  11.425 -1.0164  2.1166 -2.0425
 2991TIP3   OH230387   3.807   4.967   5.559  0.6772  0.3663  0.0521
 2991TIP3    H130388   3.730   5.013   5.593  0.7664  1.4306 -1.1164
 2991TIP3    H230389   3.793   4.875   5.583 -0.7390  0.6116  0.2355
 2992TIP3   OH230390   5.337   0.280  15.447 -0.3096  0.6602  0.2437
 2992TIP3    H130391   5.424   0.299  15.411 -0.9814  0.1183 -1.7723
 2992TIP3    H230392   5.286   0.358  15.427 -1.0755 -0.2079 -1.3702
 2993TIP3   OH230393   5.889   5.263   6.420 -0.1135  1.2216  0.2674
 2993TIP3    H130394   5.923   5.195   6.478  0.1936  1.6932  0.6606
 2993TIP3    H230395   5.882   5.341   6.477  0.9738  1.9105 -0.5030
 2994TIP3   OH230396   5.690   4.143   3.243 -0.1105  0.8096 -0.4449
 2994TIP3    H130397   5.781   4.174   3.234 -0.2397  1.0301 -1.0235
 2994TIP3    H230398   5.693   4.081   3.316  0.2821  1.6959  0.3289
 2995TIP3   OH230399   0.096   0.492  12.237 -0.3561 -0.0998  0.0253
 2995TIP3    H130400   0.182   0.499  12.195 -0.4766 -0.2136 -0.2499
 2995TIP3    H230401   0.053   0.574  12.217 -0.9526 -0.7134 -1.3262
 2996TIP3   OH230402   0.644   4.448  14.826 -0.4102  0.0236  0.1174
 2996TIP3    H130403   0.676   4.505  14.897 -0.3613 -0.3955  0.4391
 2996TIP3    H230404   0.584   4.503  14.776 -0.5508  0.2858  0.5683
 2997TIP3   OH230405   0.232   4.336  15.563  0.2816  0.5907 -0.0099
 2997TIP3    H130406   0.160   4.328  15.625 -1.2343  3.4283 -1.2026
 2997TIP3    H230407   0.267   4.424  15.578  2.2653 -0.0240 -0.7577
 2998TIP3   OH230408   4.499   6.732  15.196  0.4529 -0.1035 -0.0392
 2998TIP3    H130409   4.481   6.643  15.167 -1.1260  0.7606 -1.8483
 2998TIP3    H230410   4.591   6.729  15.224  0.9137 -1.9239 -1.5312
 2999TIP3   OH230411   2.717   1.234   4.394  0.9284  0.0361 -0.0050
 2999TIP3    H130412   2.708   1.244   4.489 -4.9195  0.2145 -0.1771
 2999TIP3    H230413   2.686   1.144   4.376  1.1965  0.2522 -1.7585
 3000TIP3   OH230414   2.615   0.809  17.122  0.3242 -0.2993  0.3920
 3000TIP3    H130415   2.619   0.844  17.033  0.5532 -0.4520  0.3435
 3000TIP3    H230416   2.521   0.800  17.139  0.2849 -0.9359 -0.0976
 3001TIP3   OH230417   1.887   4.922  16.753 -0.3921 -0.1087  0.3350
 3001TIP3    H130418   1.888   5.017  16.769 -0.6041  0.0881 -0.7841
 3001TIP3    H230419   1.942   4.909  16.676 -1.9180 -0.6578 -0.7025
 3002TIP3   OH230420   0.150   1.242   4.891  0.1417 -0.0157 -0.3567
 3002TIP3    H130421   0.230   1.287   4.917  0.1054 -0.9448  1.5678
 3002TIP3    H230422   0.090   1.313   4.867  0.9607  0.7992 -0.0634
 3003TIP3   OH230423   5.197   2.908  12.818 -0.0974  0.1503 -0.4929
 3003TIP3    H130424   5.219   2.981  12.876 -0.5190  0.1374 -0.3119
 3003TIP3    H230425   5.156   2.949  12.743 -1.5179  0.0231  0.1803
 3004TIP3   OH230426   0.854   4.111   5.371  0.2280  0.7217 -0.1712
 3004TIP3    H130427   0.819   4.200   5.376 -3.2246 -0.4993  0.8234
 3004TIP3    H230428   0.929   4.111   5.430 -1.1641  2.4447  1.7280
 3005TIP3   OH230429   5.284   1.120   2.006 -0.3566 -0.6812  0.3198
 3005TIP3    H130430   5.190   1.103   2.003 -1.0487  2.4839 -0.5778
 3005TIP3    H230431   5.307   1.114   2.098 -1.9121  0.2793  0.8164
 3006TIP3   OH230432   6.054   2.521   0.847 -0.1274 -0.3118  0.2358
 3006TIP3    H130433   6.033   2.437   0.888  2.0425 -0.7503  0.5977
 3006TIP3    H230434   6.067   2.500   0.755  0.1876 -0.3500  0.2861
 3007TIP3   OH230435   0.789   0.077   5.867 -0.3652 -0.3424  0.4078
 3007TIP3    H130436   0.862   0.054   5.924  0.7053  1.0338 -0.3323
 3007TIP3    H230437   0.753   0.157   5.905  0.3208  0.5543 -0.7516
 3008TIP3   OH230438   4.040   0.849  11.309  0.0772 -0.5880  0.0379
 3008TIP3    H130439   4.095   0.920  11.276  0.5923 -1.1593 -0.3625
 3008TIP3    H230440   3.957   0.860  11.262 -0.7096  1.1343  1.6812
 3009TIP3   OH230441   5.048   4.773   2.987  0.0906 -0.2828  0.7831
 3009TIP3    H130442   4.998   4.801   2.911  0.6341  0.4751  0.6921
 3009TIP3    H230443   5.009   4.821   3.061  0.0822 -0.3963  0.8522
 3010TIP3   OH230444   1.684   2.392   0.807 -0.2102  0.2756 -0.2856
 3010TIP3    H130445   1.618   2.402   0.876 -0.9607  0.2256 -0.9767
 3010TIP3    H230446   1.639   2.421   0.727  0.4972 -0.0912 -0.8223
 3011TIP3   OH230447   3.811   5.932  12.049 -0.0523 -0.5725  0.4651
 3011TIP3    H130448   3.780   5.849  12.086  0.9490 -0.4296  1.7023
 3011TIP3    H230449   3.755   5.999  12.090 -0.3102 -0.5647  0.1071
 3012TIP3   OH230450   5.812   6.266   5.038 -0.5172  0.3350  0.1341
 3012TIP3    H130451   5.884   6.305   4.989 -0.6409 -0.5995 -0.8076
 3012TIP3    H230452   5.817   6.173   5.019 -2.2264  0.3018 -0.2784
 3013TIP3   OH230453   4.563   1.060  16.463  0.3898  0.3953 -0.0877
 3013TIP3    H130454   4.536   1.089  16.376  0.6697  2.1337  0.3585
 3013TIP3    H230455   4.502   0.990  16.485  0.6106 -0.4256 -1.8602
 3014TIP3   OH230456   6.690   0.371   0.671 -0.2126  0.0348  0.3330
 3014TIP3    H130457   6.697   0.291   0.619  2.1717  1.9630 -2.6678
 3014TIP3    H230458   6.596   0.384   0.682 -0.7121 -3.5730  1.8478
 3015TIP3   OH230459   3.280   6.036  13.763 -0.1699  0.4530  0.0626
 3015TIP3    H130460   3.370   6.015  13.740 -0.4382 -1.0491  0.2920
 3015TIP3    H230461   3.236   6.049  13.679  0.5868  2.8196 -0.0285
 3016TIP3   OH230462   0.935   0.998   4.186  0.0362  0.1831 -0.0683
 3016TIP3    H130463   0.972   1.081   4.156 -1.2829  0.3802 -1.2369
 3016TIP3    H230464   0.912   1.014   4.278 -0.4786  1.2247 -0.3641
 3017TIP3   OH230465   2.713   3.944   2.698 -0.0060  0.2136  0.3615
 3017TIP3    H130466   2.759   3.877   2.646 -0.6685  0.8994 -1.1692
 3017TIP3    H230467   2.673   4.002   2.633 -0.5800  1.3301  1.6568
 3018TIP3   OH230468   5.338   3.852  12.152  0.1891  0.4774 -0.1066
 3018TIP3    H130469   5.359   3.759  12.166 -2.8418 -0.5045 -1.3189
 3018TIP3    H230470   5.356   3.867  12.059  0.0096  0.8973 -0.0766
 3019TIP3   OH230471   6.678   4.634  14.850 -0.0887 -0.4221 -0.3372
 3019TIP3    H130472   6.702   4.725  14.830  1.9131 -0.9629 -0.5824
 3019TIP3    H230473   6.582   4.635  14.851 -0.2601  1.0408 -3.5558
 3020TIP3   OH230474   3.536   0.852   2.202 -0.7086  0.0843  0.0988
 3020TIP3    H130475   3.554   0.772   2.154  1.3878 -0.2096  1.2597
 3020TIP3    H230476   3.441   0.865   2.192 -1.0207 -2.2199 -0.5755
 3021TIP3   OH230477   2.171   6.454  13.237 -0.1566  0.2881 -0.0696
 3021TIP3    H130478   2.135   6.378  13.192  0.4768  0.7635 -1.4461
 3021TIP3    H230479   2.234   6.417  13.299 -0.6259 -0.3600  0.0274
 3022TIP3   OH230480   3.541   4.711   4.905  0.0329  0.0545 -0.0831
 3022TIP3    H130481   3.575   4.724   4.994  0.9925 -1.1185 -0.2544
 3022TIP3    H230482   3.611   4.744   4.848  0.1964 -0.8687 -0.4248
 3023TIP3   OH230483   5.629   4.821  16.259  0.0714  0.8674 -0.4751
 3023TIP3    H130484   5.618   4.766  16.337 -0.9894 -0.6377 -1.6368
 3023TIP3    H230485   5.545   4.866  16.250  1.1681  3.4325  0.9139
 3024TIP3   OH230486   0.678   6.151   5.680 -0.1523  0.5843  0.6632
 3024TIP3    H130487   0.630   6.070   5.692 -0.7835  1.0565  1.4439
 3024TIP3    H230488   0.732   6.160   5.759  0.3529  0.6341  0.3180
 3025TIP3   OH230489   3.999   1.719  14.438  0.0873  0.3675  0.0474
 3025TIP3    H130490   3.937   1.762  14.497 -0.1729 -1.3539  1.0927
 3025TIP3    H230491   4.078   1.773  14.443 -0.3069  0.8737  1.0898
 3026TIP3   OH230492   4.118   5.938   5.450 -0.2612 -0.2833 -0.5282
 3026TIP3    H130493   4.132   5.856   5.403  0.3055 -0.8105  0.5171
 3026TIP3    H230494   4.029   5.931   5.484  0.0704 -0.8436  0.2513
 3027TIP3   OH230495   4.940   3.754   1.945 -0.0368 -0.2381  0.0307
 3027TIP3    H130496   4.973   3.683   2.000 -1.3952 -1.6359 -0.8909
 3027TIP3    H230497   4.954   3.724   1.855  1.9424  1.9063 -0.4900
 3028TIP3   OH230498   0.591   0.823  11.757 -0.2295 -0.3782  0.0851
 3028TIP3    H130499   0.605   0.766  11.832 -0.1083  1.0669  1.2050
 3028TIP3    H230500   0.563   0.906  11.795 -1.6711 -0.0669 -1.5602
 3029TIP3   OH230501   2.687   2.481   3.204 -0.4319  0.4507 -0.1281
 3029TIP3    H130502   2.726   2.560   3.165  0.3028  0.7554  1.1937
 3029TIP3    H230503   2.734   2.409   3.164  1.1102  0.7972  0.9922
 3030TIP3   OH230504   2.350   5.027   6.244 -0.1869  0.1274 -0.0560
 3030TIP3    H130505   2.357   5.121   6.260 -1.7748 -0.1103  2.5871
 3030TIP3    H230506   2.261   5.014   6.212  0.7138 -0.3249 -2.6977
 3031TIP3   OH230507   5.388   0.896  17.038  0.0577  0.6528  0.5203
 3031TIP3    H130508   5.361   0.808  17.011 -1.5168  1.4228 -0.5466
 3031TIP3    H230509   5.474   0.884  17.077 -0.1645 -1.3728  0.4636
 3032TIP3   OH230510   5.106   3.162   3.049 -0.0039  0.0648 -0.7838
 3032TIP3    H130511   5.179   3.142   2.990  0.1471  0.0886 -0.6056
 3032TIP3    H230512   5.134   3.127   3.134 -0.6126 -0.7996 -0.9245
 3033TIP3   OH230513   0.569   1.001  12.653  0.1163  0.7991  0.4387
 3033TIP3    H130514   0.606   0.965  12.734 -1.1843  0.7435  1.0346
 3033TIP3    H230515   0.494   1.052  12.682 -2.3976 -1.8579 -0.8956
 3034TIP3   OH230516   3.352   1.947   2.614  0.1079 -0.4531  0.4410
 3034TIP3    H130517   3.258   1.925   2.618 -0.1079 -0.6621 -3.0344
 3034TIP3    H230518   3.354   2.037   2.584  0.8792 -1.5464 -3.2467
 3035TIP3   OH230519   3.655   6.379   2.322  0.4948  0.0715 -0.2185
 3035TIP3    H130520   3.659   6.442   2.251  1.4487 -0.2686 -0.4861
 3035TIP3    H230521   3.603   6.306   2.288  0.2183  0.2859 -0.2543
 3036TIP3   OH230522   4.513   6.361   2.902 -0.4129 -0.9943 -0.5521
 3036TIP3    H130523   4.518   6.385   2.995 -0.9450 -0.9345 -0.5374
 3036TIP3    H230524   4.528   6.443   2.855  0.2802 -1.1022 -0.5256
 3037TIP3   OH230525   3.640   5.428   3.188  0.1684 -0.1039  0.5501
 3037TIP3    H130526   3.694   5.416   3.111 -1.2997 -1.8849 -0.2860
 3037TIP3    H230527   3.575   5.494   3.162  0.4323  0.2309  0.7236
 3038TIP3   OH230528   2.814   0.237  11.235 -0.2010 -0.3400  0.2290
 3038TIP3    H130529   2.831   0.243  11.141  0.0837  0.6820  0.3282
 3038TIP3    H230530   2.899   0.254  11.275 -0.3964 -0.4114  0.6733
 3039TIP3   OH230531   1.192   3.461   2.945  0.0383 -0.1438 -0.1719
 3039TIP3    H130532   1.229   3.497   2.864 -1.1843  0.2822 -0.5669
 3039TIP3    H230533   1.249   3.493   3.014  2.1082 -1.8751 -0.9672
 3040TIP3   OH230534   3.252   1.116  11.339  0.4695  0.2786 -0.1921
 3040TIP3    H130535   3.263   1.072  11.255  0.0698  0.4358 -0.3309
 3040TIP3    H230536   3.301   1.062  11.402  0.2032 -0.2170 -0.4047
 3041TIP3   OH230537   6.530   3.323  12.067  0.0480 -0.4488  0.0948
 3041TIP3    H130538   6.604   3.373  12.034  0.2698 -0.3107  0.7877
 3041TIP3    H230539   6.567   3.269  12.138 -0.7859  0.7551  1.4962
 3042TIP3   OH230540   2.869   4.844   4.986 -0.1431  0.5573  0.0665
 3042TIP3    H130541   2.902   4.769   4.935  1.8729  1.5742 -0.2653
 3042TIP3    H230542   2.917   4.919   4.950 -2.2894  2.0761  0.2083
 3043TIP3   OH230543   3.934   6.038  16.374  0.7163  0.3050  0.0251
 3043TIP3    H130544   3.882   5.969  16.333 -0.5748  0.5486  1.1965
 3043TIP3    H230545   3.974   6.084  16.300  1.2287 -1.3777 -0.8006
 3044TIP3   OH230546   5.563   4.258   0.486  0.0156 -0.7974  0.1760
 3044TIP3    H130547   5.502   4.332   0.485  0.4723 -0.4160  0.2001
 3044TIP3    H230548   5.569   4.229   0.395 -0.6866 -1.2433  0.2660
 3045TIP3   OH230549   2.929   5.643  11.851 -0.1438  0.0550  0.0098
 3045TIP3    H130550   2.994   5.595  11.799 -0.2630  0.8818 -0.9230
 3045TIP3    H230551   2.857   5.658  11.790 -0.3016  1.0064  0.4213
 3046TIP3   OH230552   4.832   2.587   6.094  0.4944 -0.1125  0.0131
 3046TIP3    H130553   4.885   2.522   6.140  1.3927  0.6831  0.1240
 3046TIP3    H230554   4.857   2.578   6.002  0.2024 -0.3025 -0.0494
 3047TIP3   OH230555   6.187   2.474   5.020 -0.2187 -0.1458 -0.4897
 3047TIP3    H130556   6.120   2.437   5.077 -0.4436  1.6763  0.5132
 3047TIP3    H230557   6.218   2.552   5.066  0.3874  0.7919 -2.3463
 3048TIP3   OH230558   6.019   0.145  11.785 -0.1678  0.0327 -0.0724
 3048TIP3    H130559   5.959   0.178  11.851  0.5024  0.7316  0.1963
 3048TIP3    H230560   6.089   0.210  11.780  0.8534 -1.0137  0.0117
 3049TIP3   OH230561   0.442   0.651   5.300 -0.0761  0.1014 -0.6434
 3049TIP3    H130562   0.400   0.674   5.217 -0.3474 -0.0271 -0.5423
 3049TIP3    H230563   0.372   0.655   5.364  0.2414  0.7090 -0.3293
 3050TIP3   OH230564   2.708   3.573  11.854  0.4310 -0.2859 -0.7501
 3050TIP3    H130565   2.755   3.547  11.775  0.0091 -0.3414 -0.9866
 3050TIP3    H230566   2.619   3.542  11.840  0.5310 -0.9589  0.0811
 3051TIP3   OH230567   4.150   2.726   5.375 -0.1174  0.5223  0.0471
 3051TIP3    H130568   4.119   2.795   5.316 -1.6383 -1.9878 -2.3175
 3051TIP3    H230569   4.073   2.703   5.428  0.2943  0.4388  0.6198
 3052TIP3   OH230570   3.185   4.437  16.324  0.0039 -0.2615  0.3090
 3052TIP3    H130571   3.271   4.394  16.323  0.0503 -0.2757 -2.3596
 3052TIP3    H230572   3.204   4.531  16.321 -0.0663 -0.2417  0.4925
 3053TIP3   OH230573   3.465   6.158   1.111 -0.0053 -0.1016 -0.3441
 3053TIP3    H130574   3.471   6.065   1.135  1.9810 -0.7657 -2.8632
 3053TIP3    H230575   3.504   6.204   1.185 -0.3718 -1.3442  0.6570
 3054TIP3   OH230576   0.424   3.866  15.100  0.2559 -0.4214  0.7712
 3054TIP3    H130577   0.336   3.864  15.138 -0.1485 -0.0705 -0.1231
 3054TIP3    H230578   0.440   3.775  15.074  0.5572 -0.6783  1.7786
 3055TIP3   OH230579   0.262   0.610   1.968 -0.7001  0.3025 -0.0928
 3055TIP3    H130580   0.168   0.590   1.967 -0.6889  0.2497 -1.1541
 3055TIP3    H230581   0.272   0.679   1.902 -0.1474  1.0686  0.7704
 3056TIP3   OH230582   3.195   3.802  11.176  0.4435 -0.1017  0.2850
 3056TIP3    H130583   3.236   3.722  11.143 -1.3218 -2.0989  2.5418
 3056TIP3    H230584   3.208   3.866  11.106  6.3024 -0.7015  0.3403
 3057TIP3   OH230585   3.233   1.675  10.456  0.0182 -0.1273 -0.1783
 3057TIP3    H130586   3.216   1.741  10.524  0.6179  0.2412 -0.3831
 3057TIP3    H230587   3.152   1.671  10.406  0.1941  0.9337 -0.5673
 3058TIP3   OH230588   5.107   1.011  16.187  0.3085 -0.0748 -0.1649
 3058TIP3    H130589   5.109   1.087  16.245 -2.2491  0.7020 -0.9578
 3058TIP3    H230590   5.131   1.046  16.101 -1.1294 -0.0636 -0.5847
 3059TIP3   OH230591   0.489   6.470  11.003  0.4044  0.1956  0.4061
 3059TIP3    H130592   0.530   6.546  10.961  1.5317 -0.5307  0.1432
 3059TIP3    H230593   0.421   6.508  11.060  1.0746  1.4136  0.4398
 3060TIP3   OH230594   4.305   5.815  17.031  0.2140  0.2371 -0.9782
 3060TIP3    H130595   4.262   5.835  17.115  1.0108 -2.7225  0.2649
 3060TIP3    H230596   4.233   5.789  16.973 -0.1559  0.3217 -0.5696
 3061TIP3   OH230597   5.127   5.937   6.032 -0.5511 -0.4173  0.0526
 3061TIP3    H130598   5.217   5.959   6.007  0.5519 -2.9382  1.3907
 3061TIP3    H230599   5.104   5.864   5.975 -0.8523 -1.2563  1.2027
 3062TIP3   OH230600   1.130   4.769   5.352 -0.6633 -0.7769 -0.2890
 3062TIP3    H130601   1.086   4.685   5.366 -1.4825 -0.5128 -1.1430
 3062TIP3    H230602   1.143   4.774   5.258 -0.0271 -0.2296 -0.1790
 3063TIP3   OH230603   2.182   3.118  13.259 -0.4529 -0.2787  0.6924
 3063TIP3    H130604   2.244   3.166  13.204  1.1861 -2.4146  0.5650
 3063TIP3    H230605   2.145   3.051  13.202 -0.0244 -1.4184  1.7025
 3064TIP3   OH230606   1.816   3.395  11.775  0.6688  0.1897  0.1202
 3064TIP3    H130607   1.774   3.320  11.816  1.4671 -0.3135  0.0202
 3064TIP3    H230608   1.774   3.471  11.816  0.1642 -0.3026  0.5279
 3065TIP3   OH230609   0.231   5.172   5.733  0.3053 -0.0308  1.2821
 3065TIP3    H130610   0.197   5.158   5.644  0.0686  1.5793  1.1043
 3065TIP3    H230611   0.296   5.102   5.744  0.2828 -0.3111 -0.1154
 3066TIP3   OH230612   0.525   2.346  14.951 -0.1503 -0.3441 -0.4334
 3066TIP3    H130613   0.571   2.335  15.034 -2.0232  0.3737  0.7752
 3066TIP3    H230614   0.521   2.258  14.913 -1.1360 -1.1008  1.3156
 3067TIP3   OH230615   2.441   3.495  12.317  0.1474 -0.0879 -0.2605
 3067TIP3    H130616   2.411   3.430  12.254  2.0875 -1.4583  0.1547
 3067TIP3    H230617   2.535   3.504  12.300  0.4892  0.4074  1.6372
 3068TIP3   OH230618   5.908   4.175  11.146  1.0191 -0.1741  0.0253
 3068TIP3    H130619   5.910   4.084  11.176 -1.7551  0.2453  1.8251
 3068TIP3    H230620   5.892   4.169  11.052 -0.0416 -1.5486  0.2648
 3069TIP3   OH230621   6.698   2.435  15.439 -0.4853  0.7272  0.1522
 3069TIP3    H130622   6.763   2.501  15.415  1.9787 -1.4575  0.4200
 3069TIP3    H230623   6.704   2.429  15.534  0.5508 -0.9878  0.0172
 3070TIP3   OH230624   2.909   5.278   2.204 -0.0870 -0.4102 -0.5954
 3070TIP3    H130625   2.854   5.344   2.162  0.3801 -0.1742 -0.8508
 3070TIP3    H230626   2.963   5.327   2.265 -0.6894 -0.7442  0.2163
 3071TIP3   OH230627   6.692   5.165   1.070 -0.1037  0.3753  0.8994
 3071TIP3    H130628   6.771   5.116   1.051 -0.0803  0.5025  0.6655
 3071TIP3    H230629   6.712   5.212   1.151  0.8164  2.0186 -0.2219
 3072TIP3   OH230630   1.013   1.664   1.371 -0.1416 -0.0091 -0.1638
 3072TIP3    H130631   0.925   1.699   1.387  0.6399  1.7052  0.6290
 3072TIP3    H230632   1.047   1.643   1.458  0.7233  0.6309 -0.3315
 3073TIP3   OH230633   4.585   0.467   3.297 -0.3881 -0.1390  0.5030
 3073TIP3    H130634   4.596   0.375   3.271 -1.1467 -0.0595 -0.1409
 3073TIP3    H230635   4.528   0.504   3.230  1.1844  1.2268 -0.1289
 3074TIP3   OH230636   2.175   2.986  11.651 -0.5278 -0.4462  0.5582
 3074TIP3    H130637   2.108   2.931  11.610  0.4257 -0.9035 -0.4597
 3074TIP3    H230638   2.183   3.062  11.593 -1.0893  0.2717  1.3940
 3075TIP3   OH230639   3.683   2.769   5.796  0.3795  0.0869  0.1842
 3075TIP3    H130640   3.735   2.847   5.779  0.0401  0.3860  0.4918
 3075TIP3    H230641   3.745   2.707   5.835  0.6336  0.2284  0.0078
 3076TIP3   OH230642   1.855   4.984   6.398  0.3443 -0.0539 -0.2974
 3076TIP3    H130643   1.800   5.062   6.395 -2.1590 -1.5589  1.9567
 3076TIP3    H230644   1.849   4.954   6.489  2.2770 -2.1815 -0.7685
 3077TIP3   OH230645   6.694   3.654  13.914 -0.1868  0.3369 -0.5649
 3077TIP3    H130646   6.671   3.746  13.897 -0.0086  0.3496 -0.7471
 3077TIP3    H230647   6.693   3.646  14.009  1.6852  1.0218 -0.4425
 3078TIP3   OH230648   2.253   1.202  10.501 -0.1266  0.4895 -0.2131
 3078TIP3    H130649   2.302   1.271  10.458  2.3726 -0.4871  0.8860
 3078TIP3    H230650   2.308   1.125  10.494 -1.3099 -0.5821  1.4901
 3079TIP3   OH230651   0.085   3.322  16.187  0.4822  0.1312  0.5353
 3079TIP3    H130652  -0.006   3.307  16.215  0.3826  0.1798  0.2407
 3079TIP3    H230653   0.117   3.235  16.163 -0.0908  0.3533 -1.1567
 3080TIP3   OH230654   3.130   4.459  14.093  0.0154 -0.2095  0.2440
 3080TIP3    H130655   3.042   4.430  14.116 -0.2848  0.0381 -0.5346
 3080TIP3    H230656   3.148   4.532  14.153 -0.9313  0.7266 -0.5700
 3081TIP3   OH230657   0.745   2.136  16.922  0.2508 -0.9559 -0.3435
 3081TIP3    H130658   0.734   2.135  17.017 -4.0290 -1.0405 -0.6344
 3081TIP3    H230659   0.741   2.044  16.896 -1.7209 -0.8124 -0.7188
 3082TIP3   OH230660   2.359   6.048   3.312 -0.2914  0.1522  0.0123
 3082TIP3    H130661   2.344   5.975   3.371 -0.9430 -1.2207 -1.7873
 3082TIP3    H230662   2.443   6.028   3.270  1.0596  1.9936  1.6379
 3083TIP3   OH230663   6.295   2.716  10.976 -0.4429 -0.2900 -0.4674
 3083TIP3    H130664   6.252   2.664  11.044  0.0462 -0.7662 -0.5128
 3083TIP3    H230665   6.343   2.784  11.024 -0.9646  0.0329 -0.4003
 3084TIP3   OH230666   5.841   4.419  13.366 -0.1855 -0.0625  0.4668
 3084TIP3    H130667   5.919   4.460  13.330 -1.2200  1.7640  0.2100
 3084TIP3    H230668   5.859   4.325  13.360  1.3458  0.2705 -0.9951
 3085TIP3   OH230669   0.090   5.995   0.102 -0.2911  0.0288  0.0022
 3085TIP3    H130670   0.143   5.917   0.119 -1.3273 -0.9677 -1.2030
 3085TIP3    H230671   0.073   5.993   0.008 -0.2198  1.8116 -0.0865
 3086TIP3   OH230672   4.188   6.238  10.798  0.1018 -0.0606  0.1501
 3086TIP3    H130673   4.106   6.212  10.755 -0.9736  0.7508  1.6160
 3086TIP3    H230674   4.217   6.315  10.749 -0.2817 -0.0507 -0.0701
 3087TIP3   OH230675   3.642   6.109   3.145  0.5911 -0.2668  0.4399
 3087TIP3    H130676   3.578   6.176   3.120  0.4534 -0.4785  0.2231
 3087TIP3    H230677   3.724   6.157   3.154  0.3083  0.0886  1.1826
 3088TIP3   OH230678   3.224   0.410  17.126  0.1647 -0.0221 -0.0864
 3088TIP3    H130679   3.285   0.337  17.130  0.6013  0.3603  3.4836
 3088TIP3    H230680   3.279   0.488  17.130 -0.3340  0.6252 -3.2191
 3089TIP3   OH230681   2.416   4.562   5.272  0.5199  0.1732 -0.7702
 3089TIP3    H130682   2.406   4.647   5.229 -1.1582 -0.7250 -2.2842
 3089TIP3    H230683   2.386   4.577   5.361 -1.3499  0.8314 -1.4658
 3090TIP3   OH230684   5.998   1.321  13.878 -0.1083  0.6324  0.1386
 3090TIP3    H130685   5.999   1.360  13.790  1.0664 -1.5258 -0.8734
 3090TIP3    H230686   6.078   1.269  13.882  0.2093  1.2161  2.7844
 3091TIP3   OH230687   1.769   2.162   3.876  0.4451 -0.1774  0.2459
 3091TIP3    H130688   1.838   2.216   3.837  1.1845 -0.6385  0.8883
 3091TIP3    H230689   1.816   2.089   3.916 -0.2770  0.2812  2.0123
 3092TIP3   OH230690   1.381   5.571   1.905 -0.1257  0.4486  0.4862
 3092TIP3    H130691   1.312   5.637   1.905  0.1962  0.7957  1.1499
 3092TIP3    H230692   1.461   5.619   1.884  0.3242  0.5307  2.2405
 3093TIP3   OH230693   6.486   2.859  11.700 -0.1379 -0.1167 -0.4898
 3093TIP3    H130694   6.553   2.924  11.724  0.4399 -1.5977  2.3663
 3093TIP3    H230695   6.507   2.834  11.611  0.8042  2.1583 -0.9841
 3094TIP3   OH230696   2.267   1.746  16.926  0.2973 -0.1398  0.4194
 3094TIP3    H130697   2.304   1.757  17.014 -0.8105  0.9059  0.7978
 3094TIP3    H230698   2.271   1.834  16.888  1.1132 -0.6633 -0.7343
 3095TIP3   OH230699   0.002   1.837  12.219  0.4863 -0.7350  0.1399
 3095TIP3    H130700   0.076   1.865  12.272 -0.0090  1.4081 -0.2063
 3095TIP3    H230701  -0.074   1.882  12.257 -0.2934 -1.2151 -0.7946
 3096TIP3   OH230702   2.759   4.788  15.015 -0.0670  0.0206 -0.1734
 3096TIP3    H130703   2.763   4.721  14.946 -0.1604  1.0075 -1.1665
 3096TIP3    H230704   2.697   4.753  15.078  1.9473 -2.1402  0.7977
 3097TIP3   OH230705   6.546   1.957   3.623 -0.0268  0.4180 -0.3865
 3097TIP3    H130706   6.548   1.877   3.571 -1.9745  0.1613 -0.1659
 3097TIP3    H230707   6.581   1.932   3.708 -0.6960 -0.2464 -0.2962
 3098TIP3   OH230708   1.829   5.301   1.860 -0.4768 -0.1103 -0.0454
 3098TIP3    H130709   1.769   5.372   1.884 -0.4897  0.0931 -0.6754
 3098TIP3    H230710   1.874   5.280   1.942 -1.2047 -0.0749  0.3721
 3099TIP3   OH230711   3.747   4.249   1.896 -0.3058  0.4188 -0.2648
 3099TIP3    H130712   3.809   4.321   1.885 -0.6162  1.0392  1.7214
 3099TIP3    H230713   3.667   4.291   1.928 -0.6094 -0.7459  0.5751
 3100TIP3   OH230714   4.745   0.200  13.365  0.4110 -0.3181  0.4271
 3100TIP3    H130715   4.747   0.139  13.292 -1.2447 -1.1296  1.0108
 3100TIP3    H230716   4.730   0.286  13.325 -1.5255 -0.8843 -0.1753
 3101TIP3   OH230717   6.170   6.246   3.829 -0.0449  0.3428  0.1542
 3101TIP3    H130718   6.162   6.153   3.807  0.0102 -0.2463  2.4292
 3101TIP3    H230719   6.080   6.279   3.829 -0.1340  0.0973  0.1678
 3102TIP3   OH230720   1.926   3.009   0.182 -0.3088 -0.5442 -1.1115
 3102TIP3    H130721   1.987   2.944   0.216 -0.3619  0.6574  1.5106
 3102TIP3    H230722   1.918   2.988   0.089  2.1780 -2.2428 -1.0388
 3103TIP3   OH230723   5.186   3.629   6.294 -0.7243  0.0718 -1.1499
 3103TIP3    H130724   5.250   3.616   6.363  1.3037 -2.9963 -3.3415
 3103TIP3    H230725   5.203   3.718   6.262  1.3736 -0.0761 -0.5937
 3104TIP3   OH230726   6.587   0.097  13.150  0.4495  0.2334  0.5646
 3104TIP3    H130727   6.494   0.084  13.168 -0.1093  1.5951 -1.0534
 3104TIP3    H230728   6.621   0.142  13.228  0.0287 -1.1756  1.6030
 3105TIP3   OH230729   5.003   2.920  11.849  0.1726 -0.0985 -0.3407
 3105TIP3    H130730   4.988   2.877  11.764 -1.9916 -0.5697  0.2412
 3105TIP3    H230731   4.939   2.991  11.852 -0.7640 -0.9531  1.4537
 3106TIP3   OH230732   3.467   5.828   1.419  0.4769  0.3517 -0.3693
 3106TIP3    H130733   3.485   5.922   1.413  2.3849 -0.0602 -2.6099
 3106TIP3    H230734   3.428   5.806   1.334 -0.5930 -0.7822  0.3976
 3107TIP3   OH230735   1.237   4.023   0.853  0.0772  0.2234  0.2406
 3107TIP3    H130736   1.262   4.017   0.761 -0.8067 -1.4948  0.0667
 3107TIP3    H230737   1.309   3.982   0.901  0.0093  0.0586  0.2030
 3108TIP3   OH230738   4.461   5.711   0.287 -0.5921  0.1215  0.4122
 3108TIP3    H130739   4.427   5.694   0.375 -0.9859 -1.8655 -0.0820
 3108TIP3    H230740   4.383   5.726   0.234 -0.4607 -0.4922  0.0475
 3109TIP3   OH230741   6.071   0.503   1.235  0.5540 -0.0540  0.2046
 3109TIP3    H130742   5.993   0.476   1.186  0.9762  0.3329 -0.6930
 3109TIP3    H230743   6.058   0.466   1.323 -0.1835 -0.8008 -0.2093
 3110TIP3   OH230744   1.422   3.993  16.985  0.4266 -0.4045  0.0237
 3110TIP3    H130745   1.327   3.985  16.979  0.0836  1.7941  1.5102
 3110TIP3    H230746   1.445   4.055  16.916  0.6264  0.0140  0.4636
 3111TIP3   OH230747   0.123   1.075  14.155  0.0934  0.0762  0.2617
 3111TIP3    H130748   0.132   1.134  14.079 -0.1855  1.7531  1.4598
 3111TIP3    H230749   0.214   1.056  14.180  0.2202  0.8767  0.4704
 3112TIP3   OH230750   4.593   0.546  11.853  0.2348 -0.7332 -0.1739
 3112TIP3    H130751   4.626   0.635  11.842  1.3421 -1.1691 -0.5533
 3112TIP3    H230752   4.667   0.490  11.829 -0.3542 -1.7571  0.3313
 3113TIP3   OH230753   6.427   6.153  12.264 -0.5869  0.2288  0.7891
 3113TIP3    H130754   6.459   6.237  12.229 -0.6363 -0.8779 -2.2159
 3113TIP3    H230755   6.333   6.168  12.278 -0.5222  0.7859  0.6721
 3114TIP3   OH230756   4.081   1.197   4.894  0.2865 -0.3265 -0.1081
 3114TIP3    H130757   4.037   1.117   4.867 -1.6004  1.0023 -1.2219
 3114TIP3    H230758   4.014   1.245   4.943  1.0616  0.9701 -0.2786
 3115TIP3   OH230759   2.863   0.331   0.078 -0.5200 -0.0594  0.1278
 3115TIP3    H130760   2.950   0.329   0.117 -1.3225 -1.5545  1.9877
 3115TIP3    H230761   2.874   0.289  -0.007  0.6794  0.4225  0.0248
 3116TIP3   OH230762   5.793   3.565  15.201  0.0167 -0.0422 -0.5313
 3116TIP3    H130763   5.847   3.624  15.150 -0.8411  1.2529  0.0001
 3116TIP3    H230764   5.847   3.540  15.276  0.4471 -0.0863 -0.8564
 3117TIP3   OH230765   1.715   0.698   1.257  0.1703  0.7479  0.5835
 3117TIP3    H130766   1.733   0.664   1.170  1.7121  1.1815  0.7032
 3117TIP3    H230767   1.623   0.724   1.254 -0.1392 -0.3963 -0.5063
 3118TIP3   OH230768   4.960   6.553  14.932  0.1708  0.1342  0.0717
 3118TIP3    H130769   4.954   6.469  14.977 -0.2283 -0.0745 -0.3629
 3118TIP3    H230770   4.882   6.601  14.960  0.4746  0.4226  0.4368
 3119TIP3   OH230771   0.440   4.881  16.585  0.2223  0.0813 -0.2967
 3119TIP3    H130772   0.378   4.839  16.524  1.5894 -3.1199  0.3007
 3119TIP3    H230773   0.518   4.895  16.532 -0.0156  1.4147 -0.3191
 3120TIP3   OH230774   0.413   1.238  16.298 -0.0073  0.7160 -0.1360
 3120TIP3    H130775   0.331   1.276  16.267 -1.3357 -1.1299  0.9575
 3120TIP3    H230776   0.428   1.281  16.383 -0.7830 -0.1471  0.4591
 3121TIP3   OH230777   1.035   1.062  11.272  0.6817  0.2401 -0.0339
 3121TIP3    H130778   1.052   1.054  11.178  0.6849 -1.2949  0.0725
 3121TIP3    H230779   0.955   1.010  11.286  1.7285 -1.1260  1.0971
 3122TIP3   OH230780   5.309   1.403   2.773 -0.6750  0.2170 -0.3305
 3122TIP3    H130781   5.289   1.460   2.847  0.9041  0.8220 -0.3331
 3122TIP3    H230782   5.292   1.457   2.696 -1.1485 -0.0016 -0.3783
 3123TIP3   OH230783   3.125   4.128  15.457  0.1086  0.1803 -0.0486
 3123TIP3    H130784   3.043   4.102  15.500 -0.5151  1.6970 -0.2559
 3123TIP3    H230785   3.181   4.051  15.464 -1.3853 -0.9452 -0.0281
 3124TIP3   OH230786   5.304   4.788  10.794  0.6171 -0.0834 -0.1879
 3124TIP3    H130787   5.378   4.848  10.798  0.2349  0.3476  0.5555
 3124TIP3    H230788   5.342   4.702  10.808  1.0509  0.0746 -0.3823
 3125TIP3   OH230789   2.046   2.249  11.249 -0.3829 -0.6580 -0.4908
 3125TIP3    H130790   2.100   2.180  11.287  0.2056  0.4527  0.7675
 3125TIP3    H230791   1.959   2.209  11.240  0.0177 -1.6542 -0.1296
 3126TIP3   OH230792   5.398   4.760  15.003 -0.2952 -0.5272  0.3609
 3126TIP3    H130793   5.363   4.671  14.995 -0.1407 -0.4549 -1.6121
 3126TIP3    H230794   5.367   4.805  14.924 -1.0186  1.4224  1.6881
 3127TIP3   OH230795   3.818   3.758  14.370 -0.1344  0.7378 -0.2079
 3127TIP3    H130796   3.871   3.698  14.422  2.0651  1.6469 -1.2570
 3127TIP3    H230797   3.747   3.784  14.428 -0.9391 -2.4906  0.4289
 3128TIP3   OH230798   0.932   6.219  17.184 -0.0934  0.0939 -0.1043
 3128TIP3    H130799   0.865   6.242  17.248 -0.5059 -1.3112 -0.0069
 3128TIP3    H230800   1.006   6.276  17.206 -0.4502  0.0870  1.2151
 3129TIP3   OH230801   2.973   6.521   0.350 -0.3038  0.8401  0.0016
 3129TIP3    H130802   2.881   6.515   0.377 -0.3387  0.2880 -0.2347
 3129TIP3    H230803   2.974   6.592   0.286 -0.5588  0.8728  0.0307
 3130TIP3   OH230804   4.219   5.566  16.308 -0.3279 -0.2410  0.0940
 3130TIP3    H130805   4.203   5.653  16.272 -1.4201 -0.8174 -0.8787
 3130TIP3    H230806   4.288   5.529  16.252 -2.0863 -1.1702 -1.5682
 3131TIP3   OH230807   4.589   0.565   3.555 -0.4211 -0.3405 -0.9600
 3131TIP3    H130808   4.622   0.654   3.541  2.3489 -1.3781 -1.6989
 3131TIP3    H230809   4.589   0.526   3.468 -0.9887 -1.2729 -0.5549
 3132TIP3   OH230810   3.443   2.332  13.438 -0.0228  0.2244 -0.2859
 3132TIP3    H130811   3.353   2.300  13.433  0.0128  0.1927 -3.8523
 3132TIP3    H230812   3.496   2.254  13.418  0.9648  0.0027  2.7655
 3133TIP3   OH230813   0.586   1.071  14.687 -0.1906 -0.2281 -0.0498
 3133TIP3    H130814   0.612   1.142  14.746 -2.2316  0.4414  0.1373
 3133TIP3    H230815   0.650   1.002  14.703  1.7810  1.4783 -0.1281
 3134TIP3   OH230816   4.852   1.020   1.909 -0.1243  0.4093 -0.5200
 3134TIP3    H130817   4.856   1.106   1.867 -3.2660 -0.4289 -2.9072
 3134TIP3    H230818   4.884   0.960   1.842 -1.7228 -0.6112 -0.4180
 3135TIP3   OH230819   3.960   6.297   5.240 -0.7351 -0.3369  0.0455
 3135TIP3    H130820   4.046   6.285   5.278  0.1158  0.6155 -1.4780
 3135TIP3    H230821   3.973   6.284   5.146 -2.2931 -0.4022 -0.1931
 3136TIP3   OH230822   1.478   0.057  15.700  0.3746 -0.8162  0.5116
 3136TIP3    H130823   1.569   0.079  15.721  0.6230 -0.7985 -0.5351
 3136TIP3    H230824   1.433   0.141  15.698  0.4713 -0.7660  0.4208
 3137TIP3   OH230825   3.009   5.794  15.641  0.1528 -0.2009 -0.3520
 3137TIP3    H130826   3.049   5.775  15.557  1.0137  0.7627 -0.1795
 3137TIP3    H230827   3.074   5.767  15.706  0.7097  1.6905 -0.0734
 3138TIP3   OH230828   2.634   3.879   2.224  0.0390  0.0957  0.1898
 3138TIP3    H130829   2.629   3.786   2.244  0.4753  0.0210 -0.0444
 3138TIP3    H230830   2.727   3.900   2.229  0.1824  0.0738 -1.7851
 3139TIP3   OH230831   5.605   0.349  11.289  0.7293 -0.1546  0.1211
 3139TIP3    H130832   5.633   0.271  11.241  0.5827 -0.2831  0.2441
 3139TIP3    H230833   5.687   0.393  11.313  0.8514 -0.7853  0.8988
 3140TIP3   OH230834   2.667   3.429  16.779 -0.1865 -0.3698 -0.4268
 3140TIP3    H130835   2.572   3.422  16.791 -0.3491  0.9083 -0.8302
 3140TIP3    H230836   2.685   3.377  16.701 -0.5400 -0.6512 -0.3257
 3141TIP3   OH230837   6.250   5.262   3.149  0.0701  0.1199 -0.0228
 3141TIP3    H130838   6.303   5.218   3.216  0.1019  0.5722  0.2521
 3141TIP3    H230839   6.305   5.334   3.119 -0.2166  0.3306 -0.0445
 3142TIP3   OH230840   6.022   5.725  10.883  0.2683 -0.6529  0.3077
 3142TIP3    H130841   6.031   5.792  10.951  0.8737  1.3374 -1.6406
 3142TIP3    H230842   6.102   5.673  10.890  0.8712  0.2639  0.3873
 3143TIP3   OH230843   5.499   1.257   1.852  0.2999 -0.2964  0.3311
 3143TIP3    H130844   5.451   1.331   1.890  0.5500 -0.5458  1.1626
 3143TIP3    H230845   5.441   1.182   1.865 -0.3144 -0.1369 -1.2493
 3144TIP3   OH230846   4.694   2.362  14.236  0.3426 -0.3742 -0.1680
 3144TIP3    H130847   4.607   2.328  14.217  0.5468 -0.6828 -0.5700
 3144TIP3    H230848   4.713   2.333  14.325 -0.2564  0.3139  0.1980
 3145TIP3   OH230849   2.468   5.966   2.488  0.2580 -0.2447  0.0766
 3145TIP3    H130850   2.489   6.009   2.570 -0.0576 -1.7639  1.0085
 3145TIP3    H230851   2.537   5.901   2.476  1.2769  1.0991 -1.7966
 3146TIP3   OH230852   4.284   6.519   1.099 -0.1746 -0.3413  0.3191
 3146TIP3    H130853   4.332   6.598   1.073 -0.5100  0.3505  1.6938
 3146TIP3    H230854   4.274   6.469   1.018 -0.2990  1.2109 -0.6669
 3147TIP3   OH230855   3.749   3.631  12.605 -0.2911  0.1070 -0.0322
 3147TIP3    H130856   3.755   3.700  12.538  0.3314 -0.2164 -0.3240
 3147TIP3    H230857   3.661   3.594  12.594 -1.7304  2.6088  1.9216
 3148TIP3   OH230858   0.541   3.681   5.162 -0.2605 -0.0864  0.2141
 3148TIP3    H130859   0.627   3.653   5.194 -0.2003  0.8657  0.9210
 3148TIP3    H230860   0.559   3.721   5.077  0.1800  1.1991  0.8909
 3149TIP3   OH230861   1.918   2.615  12.463 -0.1811  0.6498 -0.0404
 3149TIP3    H130862   1.955   2.528  12.481  0.1839  0.6458 -0.7648
 3149TIP3    H230863   1.970   2.675  12.516  1.0532  0.6698 -1.2145
 3150TIP3   OH230864   5.293   2.178  11.855  0.9982  0.4185  0.0797
 3150TIP3    H130865   5.303   2.261  11.902  1.2350 -0.5644  1.8324
 3150TIP3    H230866   5.328   2.112  11.915  1.6670 -0.8653 -1.6549
 3151TIP3   OH230867   5.127   1.970  12.490 -0.0251  0.3254 -0.2646
 3151TIP3    H130868   5.086   1.892  12.451 -1.4840  1.1427 -0.4564
 3151TIP3    H230869   5.140   1.946  12.582  0.5349 -0.5126 -0.5500
 3152TIP3   OH230870   2.965   1.722   0.264 -0.1680 -0.2722  0.1209
 3152TIP3    H130871   3.031   1.746   0.329 -0.9201 -0.1995  0.8804
 3152TIP3    H230872   2.966   1.626   0.264 -0.2845 -0.2761  0.3778
 3153TIP3   OH230873   5.967   6.758   2.442 -0.2200  0.2186 -0.6844
 3153TIP3    H130874   6.021   6.837   2.442  0.2889 -0.0851  0.7943
 3153TIP3    H230875   6.029   6.687   2.422 -0.1455 -0.0731  0.5119
 3154TIP3   OH230876   6.692   1.772  11.701  0.0395  0.2037 -0.9498
 3154TIP3    H130877   6.608   1.809  11.678 -0.6799 -0.7354  0.0343
 3154TIP3    H230878   6.677   1.677  11.702  0.3996  0.0942  1.6044
 3155TIP3   OH230879   3.804   0.629   4.279  0.2887 -0.1957 -0.0693
 3155TIP3    H130880   3.722   0.672   4.303  0.7587 -0.0299  1.3610
 3155TIP3    H230881   3.868   0.700   4.273  0.4192 -0.3686 -0.7617
 3156TIP3   OH230882   4.742   6.754  13.554  0.4449  0.4142  0.2811
 3156TIP3    H130883   4.684   6.736  13.481  1.4980 -0.0448 -0.4707
 3156TIP3    H230884   4.738   6.849  13.565 -0.1303  0.4257 -0.0234
 3157TIP3   OH230885   2.288   2.820  14.160  0.0109 -0.2232 -0.0696
 3157TIP3    H130886   2.370   2.791  14.118  0.2038  0.6376 -0.3097
 3157TIP3    H230887   2.306   2.910  14.187 -0.5927 -0.3018  0.6122
 3158TIP3   OH230888   4.719   4.285   1.196 -0.1940 -0.1139  0.3527
 3158TIP3    H130889   4.790   4.282   1.132  2.0368  1.9343  2.5233
 3158TIP3    H230890   4.709   4.377   1.217 -4.1922 -0.1733 -0.3986
 3159TIP3   OH230891   5.949   4.153  16.931  0.1238  0.6890  0.5565
 3159TIP3    H130892   5.933   4.153  17.026  0.1705  0.5670  0.5649
 3159TIP3    H230893   6.038   4.188  16.922  0.7275 -0.7408  0.6657
 3160TIP3   OH230894   6.601   0.905   3.035  0.3531  0.4504 -0.1231
 3160TIP3    H130895   6.682   0.948   3.061 -0.9685  2.3878  1.0058
 3160TIP3    H230896   6.582   0.845   3.107 -0.2860  1.5570  0.6560
 3161TIP3   OH230897   4.429   0.182   3.544 -0.3922 -0.3541 -0.1747
 3161TIP3    H130898   4.369   0.240   3.591  0.9424  0.5929  0.3989
 3161TIP3    H230899   4.454   0.116   3.609 -0.8938 -0.8364 -0.4575
 3162TIP3   OH230900   1.257   5.261  17.127 -0.2614  0.5380  0.3587
 3162TIP3    H130901   1.181   5.316  17.110  0.1551  1.1457  0.4234
 3162TIP3    H230902   1.331   5.309  17.089 -0.2301 -1.2227 -2.0267
 3163TIP3   OH230903   5.571   2.019  17.018 -0.5360 -0.5120  0.0585
 3163TIP3    H130904   5.502   2.009  17.083  0.0623 -0.2331  0.7635
 3163TIP3    H230905   5.578   2.114  17.004  0.2325 -0.4742  0.6069
 3164TIP3   OH230906   6.110   0.964  14.015 -0.0425  0.5419 -0.1759
 3164TIP3    H130907   6.018   0.961  14.042  0.2448  0.0298  0.7776
 3164TIP3    H230908   6.137   0.872  14.012  1.2013  0.7481  2.3201
 3165TIP3   OH230909   4.778   2.377  16.407 -0.4106 -0.1016 -0.1445
 3165TIP3    H130910   4.842   2.441  16.439  0.2770 -0.4944 -0.7129
 3165TIP3    H230911   4.731   2.349  16.486  0.9553 -0.7306  0.4638
 3166TIP3   OH230912   3.908   3.027   1.761  0.3791 -0.3916  0.3980
 3166TIP3    H130913   3.977   3.047   1.698  1.4705 -2.1904  0.9432
 3166TIP3    H230914   3.934   3.072   1.841  0.2930 -0.1148  0.2710
 3167TIP3   OH230915   6.761   6.516   4.944  0.1819  0.1142 -0.0112
 3167TIP3    H130916   6.698   6.568   4.995  0.4425  0.8247 -0.3907
 3167TIP3    H230917   6.825   6.485   5.009 -1.0709 -1.4562  0.5419
 3168TIP3   OH230918   0.268   3.864   5.068 -0.4651  0.5947  0.1342
 3168TIP3    H130919   0.244   3.840   5.157 -2.6630 -1.8911 -1.0226
 3168TIP3    H230920   0.362   3.846   5.063 -0.6096 -0.6890  1.5027
 3169TIP3   OH230921   3.848   1.510  15.247 -0.4485 -0.2241 -0.1089
 3169TIP3    H130922   3.862   1.468  15.332  0.8509 -0.1567 -0.2829
 3169TIP3    H230923   3.908   1.466  15.188 -1.0487  0.0167 -0.9115
 3170TIP3   OH230924   4.329   2.611  12.210 -0.4913 -0.0551  0.0140
 3170TIP3    H130925   4.423   2.621  12.227 -0.8916  2.7330  1.0477
 3170TIP3    H230926   4.300   2.546  12.274  0.8495 -1.6388 -0.9176
 3171TIP3   OH230927   4.331   1.219  11.085 -0.4698 -0.3899 -0.4794
 3171TIP3    H130928   4.348   1.202  11.177  0.7567 -0.2037 -0.6535
 3171TIP3    H230929   4.276   1.298  11.085  3.2639  2.4921  0.0556
 3172TIP3   OH230930   1.520   0.491  14.405  0.3747  0.2762  0.4569
 3172TIP3    H130931   1.436   0.536  14.415 -0.1951 -0.5758 -0.3485
 3172TIP3    H230932   1.524   0.468  14.312  0.9296 -0.7826  0.7255
 3173TIP3   OH230933   4.253   5.193   1.815 -0.7768 -0.3245 -0.4804
 3173TIP3    H130934   4.313   5.128   1.779 -0.8453  1.0818 -3.4483
 3173TIP3    H230935   4.214   5.235   1.738 -1.1216  2.8489  1.2500
 3174TIP3   OH230936   5.289   6.243  15.015 -0.6617 -0.0233 -0.3885
 3174TIP3    H130937   5.211   6.293  15.040 -1.1015 -1.5035  1.4909
 3174TIP3    H230938   5.361   6.287  15.060 -0.7749 -0.0063 -0.2205
 3175TIP3   OH230939   3.359   6.608  15.682 -0.7424 -0.2473  1.0314
 3175TIP3    H130940   3.386   6.656  15.761 -0.3934 -0.7110  1.1943
 3175TIP3    H230941   3.359   6.516  15.708 -0.0146 -0.4615  0.3187
 3176TIP3   OH230942   6.307   6.116  17.305 -0.2364  0.2914 -0.2739
 3176TIP3    H130943   6.301   6.211  17.305 -0.5929  0.3291 -2.5601
 3176TIP3    H230944   6.218   6.086  17.323 -0.9012  0.4935 -2.8174
 3177TIP3   OH230945   5.883   4.361  11.826 -0.0332  0.2665  0.1156
 3177TIP3    H130946   5.813   4.426  11.823 -0.6699 -0.2522  2.0741
 3177TIP3    H230947   5.957   4.402  11.781 -1.4424  0.9737 -1.6547
 3178TIP3   OH230948   5.068   5.335   5.265  0.0726  0.5700 -0.0599
 3178TIP3    H130949   5.133   5.296   5.323  1.4394 -0.5450 -2.2011
 3178TIP3    H230950   5.119   5.377   5.196 -1.4444  0.4141 -1.3488
 3179TIP3   OH230951   0.821   4.203   5.675  0.1824 -0.0704 -0.0864
 3179TIP3    H130952   0.901   4.151   5.664 -0.3686 -0.8776 -0.4021
 3179TIP3    H230953   0.816   4.255   5.595  0.0535 -0.5001 -0.3608
 3180TIP3   OH230954   1.849   1.330  11.874  0.2017  0.1391  0.4443
 3180TIP3    H130955   1.821   1.416  11.906  0.4716  0.0933  0.8080
 3180TIP3    H230956   1.933   1.314  11.918  0.2491 -0.2227  0.2264
 3181TIP3   OH230957   0.016   2.976  12.347  0.0066  0.3539  0.5669
 3181TIP3    H130958  -0.065   2.990  12.297 -0.0532  0.0258  0.5670
 3181TIP3    H230959   0.084   2.967  12.280 -0.3645 -2.0403  0.4220
 3182TIP3   OH230960   1.705   6.182  16.239  0.2625  0.0439 -0.1594
 3182TIP3    H130961   1.737   6.134  16.315  0.8926 -1.1881 -1.1434
 3182TIP3    H230962   1.774   6.171  16.173  0.0207  1.6018 -0.7163
 3183TIP3   OH230963   4.967   3.716   2.629  0.0814  0.4068 -0.1650
 3183TIP3    H130964   4.963   3.811   2.629  0.4041  0.4207 -0.1748
 3183TIP3    H230965   4.875   3.688   2.624 -0.0836  0.7079  0.9764
 3184TIP3   OH230966   0.179   0.331  12.760 -0.0607 -0.3114 -0.5328
 3184TIP3    H130967   0.204   0.383  12.836  1.9897 -0.9068 -0.7281
 3184TIP3    H230968   0.092   0.363  12.737 -0.8007 -0.1665  2.0877
 3185TIP3   OH230969   6.592   6.073   0.202  0.0719  0.0200 -0.3197
 3185TIP3    H130970   6.584   6.143   0.137 -0.4021 -1.4102 -1.8699
 3185TIP3    H230971   6.686   6.055   0.206  0.0728 -0.1133 -0.8753
 3186TIP3   OH230972   2.386   0.575  13.411  0.2942  0.2677 -0.4509
 3186TIP3    H130973   2.323   0.510  13.382  0.3186  0.5321 -1.1421
 3186TIP3    H230974   2.335   0.638  13.462  0.0160  0.4129 -0.9011
 3187TIP3   OH230975   3.256   3.879  15.497  0.4841 -0.2638 -0.3319
 3187TIP3    H130976   3.283   3.853  15.585 -3.6459  0.0686  1.2979
 3187TIP3    H230977   3.251   3.797  15.448  2.8331 -0.4501 -0.3746
 3188TIP3   OH230978   2.858   0.581  10.817  0.2151 -0.0747  0.7244
 3188TIP3    H130979   2.907   0.602  10.897 -0.2192 -0.1977  1.0315
 3188TIP3    H230980   2.897   0.636  10.750  1.2214 -0.6571  0.8003
 3189TIP3   OH230981   1.912   0.265   2.504 -0.1217  0.0721 -0.7137
 3189TIP3    H130982   1.852   0.303   2.568  0.5454 -0.3872  0.1912
 3189TIP3    H230983   1.870   0.183   2.479  0.1831 -0.3168  0.0244
 3190TIP3   OH230984   3.006   3.919  15.156 -0.1838 -0.1578 -0.0331
 3190TIP3    H130985   3.082   3.861  15.158 -0.6716 -0.7858  1.1350
 3190TIP3    H230986   2.934   3.865  15.189 -0.8448  0.8308  0.1738
 3191TIP3   OH230987   4.740   2.432  11.916 -0.0805  0.2259 -0.3584
 3191TIP3    H130988   4.698   2.477  11.989 -0.6904  1.7421 -1.6153
 3191TIP3    H230989   4.815   2.486  11.894  1.5236 -1.4717  0.6318
 3192TIP3   OH230990   5.758   5.145  16.647  0.5682  0.6249  0.0854
 3192TIP3    H130991   5.763   5.100  16.563  1.4281  0.2193  0.3368
 3192TIP3    H230992   5.685   5.206  16.638 -0.5028 -0.6766 -0.3401
 3193TIP3   OH230993   6.429   2.900  15.695  0.6275 -0.2281  0.3024
 3193TIP3    H130994   6.492   2.909  15.623  0.3417 -0.1441  0.0617
 3193TIP3    H230995   6.464   2.956  15.764  0.2037  0.7430 -0.2588
 3194TIP3   OH230996   3.236   4.087  15.884  0.1880 -0.6594  0.0157
 3194TIP3    H130997   3.165   4.140  15.847  0.4248 -1.6252 -1.9541
 3194TIP3    H230998   3.191   4.019  15.935 -0.1890  0.0422  0.6504
 3195TIP3   OH230999   0.474   4.194  15.725 -0.2226 -0.1830  0.6391
 3195TIP3    H131000   0.517   4.244  15.656  0.5184 -2.6185 -0.7619
 3195TIP3    H231001   0.544   4.142  15.764 -1.1023 -0.7432  1.5172
 3196TIP3   OH231002   2.226   1.803   6.165 -0.1286  0.1883  0.1373
 3196TIP3    H131003   2.277   1.878   6.133  2.2096 -0.7322  1.3867
 3196TIP3    H231004   2.213   1.822   6.258  0.6525 -0.9838  0.5066
 3197TIP3   OH231005   2.859   5.203  12.379  1.1855  0.2359 -0.0436
 3197TIP3    H131006   2.764   5.209  12.392  1.3107  2.7795  0.1270
 3197TIP3    H231007   2.880   5.112  12.400 -1.1436 -0.2683  0.3774
 3198TIP3   OH231008   5.831   1.573   0.981  0.7482  0.2135  0.0051
 3198TIP3    H131009   5.861   1.518   0.908  0.3568 -1.9941  1.4101
 3198TIP3    H231010   5.737   1.584   0.965  0.6558 -0.3009  0.1768
 3199TIP3   OH231011   3.583   3.446  11.451  0.0467  0.2325  0.0550
 3199TIP3    H131012   3.508   3.467  11.396  0.2158  1.4951  0.2833
 3199TIP3    H231013   3.616   3.363  11.415  1.0099  1.6812 -2.7045
 3200TIP3   OH231014   0.741   3.105  15.117 -0.1116 -0.3672  0.0816
 3200TIP3    H131015   0.716   3.054  15.040 -1.8165  1.2390 -0.5180
 3200TIP3    H231016   0.824   3.147  15.093  0.8712 -2.1266  0.2741
 3201TIP3   OH231017   0.069   5.489  16.982 -0.3046  0.2055  1.1562
 3201TIP3    H131018  -0.022   5.475  17.008 -0.9619  2.0425  0.0455
 3201TIP3    H231019   0.090   5.577  17.014  0.0710  1.0114 -1.1294
 3202TIP3   OH231020   1.626   2.892   5.326 -0.1210  0.0753 -0.2355
 3202TIP3    H131021   1.630   2.813   5.380  0.7363  0.2604 -0.0181
 3202TIP3    H231022   1.584   2.957   5.382  1.7678  0.5882  0.6435
 3203TIP3   OH231023   3.073   0.208  14.955 -0.2396 -0.7987  0.3952
 3203TIP3    H131024   3.087   0.163  14.872  0.3725 -2.2487  1.2391
 3203TIP3    H231025   3.131   0.163  15.017 -0.7453  0.1798  1.6322
 3204TIP3   OH231026   2.868   6.748  14.049  0.1058  0.5697 -0.0506
 3204TIP3    H131027   2.950   6.788  14.018  0.3016  0.3065  0.1280
 3204TIP3    H231028   2.800   6.808  14.019  0.4269  1.2316  0.5348
 3205TIP3   OH231029   6.357   5.337  12.612  0.4179 -0.1679 -0.0297
 3205TIP3    H131030   6.364   5.281  12.690  0.0458  0.4603  0.4580
 3205TIP3    H231031   6.436   5.316  12.562  1.2268  0.1936  1.0330
 3206TIP3   OH231032   3.824   1.382  11.131 -0.0714  0.2866  0.2951
 3206TIP3    H131033   3.827   1.288  11.150 -1.8315 -0.1177 -1.1158
 3206TIP3    H231034   3.866   1.390  11.045 -2.7642  0.2036 -1.1681
 3207TIP3   OH231035   0.517   6.075   0.203  0.2763 -0.7849 -0.5678
 3207TIP3    H131036   0.514   6.038   0.115 -0.5249 -1.6620 -0.1927
 3207TIP3    H231037   0.519   5.998   0.261 -0.2517 -0.2360  0.1985
 3208TIP3   OH231038   1.439   4.158   4.039  0.1069  0.2248 -0.8757
 3208TIP3    H131039   1.484   4.237   4.010  0.2697  0.7232  0.6047
 3208TIP3    H231040   1.475   4.141   4.126 -1.2003 -0.4503 -0.4360
 3209TIP3   OH231041   1.465   2.402  16.474 -0.0313  0.3615  0.6128
 3209TIP3    H131042   1.385   2.360  16.442 -1.2876  2.1703  1.2151
 3209TIP3    H231043   1.510   2.432  16.395 -0.1495 -0.3167  0.2843
 3210TIP3   OH231044   4.915   5.885  15.062  0.1537  0.4898 -1.0199
 3210TIP3    H131045   4.964   5.956  15.103  1.6871 -0.5413 -0.9878
 3210TIP3    H231046   4.942   5.888  14.970  0.4797 -0.2239 -0.9567
 3211TIP3   OH231047   4.317   4.012  13.017  0.2444  0.2724 -0.0106
 3211TIP3    H131048   4.276   3.978  12.938  0.0962 -2.5528  1.1363
 3211TIP3    H231049   4.250   4.067  13.057 -0.8028 -0.6564 -0.4096
 3212TIP3   OH231050   3.603   2.363  10.963  0.1060  0.2917 -0.7941
 3212TIP3    H131051   3.509   2.348  10.973 -0.2306  1.7647 -1.5137
 3212TIP3    H231052   3.626   2.316  10.883 -0.9533  3.3140 -3.0751
 3213TIP3   OH231053   4.984   2.197   1.983 -0.1611 -0.1353 -0.3172
 3213TIP3    H131054   4.930   2.268   2.018  0.3539  0.3540 -0.5118
 3213TIP3    H231055   5.021   2.232   1.902  1.1519 -0.1388  0.2542
 3214TIP3   OH231056   3.945   1.501  15.794  0.2362 -0.0316  0.3206
 3214TIP3    H131057   4.034   1.533  15.809  1.1184 -1.7392 -0.8481
 3214TIP3    H231058   3.919   1.463  15.877  1.1294 -0.6253  0.3535
 3215TIP3   OH231059   0.694   3.069   3.949  0.3425 -0.0250 -0.4813
 3215TIP3    H131060   0.672   3.145   3.896 -1.7962 -0.0638  0.2323
 3215TIP3    H231061   0.754   3.103   4.015  0.4407  0.7524 -0.9571
 3216TIP3   OH231062   4.759   6.761   0.993  0.1392 -0.0830  0.3224
 3216TIP3    H131063   4.824   6.795   0.932 -0.0945 -0.4020 -0.1069
 3216TIP3    H231064   4.751   6.829   1.060  0.0913  0.4479 -0.2206
 3217TIP3   OH231065   4.728   0.674   2.928 -0.2291 -0.0462 -0.0583
 3217TIP3    H131066   4.656   0.674   2.992 -0.4693  0.4344 -0.3243
 3217TIP3    H231067   4.755   0.583   2.924 -0.5950 -0.1793  0.3044
 3218TIP3   OH231068   0.280   1.486  14.620  0.1439  0.7327  0.1481
 3218TIP3    H131069   0.328   1.461  14.699 -1.4315 -1.1894  0.5852
 3218TIP3    H231070   0.299   1.416  14.557 -0.0777  1.2795 -0.5394
 3219TIP3   OH231071   5.707   1.016  12.148 -0.2666  0.2771  0.0519
 3219TIP3    H131072   5.794   1.056  12.142  0.1824 -0.5888  0.6179
 3219TIP3    H231073   5.649   1.089  12.169 -0.0565  1.2743 -2.4014
 3220TIP3   OH231074   5.856   4.371  13.702 -0.2009  0.0922  0.5267
 3220TIP3    H131075   5.859   4.304  13.634  0.7316  0.3052  0.3421
 3220TIP3    H231076   5.803   4.332  13.771 -0.9056 -0.2475 -0.1846
 3221TIP3   OH231077   0.521   3.739   4.543 -0.2722 -0.4034  0.7491
 3221TIP3    H131078   0.606   3.709   4.512 -0.1594  3.2597 -3.4442
 3221TIP3    H231079   0.538   3.775   4.630  2.2583 -0.6956  0.4293
 3222TIP3   OH231080   6.324   2.627  15.066  0.0445 -0.2838 -0.8286
 3222TIP3    H131081   6.411   2.602  15.098 -0.5762 -1.7941 -0.2497
 3222TIP3    H231082   6.288   2.681  15.136 -0.1766 -1.1802 -0.2272
 3223TIP3   OH231083   3.942   2.356   0.688  0.2735  0.6548  0.5359
 3223TIP3    H131084   4.034   2.372   0.710  0.9713 -0.5514 -1.2851
 3223TIP3    H231085   3.897   2.354   0.773  1.9223  1.1662  1.4710
 3224TIP3   OH231086   1.894   5.296  12.959 -0.4320  0.5855 -0.1660
 3224TIP3    H131087   1.850   5.358  13.017 -2.7783  0.9934 -2.2017
 3224TIP3    H231088   1.843   5.216  12.966  2.4191 -1.2163  2.2425
 3225TIP3   OH231089   1.391   0.146  11.155 -0.3797 -0.5459  0.4653
 3225TIP3    H131090   1.451   0.214  11.127 -1.3480  0.4178  0.6784
 3225TIP3    H231091   1.420   0.067  11.109  0.5406  0.0820 -0.0427
 3226TIP3   OH231092   6.324   1.210   6.267  0.6585  0.1277 -0.1323
 3226TIP3    H131093   6.241   1.162   6.261 -0.1986  1.1274  2.2476
 3226TIP3    H231094   6.391   1.143   6.256 -0.4843 -1.0442 -0.2498
 3227TIP3   OH231095   1.873   5.521  12.428 -0.5239  0.2840 -0.1190
 3227TIP3    H131096   1.910   5.550  12.345  1.0260 -0.9491  0.0972
 3227TIP3    H231097   1.942   5.536  12.492  0.0816 -2.9065  0.1590
 3228TIP3   OH231098   5.813   5.868   5.591 -0.3350  0.2647  0.4544
 3228TIP3    H131099   5.896   5.875   5.545 -1.0145  0.8595 -0.7364
 3228TIP3    H231100   5.801   5.774   5.606  0.8999  0.2297  1.3531
 3229TIP3   OH231101   6.726   3.275  15.720 -0.1481 -0.1046  0.0227
 3229TIP3    H131102   6.668   3.202  15.744 -0.6551  0.3621  0.2337
 3229TIP3    H231103   6.796   3.234  15.669  0.1868 -0.9102  1.0919
 3230TIP3   OH231104   3.817   3.669   2.430 -0.3167  0.4351  0.3064
 3230TIP3    H131105   3.812   3.658   2.335 -0.7114 -3.5256  0.6277
 3230TIP3    H231106   3.910   3.685   2.447  0.0525 -0.5963 -0.6473
 3231TIP3   OH231107   3.715   5.684  11.586  0.3461  0.1304 -0.0727
 3231TIP3    H131108   3.739   5.755  11.646 -1.2460 -1.8029  3.1350
 3231TIP3    H231109   3.645   5.721  11.532 -1.2225  0.8155  2.2686
 3232TIP3   OH231110   5.715   2.365  13.168 -0.4580 -0.3644  0.1006
 3232TIP3    H131111   5.671   2.370  13.083  1.6120  1.3275 -0.9713
 3232TIP3    H231112   5.769   2.286  13.162 -1.4164 -1.0649  0.4554
 3233TIP3   OH231113   1.359   2.789   3.833 -0.5553 -0.3197 -0.8556
 3233TIP3    H131114   1.372   2.696   3.814 -0.8891 -0.6374  0.3791
 3233TIP3    H231115   1.448   2.824   3.840 -0.4281 -0.5279 -1.3909
 3234TIP3   OH231116   3.400   1.396   2.658  0.1882  0.4460 -0.0791
 3234TIP3    H131117   3.351   1.474   2.632 -0.1312 -0.1362 -1.3138
 3234TIP3    H231118   3.338   1.324   2.650  0.2855  0.1074  1.6850
 3235TIP3   OH231119   3.750   4.664   4.524 -0.5039  0.3807  0.6115
 3235TIP3    H131120   3.701   4.724   4.468 -2.6361 -0.6707  1.2549
 3235TIP3    H231121   3.757   4.584   4.472  1.8998  0.9304 -0.0508
 3236TIP3   OH231122   5.796   1.697   2.300 -0.2881 -0.3278  0.0557
 3236TIP3    H131123   5.808   1.669   2.209  1.6922 -1.1277  0.5100
 3236TIP3    H231124   5.878   1.741   2.322 -1.6731  2.1123  0.7275
 3237TIP3   OH231125   5.899   0.339   4.790  0.4443  0.0848  0.3992
 3237TIP3    H131126   5.994   0.335   4.800  0.5309  0.6178 -0.1566
 3237TIP3    H231127   5.883   0.308   4.701  0.0780 -0.2629  0.5885
 3238TIP3   OH231128   0.388   1.927   2.256  0.4100  0.0041 -0.7526
 3238TIP3    H131129   0.349   1.840   2.244 -0.8979  0.2337  1.3829
 3238TIP3    H231130   0.476   1.908   2.290 -0.0729 -0.5013  0.2514
 3239TIP3   OH231131   3.201   0.614   2.455  0.1043 -0.2976  0.0559
 3239TIP3    H131132   3.151   0.695   2.455 -1.1310 -1.0294 -0.1276
 3239TIP3    H231133   3.182   0.574   2.369  2.3574  0.1859 -0.7246
 3240TIP3   OH231134   1.669   5.834  12.173 -0.2498  0.5281  0.6819
 3240TIP3    H131135   1.584   5.877  12.161 -1.3562 -1.2741  1.6689
 3240TIP3    H231136   1.649   5.741  12.172  2.3788 -0.2990 -4.0914
 3241TIP3   OH231137   4.748   6.287  11.382  0.0818 -0.3209 -0.0678
 3241TIP3    H131138   4.770   6.328  11.298  5.0597  2.0529  1.9991
 3241TIP3    H231139   4.791   6.202  11.379 -0.5763 -0.6514 -0.2453
 3242TIP3   OH231140   5.851   0.344  15.822  0.9888  0.3029  0.1028
 3242TIP3    H131141   5.761   0.355  15.852  1.2644  0.5086  0.8610
 3242TIP3    H231142   5.886   0.432  15.816  1.4590  0.1672  0.8019
 3243TIP3   OH231143   5.834   3.000   0.852 -0.6348 -0.0249 -0.3575
 3243TIP3    H131144   5.784   3.069   0.896  0.4524 -1.3028  3.2486
 3243TIP3    H231145   5.768   2.946   0.808 -1.7777  1.5286 -0.6120
 3244TIP3   OH231146   0.020   1.162   3.260 -0.1907  0.4232 -0.4976
 3244TIP3    H131147  -0.053   1.223   3.268  0.6702  1.3770  0.4365
 3244TIP3    H231148   0.032   1.127   3.348 -0.0728 -0.3706 -0.8259
 3245TIP3   OH231149   2.874   2.201  10.714 -0.1739  0.2241  0.4132
 3245TIP3    H131150   2.850   2.239  10.630  0.2240  2.0669  1.1011
 3245TIP3    H231151   2.806   2.230  10.775  0.5664  0.5040  1.1209
 3246TIP3   OH231152   1.912   3.808  15.613  0.2148  0.0987  0.1633
 3246TIP3    H131153   1.933   3.741  15.678  0.2092  0.6407  0.7330
 3246TIP3    H231154   1.959   3.780  15.534  1.1583  0.0335  0.7278
 3247TIP3   OH231155   1.403   6.208   4.187  0.5824  0.1683 -0.1561
 3247TIP3    H131156   1.392   6.147   4.114  1.7606  0.2776 -0.4470
 3247TIP3    H231157   1.368   6.291   4.155 -0.0647 -0.0936 -0.1363
 3248TIP3   OH231158   4.221   3.479  12.774  0.2322 -0.3519 -0.1013
 3248TIP3    H131159   4.208   3.501  12.866  0.2243  0.5570 -0.3060
 3248TIP3    H231160   4.265   3.556  12.737 -0.0051 -0.5947 -0.9166
 3249TIP3   OH231161   2.752   0.413  12.653  0.6651  0.2282  0.1270
 3249TIP3    H131162   2.846   0.426  12.641  0.7864 -0.5715  0.1514
 3249TIP3    H231163   2.742   0.318  12.658 -0.3974  0.1674 -2.0952
 3250TIP3   OH231164   3.198   4.397   4.578  0.2244 -0.5659  0.3031
 3250TIP3    H131165   3.252   4.393   4.499 -0.7232  2.9209 -0.7416
 3250TIP3    H231166   3.261   4.405   4.650  1.4496  3.8536 -0.9070
 3251TIP3   OH231167   4.408   6.016   3.376  0.1652  0.1134  0.2096
 3251TIP3    H131168   4.443   5.927   3.370 -0.7912 -0.1617 -2.6186
 3251TIP3    H231169   4.313   6.005   3.375  0.0362  1.1693 -0.4051
 3252TIP3   OH231170   5.389   4.267  12.037 -0.0777 -0.0517 -0.4907
 3252TIP3    H131171   5.329   4.338  12.060 -1.3285 -1.4034  0.6374
 3252TIP3    H231172   5.372   4.199  12.103  1.6587 -1.0805 -1.0362
 3253TIP3   OH231173   1.373   1.026  11.618 -0.1962 -0.5212  0.3875
 3253TIP3    H131174   1.357   1.021  11.712 -1.6250  0.3702  0.2245
 3253TIP3    H231175   1.289   1.004  11.578  0.2860 -0.4800 -0.6734
 3254TIP3   OH231176   3.784   6.042   0.194 -0.6634  0.3240 -0.2352
 3254TIP3    H131177   3.846   5.969   0.193 -0.6469  0.2745  1.4704
 3254TIP3    H231178   3.703   6.003   0.227 -0.6053  1.0888  0.8539
 3255TIP3   OH231179   5.813   5.234  11.314  0.0957 -0.2576 -0.1117
 3255TIP3    H131180   5.730   5.283  11.313  1.4631  2.2078 -1.4746
 3255TIP3    H231181   5.847   5.246  11.403  0.7000  1.9047 -0.5917
 3256TIP3   OH231182   2.655   5.273   6.133 -0.3097  0.5006 -0.2303
 3256TIP3    H131183   2.657   5.202   6.069  1.9679  0.7424 -0.5446
 3256TIP3    H231184   2.738   5.264   6.181  0.2985  3.1474 -0.5829
 3257TIP3   OH231185   1.438   2.333   4.616 -0.1521  0.3810  0.3022
 3257TIP3    H131186   1.463   2.419   4.651  0.0019 -0.3219  1.9834
 3257TIP3    H231187   1.521   2.293   4.591 -0.1743  0.4881  0.0515
 3258TIP3   OH231188   3.060   1.122  16.298 -0.0007 -0.0277  0.0979
 3258TIP3    H131189   3.114   1.201  16.298  0.0721 -0.0522 -1.2590
 3258TIP3    H231190   2.973   1.151  16.327  0.2959  0.3432  0.6116
 3259TIP3   OH231191   2.691   4.571  14.783  0.0058 -0.5953  0.1645
 3259TIP3    H131192   2.677   4.664  14.761  0.7504 -0.3823  0.5688
 3259TIP3    H231193   2.688   4.526  14.698 -1.1953 -0.3177  0.0440
 3260TIP3   OH231194   4.006   0.824   4.290  0.1380 -0.7550  0.8314
 3260TIP3    H131195   4.053   0.898   4.328  3.7344 -2.4635  0.1586
 3260TIP3    H231196   3.982   0.853   4.202 -0.0684  0.2003  1.2013
 3261TIP3   OH231197   6.054   1.845   0.314  0.6551 -0.2145 -0.3642
 3261TIP3    H131198   6.128   1.905   0.315  0.4160  0.0950 -0.8455
 3261TIP3    H231199   6.094   1.759   0.300  0.8938  0.0125 -1.1435
 3262TIP3   OH231200   2.883   4.000   3.913  0.3393 -0.3860 -0.1993
 3262TIP3    H131201   2.968   4.042   3.900 -0.3074  0.6615 -1.2574
 3262TIP3    H231202   2.853   4.032   3.998  0.6789 -0.1582 -0.1630
 3263TIP3   OH231203   2.247   0.801  11.823 -0.4622 -0.1869 -0.1736
 3263TIP3    H131204   2.227   0.887  11.860 -1.0801 -0.7361  0.8157
 3263TIP3    H231205   2.307   0.820  11.751  0.5727  0.9714  0.9275
 3264TIP3   OH231206   4.025   0.739  10.967 -0.7413 -0.0681  0.1571
 3264TIP3    H131207   3.961   0.707  10.903 -0.8363 -0.0947  0.2676
 3264TIP3    H231208   3.977   0.744  11.049 -1.1727  1.8077 -0.1489
 3265TIP3   OH231209   5.575   6.293   2.866 -0.6270 -0.4784  0.3760
 3265TIP3    H131210   5.652   6.350   2.870 -0.5530 -0.4637 -1.0782
 3265TIP3    H231211   5.551   6.280   2.958 -1.3251  2.8441  0.7844
 3266TIP3   OH231212   0.436   4.403   6.109 -0.0081 -0.4300  0.3157
 3266TIP3    H131213   0.400   4.426   6.195  1.6645  1.9154  0.4975
 3266TIP3    H231214   0.364   4.360   6.064 -0.6048 -2.8847  3.2399
 3267TIP3   OH231215   4.354   4.492   3.943 -0.0251 -0.0568  0.5968
 3267TIP3    H131216   4.416   4.462   4.009  2.0877  0.0533 -1.2137
 3267TIP3    H231217   4.405   4.498   3.863 -2.2577  0.6980 -0.8777
 3268TIP3   OH231218   0.558   4.583  12.604 -0.1336  0.2701 -0.5308
 3268TIP3    H131219   0.520   4.655  12.653  0.0113  0.5568 -0.8367
 3268TIP3    H231220   0.525   4.596  12.514  1.0489  0.7827 -0.9065
 3269TIP3   OH231221   1.264   6.585  14.461 -0.2429 -0.1584  0.0126
 3269TIP3    H131222   1.326   6.605  14.531 -1.7887  2.8332  0.7039
 3269TIP3    H231223   1.278   6.653  14.396 -3.0287  0.9763  0.4482
 3270TIP3   OH231224   0.621   1.941   0.813 -1.1278 -0.6926 -0.2528
 3270TIP3    H131225   0.619   1.901   0.899 -0.8748 -2.3495 -0.9866
 3270TIP3    H231226   0.713   1.967   0.800 -1.0937 -0.7815 -0.1820
 3271TIP3   OH231227   4.309   5.495   4.806 -0.2472  0.1431  0.2410
 3271TIP3    H131228   4.296   5.539   4.891  2.4383 -1.1214  1.4339
 3271TIP3    H231229   4.331   5.566   4.746  1.2411  0.7755  1.4574
 3272TIP3   OH231230   6.001   5.861  14.827  0.7083  0.7503 -0.4239
 3272TIP3    H131231   5.956   5.936  14.864  1.4836  0.3172  1.5182
 3272TIP3    H231232   6.093   5.875  14.848  0.8812 -0.6740 -0.1050
 3273TIP3   OH231233   1.985   4.773  15.397  0.4176 -0.4470 -0.1617
 3273TIP3    H131234   1.901   4.751  15.437  0.2357 -0.3881 -0.5062
 3273TIP3    H231235   1.971   4.758  15.304  0.4629  0.5720 -0.3480
 3274TIP3   OH231236   2.488   4.706   4.367 -0.5747  0.1453  0.3497
 3274TIP3    H131237   2.461   4.676   4.280 -1.0083 -1.0218  0.8576
 3274TIP3    H231238   2.510   4.798   4.356 -0.2947 -0.0701 -1.0662
 3275TIP3   OH231239   0.118   2.814  12.716  0.1895  0.1540  0.0803
 3275TIP3    H131240   0.047   2.758  12.686 -0.0624  1.3686 -1.7214
 3275TIP3    H231241   0.133   2.787  12.807 -0.8775 -1.8073 -0.2797
 3276TIP3   OH231242   4.019   5.055  17.271  0.5076  0.2363 -0.4670
 3276TIP3    H131243   4.077   5.122  17.235  1.3292 -0.2379 -0.0512
 3276TIP3    H231244   4.073   4.976  17.275  0.8391  0.4936  2.7983
 3277TIP3   OH231245   0.097   1.119  16.027  0.2460  0.7494  0.3579
 3277TIP3    H131246   0.144   1.103  16.108 -0.9641 -1.7974  0.6315
 3277TIP3    H231247   0.101   1.036  15.980 -1.5845  1.2915 -0.8508
 3278TIP3   OH231248   1.320   5.307  14.467 -0.5066  0.0484 -0.4259
 3278TIP3    H131249   1.312   5.243  14.396 -0.9101  0.8272 -1.0974
 3278TIP3    H231250   1.337   5.255  14.545  0.5599 -0.7963 -1.1979
 3279TIP3   OH231251   1.572   2.856   4.799 -0.5240 -0.0948  0.3055
 3279TIP3    H131252   1.649   2.909   4.777 -0.7258  0.6813  1.3776
 3279TIP3    H231253   1.576   2.847   4.895 -1.3691 -0.6580  0.2936
 3280TIP3   OH231254   4.710   1.584  15.964  0.1362 -0.4960 -0.3854
 3280TIP3    H131255   4.749   1.498  15.952 -0.9702 -0.9514 -0.9333
 3280TIP3    H231256   4.752   1.620  16.041  0.7999 -1.4254 -0.3021
 3281TIP3   OH231257   6.111   2.825   2.230  0.1886 -0.1545  0.1618
 3281TIP3    H131258   6.190   2.773   2.246  0.0779 -0.5303 -0.4807
 3281TIP3    H231259   6.039   2.767   2.255  0.0505 -0.4383 -0.8691
 3282TIP3   OH231260   5.805   0.787   4.134 -0.7521 -0.0680 -0.0341
 3282TIP3    H131261   5.745   0.750   4.199 -0.5018 -3.4340 -1.5266
 3282TIP3    H231262   5.754   0.793   4.054  0.5494 -2.1847 -1.1060
 3283TIP3   OH231263   1.465   2.677  11.571 -0.4000 -0.1729  0.1988
 3283TIP3    H131264   1.449   2.647  11.661  0.5637  1.2594  0.8878
 3283TIP3    H231265   1.499   2.600  11.526  0.7179 -0.5148  1.5433
 3284TIP3   OH231266   6.079   3.976  10.946  0.0685  0.0504 -0.2595
 3284TIP3    H131267   6.128   4.006  10.869 -0.3697  2.6591  0.3812
 3284TIP3    H231268   6.142   3.982  11.018  0.0884 -1.0771 -0.1680
 3285TIP3   OH231269   1.426   1.143  12.908 -0.3387  0.0045 -0.6850
 3285TIP3    H131270   1.371   1.069  12.932  0.3921 -0.6045 -0.8607
 3285TIP3    H231271   1.507   1.130  12.957 -1.9361  3.4915  3.6087
 3286TIP3   OH231272   5.090   3.949  14.543 -0.4610  0.0407 -0.3849
 3286TIP3    H131273   5.094   3.978  14.634  0.1139  0.3850 -0.5107
 3286TIP3    H231274   5.165   3.890  14.534 -1.2224 -0.9601 -0.3179
 3287TIP3   OH231275   2.464   1.588  17.351  0.4690  0.1063  0.1561
 3287TIP3    H131276   2.503   1.564  17.435  0.9817  0.0030 -0.1050
 3287TIP3    H231277   2.434   1.505  17.314  3.3584 -0.4057 -1.3099
 3288TIP3   OH231278   6.107   5.284   3.512  0.3559  0.2867 -1.0176
 3288TIP3    H131279   6.066   5.259   3.429 -2.2614  1.1957 -0.0894
 3288TIP3    H231280   6.048   5.349   3.550  2.2181  0.9688  0.9189
 3289TIP3   OH231281   2.801   3.606   6.466 -0.1115  0.1854  0.4509
 3289TIP3    H131282   2.844   3.577   6.546 -0.6178  3.7404  2.2409
 3289TIP3    H231283   2.841   3.691   6.447  0.2416 -0.6781 -3.4029
 3290TIP3   OH231284   0.092   6.668   3.404 -0.1129  0.1799 -0.0136
 3290TIP3    H131285   0.046   6.722   3.340  1.8195  0.4986 -1.2186
 3290TIP3    H231286   0.172   6.717   3.423  0.3724 -0.9591  0.9975
 3291TIP3   OH231287   2.077   2.930  12.271 -0.1479 -0.2635  0.2619
 3291TIP3    H131288   1.992   2.920  12.313 -1.1221  1.1125 -1.2538
 3291TIP3    H231289   2.109   2.841  12.260 -0.5586 -0.7238  2.4302
 3292TIP3   OH231290   2.011   3.336  13.280  0.2283 -0.8384 -0.1992
 3292TIP3    H131291   2.076   3.270  13.305  0.3638 -1.1727 -1.3351
 3292TIP3    H231292   2.062   3.415  13.264  0.4714 -1.2312 -1.5813
 3293TIP3   OH231293   5.122   5.639   5.188 -0.0829 -0.3253  0.1339
 3293TIP3    H131294   5.072   5.702   5.240  0.8352 -0.7142  1.5490
 3293TIP3    H231295   5.058   5.604   5.125 -1.0188  0.7771  0.4400
 3294TIP3   OH231296   3.515   1.092   4.669 -0.2352 -0.6402  0.1207
 3294TIP3    H131297   3.599   1.103   4.623 -0.2578  0.0131  0.2187
 3294TIP3    H231298   3.478   1.180   4.672 -0.4811 -0.7625  0.9325
 3295TIP3   OH231299   0.776   5.478  16.162  0.4035 -0.0892  0.3915
 3295TIP3    H131300   0.863   5.511  16.140  0.7152 -0.9609  0.2627
 3295TIP3    H231301   0.793   5.412  16.230 -0.0938 -0.6722 -0.0458
 3296TIP3   OH231302   2.255   6.023   4.182 -0.8889 -0.7786  0.0302
 3296TIP3    H131303   2.319   6.014   4.112 -0.3075  0.4194  0.3808
 3296TIP3    H231304   2.305   6.008   4.262 -1.4317 -1.5874  0.2233
 3297TIP3   OH231305   0.892   5.348   2.654  0.1406  0.3407  0.0697
 3297TIP3    H131306   0.960   5.386   2.598  0.1995 -0.1453 -0.2007
 3297TIP3    H231307   0.938   5.280   2.704 -0.1624 -0.0617 -0.1902
 3298TIP3   OH231308   6.506   2.336   1.691 -0.0261 -0.1866  0.0310
 3298TIP3    H131309   6.463   2.273   1.749  0.8890 -0.7454  0.1141
 3298TIP3    H231310   6.576   2.374   1.744  0.2044  0.0080 -0.4105
 3299TIP3   OH231311   6.611   4.059  13.374 -0.9047 -0.1084  0.2862
 3299TIP3    H131312   6.650   4.140  13.408 -0.4516  0.2619 -1.0794
 3299TIP3    H231313   6.523   4.085  13.345 -0.0401  0.3873 -2.0322
 3300TIP3   OH231314   3.811   2.625  15.906 -0.2290  0.3816  0.3412
 3300TIP3    H131315   3.903   2.643  15.927 -0.2607  3.5449 -1.5782
 3300TIP3    H231316   3.764   2.640  15.988  0.7199  1.7225  0.6797
 3301TIP3   OH231317   0.584   0.217   0.642  0.1808  0.4760  0.1150
 3301TIP3    H131318   0.537   0.138   0.613 -0.4821  0.5356  1.0021
 3301TIP3    H231319   0.544   0.288   0.592 -0.3346  0.4590  0.4952
 3302TIP3   OH231320   6.731   1.560   6.394  0.6430  0.3565  0.4753
 3302TIP3    H131321   6.780   1.528   6.469  1.0012 -0.8529 -0.2532
 3302TIP3    H231322   6.682   1.484   6.362 -1.7022  1.4894  1.1171
 3303TIP3   OH231323   5.542   5.311   3.703  0.1343  0.1465  0.8157
 3303TIP3    H131324   5.516   5.402   3.718  0.2509  0.2167  0.6037
 3303TIP3    H231325   5.466   5.270   3.662  0.5258  0.4806 -0.2652
 3304TIP3   OH231326   3.531   5.903  13.684  0.4691 -0.3507 -0.4965
 3304TIP3    H131327   3.597   5.847  13.724 -0.1107 -0.3454  0.4914
 3304TIP3    H231328   3.496   5.852  13.611  0.6145 -0.8898 -0.1879
 3305TIP3   OH231329   4.423   5.026  14.528  0.1650  0.5926  0.1962
 3305TIP3    H131330   4.407   4.935  14.502 -0.3385  0.0616  2.2250
 3305TIP3    H231331   4.471   5.064  14.454 -0.4072 -1.0508 -1.0718
 3306TIP3   OH231332   3.756   4.971  11.536  0.3698  0.6622  0.0650
 3306TIP3    H131333   3.839   4.970  11.584  0.7530  1.9722 -0.5361
 3306TIP3    H231334   3.766   5.042  11.473 -1.2507  0.8978  0.0452
 3307TIP3   OH231335   6.245   5.962   1.508 -0.2725  0.1220 -0.5083
 3307TIP3    H131336   6.320   5.902   1.507 -0.5711 -0.4042  2.1456
 3307TIP3    H231337   6.213   5.961   1.418  1.5799 -1.3347 -1.2240
 3308TIP3   OH231338   2.251   2.521  10.545 -0.2805  0.1929  0.1586
 3308TIP3    H131339   2.193   2.538  10.471 -0.8742  1.7295  0.9300
 3308TIP3    H231340   2.217   2.577  10.615 -0.6241 -2.2538  2.0750
 3309TIP3   OH231341   5.881   6.077   3.936  0.3334 -0.0703 -0.7871
 3309TIP3    H131342   5.809   6.055   3.878  0.4503 -0.8150 -0.6685
 3309TIP3    H231343   5.841   6.126   4.008 -0.1324 -0.8261 -0.5166
 3310TIP3   OH231344   2.939   2.848   2.210 -0.5237  0.5850 -0.1612
 3310TIP3    H131345   3.018   2.877   2.164 -0.6601  1.5726  0.2030
 3310TIP3    H231346   2.867   2.892   2.164 -0.8311  0.0469 -0.2058
 3311TIP3   OH231347   5.598   3.262  15.727 -0.0269  0.1004 -0.1363
 3311TIP3    H131348   5.648   3.243  15.648 -0.1012  0.0842 -0.1797
 3311TIP3    H231349   5.664   3.266  15.796 -0.1646 -1.9256  0.1712
 3312TIP3   OH231350   6.289   0.602  12.849 -0.3573 -0.5118  0.3639
 3312TIP3    H131351   6.248   0.579  12.933 -2.2476 -1.2141 -0.6911
 3312TIP3    H231352   6.277   0.524  12.795 -0.4389  0.4215 -1.0057
 3313TIP3   OH231353   1.574   4.005   1.514 -0.1726  0.0827 -0.2787
 3313TIP3    H131354   1.572   3.993   1.609  0.1710 -0.2330 -0.3061
 3313TIP3    H231355   1.657   3.964   1.487 -1.5800 -2.4621 -1.0642
 3314TIP3   OH231356   6.553   2.093   1.546  0.0620  0.0255  0.0993
 3314TIP3    H131357   6.538   2.179   1.586 -0.4706 -0.0392  0.0561
 3314TIP3    H231358   6.619   2.051   1.601 -0.1957  0.1905  0.5386
 3315TIP3   OH231359   2.229   5.219  15.352 -0.1005  0.3354 -0.3048
 3315TIP3    H131360   2.158   5.170  15.393  1.7047 -1.0054  1.4087
 3315TIP3    H231361   2.271   5.267  15.424  1.1716  0.4977 -1.1137
 3316TIP3   OH231362   6.365   5.971  15.206 -0.6095 -0.1241 -0.1009
 3316TIP3    H131363   6.461   5.974  15.207 -0.5410 -0.9125 -1.8698
 3316TIP3    H231364   6.339   6.059  15.181 -0.1995 -0.7064 -2.8366
 3317TIP3   OH231365   6.550   6.007   3.300  0.3767 -0.4651  0.2995
 3317TIP3    H131366   6.626   6.040   3.347  0.2956  0.2622 -0.0679
 3317TIP3    H231367   6.542   5.916   3.328  0.4603 -0.1219  1.5238
 3318TIP3   OH231368   4.984   2.666   3.789  0.3671 -0.2101 -0.2496
 3318TIP3    H131369   5.048   2.736   3.802 -0.6432  0.7728 -0.3716
 3318TIP3    H231370   4.990   2.646   3.695  0.0225  0.3650 -0.3992
 3319TIP3   OH231371   4.261   5.318  14.933 -0.5334 -0.3322 -0.1715
 3319TIP3    H131372   4.186   5.366  14.898 -1.4153 -1.0009  0.7305
 3319TIP3    H231373   4.305   5.381  14.990  0.5147  0.5448 -1.8845
 3320TIP3   OH231374   1.268   1.859   1.176  0.2225 -0.1343 -0.1858
 3320TIP3    H131375   1.259   1.893   1.265  0.8539  1.1656 -0.5950
 3320TIP3    H231376   1.310   1.930   1.127 -2.2927  0.1584 -2.1186
 3321TIP3   OH231377   1.862   1.867  15.233  0.4082 -0.4567  0.0390
 3321TIP3    H131378   1.948   1.825  15.237  0.6270  0.0514  1.8781
 3321TIP3    H231379   1.845   1.895  15.323 -1.5228 -0.1948 -0.3551
 3322TIP3   OH231380   2.994   2.809   1.164  0.0627  0.1841  1.2171
 3322TIP3    H131381   3.049   2.886   1.156  0.5062 -0.2352 -0.0313
 3322TIP3    H231382   3.052   2.740   1.196  1.8112 -1.6150 -4.5569
 3323TIP3   OH231383   5.687   0.655   6.241  0.1990 -0.2295  0.3722
 3323TIP3    H131384   5.682   0.686   6.331  0.0210  0.4053  0.1527
 3323TIP3    H231385   5.596   0.634   6.218  0.1207  0.4204  0.0704
 3324TIP3   OH231386   2.945   6.631   2.648  0.0298  0.0588  0.2069
 3324TIP3    H131387   2.876   6.638   2.713  0.6999 -0.8125  1.0293
 3324TIP3    H231388   2.899   6.629   2.564 -0.8313  1.4560  0.6083
 3325TIP3   OH231389   2.726   4.227   1.464  0.0645  0.0539 -0.1009
 3325TIP3    H131390   2.708   4.302   1.521  1.3428  0.6284 -0.4135
 3325TIP3    H231391   2.717   4.151   1.521 -0.7451  0.4716  0.3460
 3326TIP3   OH231392   4.710   5.440   1.506 -0.0394  0.2555  0.1811
 3326TIP3    H131393   4.752   5.450   1.591 -0.6542  1.1127  0.4018
 3326TIP3    H231394   4.737   5.517   1.457 -0.2971  0.1437 -0.1394
 3327TIP3   OH231395   2.168   1.550   3.022 -0.0515  0.1461  0.4316
 3327TIP3    H131396   2.212   1.612   3.080  0.9329  0.3567 -0.5097
 3327TIP3    H231397   2.075   1.563   3.039  0.1169  2.0428  0.1091
 3328TIP3   OH231398   1.715   0.906  11.236 -0.4751  0.7605  0.0945
 3328TIP3    H131399   1.666   0.929  11.315  1.5697 -1.1766  2.0418
 3328TIP3    H231400   1.684   0.819  11.213  0.5237  0.3956  0.0993
 3329TIP3   OH231401   0.742   1.467   5.455  0.9779 -0.1798 -0.1340
 3329TIP3    H131402   0.709   1.556   5.439 -0.1948 -0.8813 -1.9189
 3329TIP3    H231403   0.820   1.460   5.400  0.8294 -0.3933 -0.3164
 3330TIP3   OH231404   3.206   3.946   5.111 -0.0550 -0.4190 -0.1625
 3330TIP3    H131405   3.114   3.948   5.086  0.7695  2.3167 -3.9462
 3330TIP3    H231406   3.217   4.019   5.171 -0.1537  0.1953 -0.8769
 3331TIP3   OH231407   5.320   2.952  15.507 -0.1906 -0.2650  0.1357
 3331TIP3    H131408   5.367   2.894  15.448  2.9671  0.7761  1.4250
 3331TIP3    H231409   5.259   2.895  15.554  1.3888 -2.1772 -0.0271
 3332TIP3   OH231410   5.085   1.872   5.808  0.5554  0.4738  0.0916
 3332TIP3    H131411   5.081   1.941   5.875  1.2685  2.2915 -1.6212
 3332TIP3    H231412   5.071   1.919   5.725 -0.9406 -1.7659 -1.0281
 3333TIP3   OH231413   6.052   1.455  15.965  0.4375  0.0938  0.3672
 3333TIP3    H131414   6.126   1.488  15.913  0.1977 -0.9730 -0.6863
 3333TIP3    H231415   6.026   1.529  16.019  0.8145  1.1930 -0.9122
 3334TIP3   OH231416   4.714   3.871  14.218  0.2997 -0.2925  0.2106
 3334TIP3    H131417   4.761   3.861  14.301 -0.0244  0.0870  0.4424
 3334TIP3    H231418   4.647   3.803  14.219 -0.3399  0.3239  0.7065
 3335TIP3   OH231419   0.315   2.748  11.167 -0.6831  0.9304  0.0839
 3335TIP3    H131420   0.339   2.736  11.075  0.9728 -0.9226  0.6832
 3335TIP3    H231421   0.220   2.740  11.169 -0.5692 -1.5633 -1.1682
 3336TIP3   OH231422   1.021   6.227  14.335 -0.0727  0.5559 -0.3933
 3336TIP3    H131423   1.039   6.194  14.423  3.1999  0.1052 -1.0783
 3336TIP3    H231424   0.926   6.222  14.326 -0.3314 -1.8408  2.1729
 3337TIP3   OH231425   1.404   6.002   1.562  0.4281  0.4024  0.4057
 3337TIP3    H131426   1.372   6.035   1.478  0.9980 -0.1380 -0.0341
 3337TIP3    H231427   1.459   6.073   1.596 -0.2059  0.8199  0.5615
 3338TIP3   OH231428   6.030   3.779  16.937  0.3033 -0.3044 -0.1064
 3338TIP3    H131429   6.031   3.865  16.895  0.2848 -0.6821 -0.8912
 3338TIP3    H231430   6.076   3.722  16.876  0.4939 -0.8132  0.5083
 3339TIP3   OH231431   1.391   5.573   0.951  0.1654  0.2792  0.1148
 3339TIP3    H131432   1.396   5.661   0.989  1.1890  1.4205 -2.4337
 3339TIP3    H231433   1.425   5.516   1.019  2.2927  2.2369  0.8313
 3340TIP3   OH231434   4.967   1.215  14.330  0.5208 -0.1186  0.0849
 3340TIP3    H131435   5.025   1.270  14.383  1.4853 -0.5322 -0.4903
 3340TIP3    H231436   4.941   1.272  14.257 -0.9632  0.5105  1.0759
 3341TIP3   OH231437   1.735   4.808  16.147 -0.7641  0.4585 -0.4246
 3341TIP3    H131438   1.789   4.855  16.211  1.4586 -1.1378 -1.0031
 3341TIP3    H231439   1.691   4.741  16.199 -0.6791  0.5462 -0.2341
 3342TIP3   OH231440   4.526   2.464   0.851 -0.1081 -0.1032 -0.3006
 3342TIP3    H131441   4.569   2.532   0.903 -0.5406  0.8669 -1.1758
 3342TIP3    H231442   4.497   2.400   0.915 -0.9255  1.2257  0.7088
 3343TIP3   OH231443   1.439   5.798   2.183  0.0804 -0.3517  0.5214
 3343TIP3    H131444   1.468   5.829   2.098  0.8284  0.9406  1.2209
 3343TIP3    H231445   1.520   5.776   2.230 -0.3040 -0.8081  0.9824
 3344TIP3   OH231446   0.845   0.207   0.418  0.0320 -0.1423 -0.4219
 3344TIP3    H131447   0.774   0.144   0.426  0.9364 -1.5225 -2.3568
 3344TIP3    H231448   0.917   0.169   0.467  0.5601 -0.6546 -1.5437
 3345TIP3   OH231449   0.620   6.456  17.290 -0.3299  0.7397  0.2013
 3345TIP3    H131450   0.580   6.431  17.374  1.1120 -1.1024  0.3922
 3345TIP3    H231451   0.668   6.537  17.311 -2.1763  1.8390  0.4414
 3346TIP3   OH231452   3.565   2.318  12.042 -0.1347  0.1785 -0.1576
 3346TIP3    H131453   3.571   2.237  12.092  1.1513  0.3330 -0.0225
 3346TIP3    H231454   3.510   2.376  12.096 -1.4296 -0.7365 -0.4691
 3347TIP3   OH231455   2.715   3.410  15.694 -0.2776  0.0236 -1.1280
 3347TIP3    H131456   2.637   3.464  15.710 -0.3034 -0.6470  1.3960
 3347TIP3    H231457   2.708   3.338  15.757  3.4652  1.1689  0.9447
 3348TIP3   OH231458   3.165   3.074   4.950 -0.0240 -0.4250  0.4523
 3348TIP3    H131459   3.201   3.003   5.004  2.6531 -0.0508 -0.6739
 3348TIP3    H231460   3.156   3.035   4.863  3.4439  0.9463 -0.7144
 3349TIP3   OH231461   4.799   0.956   4.358  0.0498 -0.0080  0.1133
 3349TIP3    H131462   4.817   1.024   4.423 -1.3428 -0.3929  0.9243
 3349TIP3    H231463   4.706   0.936   4.368  0.1046 -1.0197 -1.1017
 3350TIP3   OH231464   0.042   2.953  11.538  0.3355  0.2274 -0.5413
 3350TIP3    H131465   0.122   2.928  11.585  0.7161  1.3340 -0.5663
 3350TIP3    H231466   0.047   2.906  11.455  1.8427  1.5863 -1.2678
 3351TIP3   OH231467   1.442   5.873   0.325  0.4609 -0.4692 -0.4556
 3351TIP3    H131468   1.373   5.852   0.262  0.6920 -1.2477 -0.4648
 3351TIP3    H231469   1.412   5.832   0.406 -0.1943  1.1425  0.1583
 3352TIP3   OH231470   2.607   6.136  15.575  0.0725  0.0830  0.0635
 3352TIP3    H131471   2.522   6.096  15.595  0.8284 -1.3440  0.5470
 3352TIP3    H231472   2.598   6.227  15.603 -1.4384  0.0781 -0.3209
 3353TIP3   OH231473   1.559   2.544   4.785 -0.5090 -0.2695 -0.1772
 3353TIP3    H131474   1.612   2.558   4.707  1.8069 -2.3585  0.8508
 3353TIP3    H231475   1.623   2.536   4.856 -1.9449 -4.3514  0.9663
 3354TIP3   OH231476   1.928   0.114  16.413 -0.2517 -0.1985 -0.3473
 3354TIP3    H131477   1.858   0.052  16.394  0.0711 -0.7206  0.1348
 3354TIP3    H231478   1.972   0.126  16.329 -0.7140 -0.1176 -0.5832
 3355TIP3   OH231479   6.576   2.170   0.361  0.2117 -0.0586  0.6674
 3355TIP3    H131480   6.553   2.078   0.375 -1.1898  0.0531 -0.5751
 3355TIP3    H231481   6.493   2.212   0.336  0.9809  1.3664  0.3725
 3356TIP3   OH231482   4.771   1.549  10.802  0.4180 -0.3283  0.1051
 3356TIP3    H131483   4.732   1.485  10.742  0.3879  0.4362 -0.7206
 3356TIP3    H231484   4.827   1.497  10.859  2.0944 -0.8989 -1.9110
 3357TIP3   OH231485   2.513   6.443  11.484  0.4040  0.1260  0.1705
 3357TIP3    H131486   2.513   6.521  11.539 -0.1249  0.4373 -0.2591
 3357TIP3    H231487   2.550   6.472  11.401  0.2722 -0.0931  0.0333
 3358TIP3   OH231488   4.539   2.052   3.596 -0.1116 -0.1966  0.0700
 3358TIP3    H131489   4.608   2.002   3.552 -1.5137 -1.3641 -0.9134
 3358TIP3    H231490   4.515   1.999   3.671  0.1027  0.2415  0.4510
 3359TIP3   OH231491   3.653   3.051   6.059  0.0414 -0.6199  0.0319
 3359TIP3    H131492   3.611   3.100   6.130  0.6273 -2.3088  1.6184
 3359TIP3    H231493   3.655   2.961   6.089  1.5500 -1.1817 -1.5510
 3360TIP3   OH231494   0.115   3.035  16.144 -0.2212  0.2989  0.1203
 3360TIP3    H131495   0.097   3.048  16.237  0.5227  1.7371  0.1051
 3360TIP3    H231496   0.047   2.975  16.114 -1.7821  1.4555  1.1437
 3361TIP3   OH231497   1.646   0.322  16.383  0.6214 -0.0356  0.2256
 3361TIP3    H131498   1.607   0.357  16.303  0.9705  1.2901  0.5983
 3361TIP3    H231499   1.594   0.362  16.453  0.4655 -0.9966  0.6680
 3362TIP3   OH231500   0.439   3.845   1.140 -0.0856 -0.3944  0.0416
 3362TIP3    H131501   0.388   3.772   1.102 -0.4999  0.1484 -0.4758
 3362TIP3    H231502   0.527   3.833   1.105 -0.2554 -0.4114 -0.3983
 3363TIP3   OH231503   6.559   4.533  11.500 -0.0208 -0.4613 -0.1396
 3363TIP3    H131504   6.507   4.612  11.482 -2.2071 -2.1824 -1.9433
 3363TIP3    H231505   6.506   4.483  11.561  1.0049 -0.9222  0.4026
 3364TIP3   OH231506   0.602   3.129   2.941 -0.2821 -0.4352 -0.1567
 3364TIP3    H131507   0.684   3.176   2.924  1.0408 -2.4136  0.4542
 3364TIP3    H231508   0.574   3.099   2.854 -0.7314  0.7674 -0.4493
 3365TIP3   OH231509   4.071   1.866  11.680  0.3563 -0.4176 -0.3760
 3365TIP3    H131510   4.043   1.957  11.664  0.8759 -0.0460  0.7137
 3365TIP3    H231511   4.038   1.817  11.604  0.1038  0.6843 -1.0036
 3366TIP3   OH231512   0.771   1.223   4.644 -0.2667 -0.0330 -0.4421
 3366TIP3    H131513   0.831   1.228   4.569  0.8998  1.1355  0.5230
 3366TIP3    H231514   0.812   1.160   4.703 -0.7048 -0.2455 -0.3616
 3367TIP3   OH231515   1.633   4.964  17.290 -0.2589  0.2788 -0.3253
 3367TIP3    H131516   1.664   4.890  17.237 -0.0905  0.3211 -0.2833
 3367TIP3    H231517   1.710   5.018  17.304 -0.5211  0.8255 -0.9439
 3368TIP3   OH231518   3.002   2.994  15.255 -0.2948 -0.6698  0.4482
 3368TIP3    H131519   2.917   2.958  15.226  0.1207 -0.5339 -1.0226
 3368TIP3    H231520   2.984   3.086  15.272 -0.0301 -0.1056 -1.9770
 3369TIP3   OH231521   0.521   3.401  12.725 -0.4621  0.0169  0.2497
 3369TIP3    H131522   0.541   3.308  12.725  0.4170  0.1926  0.7336
 3369TIP3    H231523   0.605   3.443  12.705 -0.9297  0.6909 -0.3619
 3370TIP3   OH231524   1.270   5.973  10.998  0.1013 -0.0957 -0.0410
 3370TIP3    H131525   1.238   6.007  10.914  0.4481  0.7127  0.1488
 3370TIP3    H231526   1.355   5.936  10.977 -1.1616 -2.9107 -0.6965
 3371TIP3   OH231527   5.363   2.109  12.410 -0.4539 -0.5028 -0.1593
 3371TIP3    H131528   5.288   2.054  12.433  0.3857 -1.7884 -0.4383
 3371TIP3    H231529   5.426   2.049  12.371  0.0746  0.8358 -1.4583
 3372TIP3   OH231530   0.518   1.870  12.069 -0.1692  0.1171  0.3449
 3372TIP3    H131531   0.602   1.875  12.116  1.2582 -1.5748 -1.8218
 3372TIP3    H231532   0.534   1.914  11.986 -1.0991 -1.0697 -0.4981
 3373TIP3   OH231533   0.193   2.334   3.555  0.2504 -0.5007  0.4272
 3373TIP3    H131534   0.205   2.282   3.476  0.5367 -0.1115  0.2077
 3373TIP3    H231535   0.100   2.323   3.577  0.5202 -1.8467  0.9290
 3374TIP3   OH231536   2.239   1.100   4.171  0.5716  0.2163  0.2919
 3374TIP3    H131537   2.240   1.179   4.225  2.3625  1.5497 -1.5449
 3374TIP3    H231538   2.208   1.130   4.085  0.3318 -1.2983 -0.1799
 3375TIP3   OH231539   3.024   6.502  10.690 -0.1479 -0.0941  0.3129
 3375TIP3    H131540   2.966   6.577  10.702  0.0362 -0.0759  1.2254
 3375TIP3    H231541   3.082   6.527  10.619 -1.6617 -0.3788 -1.0926
 3376TIP3   OH231542   0.182   1.754   1.617 -0.3034 -0.4181 -0.4715
 3376TIP3    H131543   0.175   1.743   1.522  2.4672 -1.2323 -0.6692
 3376TIP3    H231544   0.137   1.678   1.654 -0.4107 -0.6864 -1.1508
 3377TIP3   OH231545   5.978   6.744   3.828  0.2398  0.2333 -0.3046
 3377TIP3    H131546   6.019   6.758   3.743 -0.8395 -0.9890 -1.0693
 3377TIP3    H231547   5.892   6.785   3.820  0.6986  1.4967  0.7746
 3378TIP3   OH231548   4.199   2.759  13.418  0.3679  0.1976  0.1084
 3378TIP3    H131549   4.271   2.731  13.361 -0.3632  1.6676 -1.6422
 3378TIP3    H231550   4.241   2.783  13.500  2.0452  1.8804 -1.1641
 3379TIP3   OH231551   2.149   1.502  11.739 -0.3084  0.0810  0.6752
 3379TIP3    H131552   2.228   1.461  11.775 -0.3555  0.5796  1.3580
 3379TIP3    H231553   2.172   1.523  11.648  0.8220  1.4569  1.2609
 3380TIP3   OH231554   3.762   3.846   2.629  0.0665 -0.0017 -0.0981
 3380TIP3    H131555   3.761   3.798   2.546 -3.2580  1.5536 -1.1675
 3380TIP3    H231556   3.850   3.835   2.663  1.3334 -1.3823 -3.4414
 3381TIP3   OH231557   1.345   2.003   5.990 -0.3455  0.5325  0.0084
 3381TIP3    H131558   1.328   2.028   6.081 -0.4509 -0.2430  0.2042
 3381TIP3    H231559   1.420   2.057   5.964 -1.1567  1.7592  0.1165
 3382TIP3   OH231560   4.427   2.452   0.601  0.2306  0.3627 -0.4539
 3382TIP3    H131561   4.431   2.476   0.693  0.0467  1.0436 -0.6096
 3382TIP3    H231562   4.476   2.371   0.594  0.6093  0.5345  0.1678
 3383TIP3   OH231563   4.239   1.129  12.619 -0.0138 -0.5008 -0.0931
 3383TIP3    H131564   4.216   1.079  12.697 -0.8285 -0.6269 -0.4052
 3383TIP3    H231565   4.242   1.064  12.549 -0.7953 -0.1664 -0.4459
 3384TIP3   OH231566   4.459   2.789  11.414 -0.6899  0.6327  0.1574
 3384TIP3    H131567   4.408   2.808  11.492 -1.7583 -2.2055  0.2804
 3384TIP3    H231568   4.403   2.731  11.362  1.2878 -0.2630 -1.0918
 3385TIP3   OH231569   3.000   6.321  12.326  0.3275  0.4391 -0.2556
 3385TIP3    H131570   3.095   6.332  12.324  0.5995 -1.4216  0.3950
 3385TIP3    H231571   2.983   6.281  12.412 -0.8464 -0.6802 -0.9888
 3386TIP3   OH231572   0.718   0.450   3.130  0.4526  0.4125  0.2024
 3386TIP3    H131573   0.677   0.393   3.065  1.8924 -0.9649  0.4373
 3386TIP3    H231574   0.762   0.517   3.079  1.1890 -0.3972 -0.2549
 3387TIP3   OH231575   6.126   0.749   1.793 -0.4081  0.5461  0.5784
 3387TIP3    H131576   6.179   0.742   1.873  0.4988 -3.5629 -0.1564
 3387TIP3    H231577   6.166   0.822   1.745  1.7216  0.4679  2.0629
 3388TIP3   OH231578   3.279   1.892  11.332 -0.3000  0.3597  0.2310
 3388TIP3    H131579   3.263   1.892  11.238 -0.0463 -0.8874  0.1626
 3388TIP3    H231580   3.193   1.881  11.372 -0.2107 -1.3755  0.0389
 3389TIP3   OH231581   1.999   5.826  12.582 -0.2146  0.6210 -0.3590
 3389TIP3    H131582   2.006   5.920  12.599  0.9503  0.3227  1.0365
 3389TIP3    H231583   1.906   5.812  12.563 -0.4974  1.9787 -0.1282
 3390TIP3   OH231584   2.204   5.640  14.385 -0.0672  0.6337 -0.4879
 3390TIP3    H131585   2.130   5.579  14.383  1.2183 -0.9893 -0.4283
 3390TIP3    H231586   2.231   5.648  14.294 -0.1829  1.0739 -0.4861
 3391TIP3   OH231587   0.824   2.827   0.076 -0.2357 -0.1134  0.1783
 3391TIP3    H131588   0.756   2.772   0.037  0.0180  0.2377 -0.8025
 3391TIP3    H231589   0.893   2.831   0.009  1.0197 -0.9241  1.3805
 3392TIP3   OH231590   5.860   1.350   1.142 -0.6387  0.0778 -0.2673
 3392TIP3    H131591   5.847   1.440   1.113  2.2871  0.4010 -0.8947
 3392TIP3    H231592   5.795   1.299   1.094 -1.0260  1.6036 -1.4340
 3393TIP3   OH231593   1.927   4.799   0.703 -0.2988  0.0226  0.4725
 3393TIP3    H131594   1.922   4.798   0.607 -0.5631  2.5461  0.3928
 3393TIP3    H231595   1.926   4.706   0.728 -0.0235 -0.7087 -1.9561
 3394TIP3   OH231596   3.280   3.670   3.942 -0.6104  0.8696  0.0465
 3394TIP3    H131597   3.189   3.645   3.931 -0.1922 -1.0379  0.5412
 3394TIP3    H231598   3.286   3.701   4.032 -0.2944 -1.6479  0.9836
 3395TIP3   OH231599   0.577   0.721  16.786 -0.3789  0.2531 -0.0575
 3395TIP3    H131600   0.658   0.744  16.740  0.0641  0.3121  0.7335
 3395TIP3    H231601   0.550   0.638  16.748  0.3932 -0.0771  0.0958
 3396TIP3   OH231602   0.952   3.745   0.182 -0.3295  0.1083 -0.3523
 3396TIP3    H131603   0.943   3.666   0.234 -1.3778 -0.3477 -1.1843
 3396TIP3    H231604   0.887   3.806   0.217 -1.7125 -0.5383 -1.6713
 3397TIP3   OH231605   6.202   6.391  12.972 -0.3571 -0.5240  0.0978
 3397TIP3    H131606   6.145   6.460  12.939 -0.2165 -1.0500 -1.2905
 3397TIP3    H231607   6.216   6.414  13.064 -0.7243  1.0089 -0.2032
 3398TIP3   OH231608   0.929   0.328  14.468 -0.4384  0.4183  0.3238
 3398TIP3    H131609   0.899   0.311  14.557 -2.4952  0.7398 -0.2494
 3398TIP3    H231610   0.878   0.268  14.414 -0.0386  1.0135 -0.7406
 3399TIP3   OH231611   3.542   6.597  16.298  0.3001 -0.3092  0.1001
 3399TIP3    H131612   3.536   6.584  16.392 -0.6164 -0.3965  0.0429
 3399TIP3    H231613   3.524   6.511  16.260  0.3114 -0.2028 -0.1530
 3400TIP3   OH231614   3.201   2.295  16.066  0.2894 -0.3360 -0.0950
 3400TIP3    H131615   3.163   2.354  16.001 -0.7144  0.8768  1.5235
 3400TIP3    H231616   3.291   2.281  16.036  0.4868  1.8371 -0.6657
 3401TIP3   OH231617   6.366   4.421  17.250  0.2908  0.4681 -0.5191
 3401TIP3    H131618   6.401   4.333  17.238  0.1018  0.2520  0.4263
 3401TIP3    H231619   6.406   4.451  17.332 -0.9181  0.6174  0.0252
 3402TIP3   OH231620   1.011   4.606   3.009  0.2040 -0.5235  0.3035
 3402TIP3    H131621   1.053   4.562   2.935 -1.1436  0.2516 -0.9921
 3402TIP3    H231622   1.083   4.646   3.058  1.0325  0.2209 -1.4505
 3403TIP3   OH231623   0.284   3.750  12.471  0.9438  0.4028  0.6475
 3403TIP3    H131624   0.275   3.773  12.564 -1.1783  0.0807  0.5588
 3403TIP3    H231625   0.224   3.676  12.458  0.8627  0.7290 -1.0709
 3404TIP3   OH231626   5.130   2.169   5.190  0.3551 -0.6584 -0.4759
 3404TIP3    H131627   5.192   2.214   5.134  1.1167 -1.0974 -0.0028
 3404TIP3    H231628   5.158   2.190   5.279 -1.9133  1.5377 -0.1640
 3405TIP3   OH231629   4.467   2.686   3.625 -0.2642 -0.0114  0.1323
 3405TIP3    H131630   4.373   2.665   3.628  0.0605 -1.7789 -0.7689
 3405TIP3    H231631   4.509   2.615   3.673  0.7293 -0.2022 -0.9828
 3406TIP3   OH231632   4.773   4.465  14.603  0.1908  0.5689  0.1204
 3406TIP3    H131633   4.720   4.386  14.606  0.9523  0.0700  0.9345
 3406TIP3    H231634   4.723   4.526  14.548 -2.0355  0.7212  2.1621
 3407TIP3   OH231635   2.984   5.058  10.528 -0.6614 -0.0225 -0.2197
 3407TIP3    H131636   2.924   5.133  10.530 -0.0839  0.4428  0.0240
 3407TIP3    H231637   2.947   4.996  10.590 -0.6356  0.4591  0.2844
 3408TIP3   OH231638   3.637   3.916   3.682  0.0641 -0.0063 -0.5532
 3408TIP3    H131639   3.725   3.882   3.670 -0.2661 -1.1514  0.1088
 3408TIP3    H231640   3.586   3.878   3.610 -0.5300 -1.8324  0.7458
 3409TIP3   OH231641   4.531   1.189   1.641  0.0625  0.0882  0.1110
 3409TIP3    H131642   4.566   1.269   1.601 -0.8212  0.5869  0.3129
 3409TIP3    H231643   4.562   1.191   1.731 -0.7955  0.7403  0.4060
 3410TIP3   OH231644   3.433   6.349   5.564  0.2725  0.1531  0.4175
 3410TIP3    H131645   3.351   6.398   5.554  0.9015  0.9294 -1.2586
 3410TIP3    H231646   3.441   6.298   5.484  1.2091 -0.2763  0.7712
 3411TIP3   OH231647   0.256   0.977  11.506  0.6091 -0.2894  0.2671
 3411TIP3    H131648   0.343   0.959  11.469  0.7409 -0.0859  0.4786
 3411TIP3    H231649   0.201   0.992  11.429  1.4965  3.0221  0.1465
 3412TIP3   OH231650   5.943   1.237  11.731 -0.1530 -0.1316 -0.5443
 3412TIP3    H131651   5.938   1.313  11.788 -0.8575  0.4460 -1.3539
 3412TIP3    H231652   5.969   1.271  11.646 -0.9381 -0.7092 -1.0409
 3413TIP3   OH231653   2.904   5.068   0.529  0.6174  0.2959  0.4513
 3413TIP3    H131654   2.961   5.144   0.530 -0.2298  1.1867 -3.2696
 3413TIP3    H231655   2.935   5.016   0.454 -1.5615 -0.6888  0.1572
 3414TIP3   OH231656   2.394   2.471   0.889 -0.0577 -0.1539 -0.4862
 3414TIP3    H131657   2.309   2.427   0.895  0.0585 -0.5342 -1.4909
 3414TIP3    H231658   2.383   2.550   0.942 -0.9687 -0.3141 -0.4142
 3415TIP3   OH231659   1.700   5.197  13.228  0.1404  0.0106  0.0183
 3415TIP3    H131660   1.684   5.153  13.311  1.2971 -3.3668 -1.3356
 3415TIP3    H231661   1.645   5.275  13.230 -0.9780 -0.7215  3.3099
 3416TIP3   OH231662   5.857   5.432   5.032 -0.1875  0.2219  0.0286
 3416TIP3    H131663   5.868   5.425   4.937  2.7931  1.0206  0.2150
 3416TIP3    H231664   5.859   5.341   5.063 -0.5950 -0.0087 -0.6106
 3417TIP3   OH231665   1.599   0.127  15.136  1.2376 -0.2136 -0.3861
 3417TIP3    H131666   1.580   0.121  15.042 -0.0858 -0.8354 -0.1024
 3417TIP3    H231667   1.587   0.220  15.156 -0.5273 -0.3925 -0.4570
 3418TIP3   OH231668   2.980   1.256  16.604  0.1874 -0.1273  0.3413
 3418TIP3    H131669   2.993   1.314  16.679  1.7396  0.0404 -0.0286
 3418TIP3    H231670   2.999   1.169  16.637  1.3438 -0.0005  0.0548
 3419TIP3   OH231671   0.963   0.396  13.572  0.5355  0.2333 -0.1477
 3419TIP3    H131672   1.022   0.471  13.559  1.0353  0.0873  1.1117
 3419TIP3    H231673   0.975   0.342  13.494  3.0543 -0.4248  0.5825
 3420TIP3   OH231674   1.259   2.223   2.417  0.2165  0.1460 -0.0221
 3420TIP3    H131675   1.186   2.164   2.438 -1.4206  1.8011 -0.7167
 3420TIP3    H231676   1.223   2.281   2.349  2.4067  0.6454 -0.8280
 3421TIP3   OH231677   4.414   0.801  11.105 -0.9733  0.4831 -0.4039
 3421TIP3    H131678   4.381   0.790  11.015 -0.0001  1.5859 -0.9263
 3421TIP3    H231679   4.506   0.825  11.094 -0.9304  0.9831  0.8777
 3422TIP3   OH231680   6.488   4.498   4.535 -0.3399  0.0874 -0.5330
 3422TIP3    H131681   6.407   4.453   4.509 -1.8911  1.8240  0.9835
 3422TIP3    H231682   6.536   4.433   4.586 -0.4353 -1.1856 -2.0045
 3423TIP3   OH231683   0.022   4.050   4.459  0.5805  0.0103  0.0413
 3423TIP3    H131684  -0.035   3.976   4.483 -0.1679  0.0691 -1.4789
 3423TIP3    H231685  -0.027   4.098   4.393  1.7747  0.9452 -0.1981
 3424TIP3   OH231686   1.795   1.680   2.767 -1.0639 -0.5189  0.7329
 3424TIP3    H131687   1.713   1.630   2.772 -1.4921  0.1620  0.6179
 3424TIP3    H231688   1.813   1.688   2.673 -0.5541 -1.1587  0.7702
 3425TIP3   OH231689   2.818   6.468  12.963 -0.7887 -0.1311 -0.3644
 3425TIP3    H131690   2.760   6.395  12.939 -1.8680  0.1334  1.3335
 3425TIP3    H231691   2.854   6.497  12.879 -2.8129 -0.5599 -1.4567
 3426TIP3   OH231692   6.201   0.775  11.482 -0.5575  0.0099  0.1476
 3426TIP3    H131693   6.139   0.838  11.448 -0.0167  1.1452  1.1850
 3426TIP3    H231694   6.229   0.812  11.566  3.1652  0.7268 -1.2101
 3427TIP3   OH231695   1.816   3.098   5.559 -0.2451 -0.4984 -0.4665
 3427TIP3    H131696   1.775   3.031   5.615  0.2624 -0.7837 -0.4356
 3427TIP3    H231697   1.782   3.181   5.593  0.3782 -0.6374  0.5427
 3428TIP3   OH231698   4.797   5.023   4.851  0.1458  0.2986 -0.3138
 3428TIP3    H131699   4.725   5.031   4.788  0.9783 -0.0431 -1.3340
 3428TIP3    H231700   4.773   4.949   4.906  1.0683 -1.8012 -2.5413
 3429TIP3   OH231701   5.429   3.800   0.437  0.2856 -1.1467 -0.2220
 3429TIP3    H131702   5.335   3.793   0.423 -0.1970  1.5992  0.9322
 3429TIP3    H231703   5.441   3.788   0.531  0.6831  0.9364  0.0559
 3430TIP3   OH231704   0.443   2.654   5.177  0.3082 -0.3503  0.0939
 3430TIP3    H131705   0.393   2.627   5.255 -2.2028 -1.8199 -1.8519
 3430TIP3    H231706   0.466   2.572   5.134  1.3775  0.4322 -0.8867
 3431TIP3   OH231707   5.062   5.626  15.125 -0.0788 -0.0435  0.2594
 3431TIP3    H131708   5.008   5.705  15.127  0.2964  0.2361 -0.4997
 3431TIP3    H231709   5.150   5.656  15.104  0.6856 -0.3576  2.7325
 3432TIP3   OH231710   3.467   4.371  17.188  0.6240  0.3237 -0.3226
 3432TIP3    H131711   3.542   4.414  17.227  2.7648 -0.6514 -3.0720
 3432TIP3    H231712   3.490   4.278  17.187 -1.8217 -0.4160  1.1239
 3433TIP3   OH231713   4.787   3.345   3.403  0.2194  0.0654 -0.7270
 3433TIP3    H131714   4.694   3.334   3.385  0.1062  0.0207 -0.1483
 3433TIP3    H231715   4.790   3.408   3.475  0.5431 -1.1119  0.3375
 3434TIP3   OH231716   0.352   1.343   5.348 -0.3112  0.1069 -0.4054
 3434TIP3    H131717   0.295   1.266   5.349 -2.1312  1.3747 -1.6049
 3434TIP3    H231718   0.293   1.417   5.351  1.3534  1.4981 -0.4039
 3435TIP3   OH231719   0.955   2.897   2.446 -0.0610 -0.1522  0.1427
 3435TIP3    H131720   0.935   2.887   2.539 -1.4078 -0.9500 -0.2066
 3435TIP3    H231721   0.958   2.991   2.432 -3.0674  0.0704  0.3990
 3436TIP3   OH231722   2.887   3.998   6.192 -0.1498  0.3957  0.2576
 3436TIP3    H131723   2.837   4.053   6.132 -1.1706 -0.1590  0.5869
 3436TIP3    H231724   2.825   3.972   6.259  0.0096 -1.9958 -0.4307
 3437TIP3   OH231725   4.698   1.910  14.945 -0.3965  0.5907  0.5819
 3437TIP3    H131726   4.640   1.927  15.019  0.9339  0.6667  1.6339
 3437TIP3    H231727   4.737   1.995  14.925 -1.3900  0.7610 -0.8090
 3438TIP3   OH231728   5.354   5.333  10.690  0.5004  0.6662 -0.0640
 3438TIP3    H131729   5.386   5.249  10.723  0.6213  0.3629 -0.9356
 3438TIP3    H231730   5.432   5.379  10.661  0.1697 -0.2870 -2.6839
 3439TIP3   OH231731   4.358   1.206   4.929 -0.0459 -0.0450  0.6810
 3439TIP3    H131732   4.396   1.148   4.996 -0.7471 -3.3375 -1.5291
 3439TIP3    H231733   4.267   1.216   4.956  0.1085  0.1840  1.1417
 3440TIP3   OH231734   3.841   3.788   3.919  0.0067 -0.2444  0.3703
 3440TIP3    H131735   3.868   3.749   3.836  0.1480  0.1607  0.2233
 3440TIP3    H231736   3.804   3.715   3.969  1.9822 -0.9929  0.8447
 3441TIP3   OH231737   3.362   4.624   1.440 -0.2691 -0.0044  0.1919
 3441TIP3    H131738   3.445   4.636   1.485 -0.2301 -0.7750  0.3372
 3441TIP3    H231739   3.379   4.650   1.350  0.8425 -2.5115 -0.4011
 3442TIP3   OH231740   5.551   4.945  11.592  0.0427 -0.4472 -0.0297
 3442TIP3    H131741   5.564   4.991  11.509 -1.2869 -1.2955 -0.7490
 3442TIP3    H231742   5.483   4.880  11.572  1.0969 -1.9828  1.2181
 3443TIP3   OH231743   5.670   0.358   4.935  0.2676  0.2169 -0.1028
 3443TIP3    H131744   5.715   0.375   5.018  0.4226 -4.3938  1.0346
 3443TIP3    H231745   5.739   0.338   4.873  0.0786 -1.6191  0.2125
 3444TIP3   OH231746   5.546   1.471  11.527  0.2797  0.6014 -0.4025
 3444TIP3    H131747   5.549   1.376  11.517 -0.2946  0.8087 -3.2852
 3444TIP3    H231748   5.463   1.488  11.572 -1.0037 -0.1612 -2.3660
 3445TIP3   OH231749   2.465   0.881  14.136 -0.1069  0.1926 -0.0698
 3445TIP3    H131750   2.532   0.847  14.076 -0.1051 -0.2373  0.1747
 3445TIP3    H231751   2.476   0.830  14.216 -1.0324 -0.2106 -0.1908
 3446TIP3   OH231752   4.514   6.756   4.570 -0.2364  0.3184  0.1744
 3446TIP3    H131753   4.482   6.763   4.660  0.9012  0.8751  0.5661
 3446TIP3    H231754   4.456   6.813   4.520  0.9698  2.5442  1.1303
 3447TIP3   OH231755   6.090   3.303   4.214  0.2774  0.3500  0.2928
 3447TIP3    H131756   6.025   3.238   4.238  0.6813  0.6022  2.2451
 3447TIP3    H231757   6.173   3.269   4.248  0.7137  1.2360  0.1666
 3448TIP3   OH231758   2.570   2.590  13.449  0.3959 -0.2408  0.0973
 3448TIP3    H131759   2.659   2.610  13.421  0.6759  0.3894  1.3973
 3448TIP3    H231760   2.568   2.610  13.542 -1.3261  0.5326 -0.0561
 3449TIP3   OH231761   4.848   5.947   2.005  0.9614 -0.4379  0.3197
 3449TIP3    H131762   4.758   5.974   1.987  0.7639  0.6129  2.6049
 3449TIP3    H231763   4.841   5.888   2.081  2.2604  0.4049  1.1332
 3450TIP3   OH231764   3.746   2.182   2.695  0.4230  0.4636 -0.5224
 3450TIP3    H131765   3.728   2.102   2.645 -0.8157  0.5525 -0.2652
 3450TIP3    H231766   3.659   2.211   2.724  0.7860  2.1878 -1.0438
 3451TIP3   OH231767   0.800   3.520   6.515  0.5841  0.0613 -0.2469
 3451TIP3    H131768   0.880   3.567   6.491  1.3109 -0.9212  0.1914
 3451TIP3    H231769   0.825   3.428   6.516 -0.5561 -0.2676 -0.0920
 3452TIP3   OH231770   1.272   0.883  12.866 -0.0293 -0.4119 -0.4386
 3452TIP3    H131771   1.197   0.833  12.898 -1.8956  0.6517 -2.8360
 3452TIP3    H231772   1.320   0.821  12.810 -0.4839 -0.4441 -0.7951
 3453TIP3   OH231773   2.615   3.644   2.384  0.1321 -0.1332  0.2164
 3453TIP3    H131774   2.530   3.626   2.424 -0.5615  2.0063 -0.1105
 3453TIP3    H231775   2.620   3.585   2.309 -0.7738 -0.7524  0.6374
 3454TIP3   OH231776   6.252   1.987   0.706  0.2303 -0.0974 -0.2085
 3454TIP3    H131777   6.170   2.022   0.672  0.3263  0.7615  0.4365
 3454TIP3    H231778   6.227   1.940   0.785  0.6388  2.3812  1.4951
 3455TIP3   OH231779   0.458   3.149  12.606 -0.5403 -0.8348  0.4596
 3455TIP3    H131780   0.418   3.065  12.582 -0.6976 -0.8937  0.9115
 3455TIP3    H231781   0.528   3.162  12.541 -2.4225  0.1498 -1.4967
 3456TIP3   OH231782   0.404   2.620   1.260 -0.3363 -0.7822  0.6309
 3456TIP3    H131783   0.453   2.546   1.295  1.2787  0.1572  0.4621
 3456TIP3    H231784   0.382   2.673   1.338  0.9651 -0.0413  0.5320
 3457TIP3   OH231785   4.230   2.157  14.249  0.1745  0.6990  0.1555
 3457TIP3    H131786   4.185   2.175  14.332 -0.1141  1.3260 -0.1361
 3457TIP3    H231787   4.187   2.079  14.215 -0.3055  0.9559  0.1643
 3458TIP3   OH231788   1.357   1.634  10.675  0.4653  0.5793  0.4308
 3458TIP3    H131789   1.288   1.684  10.632 -0.1351 -0.0763  0.6174
 3458TIP3    H231790   1.318   1.548  10.691  0.9481  0.5493  1.5241
 3459TIP3   OH231791   4.897   0.770  11.453 -0.2990  0.2060 -0.0021
 3459TIP3    H131792   4.957   0.714  11.503 -0.2403  1.1874  1.0655
 3459TIP3    H231793   4.952   0.806  11.383  0.0826  0.2070  0.2885
 3460TIP3   OH231794   1.466   2.561  13.861  0.2060 -0.1850 -0.1653
 3460TIP3    H131795   1.402   2.608  13.914  1.1102  1.4729 -0.4749
 3460TIP3    H231796   1.413   2.510  13.799 -0.8556  1.4997 -0.7326
 3461TIP3   OH231797   4.020   5.348  14.200 -0.9114  0.0561 -0.6135
 3461TIP3    H131798   4.041   5.310  14.285 -0.6713 -1.5898 -1.3581
 3461TIP3    H231799   3.942   5.300  14.171  0.2235 -0.9500 -2.2153
 3462TIP3   OH231800   2.029   6.002   3.310 -0.4565  0.0758  0.2653
 3462TIP3    H131801   2.073   5.969   3.389  1.4141  3.6485  0.9173
 3462TIP3    H231802   2.064   5.948   3.239  1.3212 -0.3559  1.3908
 3463TIP3   OH231803   5.408   0.041   3.431 -0.2945  0.1672 -0.7341
 3463TIP3    H131804   5.497   0.007   3.444  0.1634  1.1375 -1.2550
 3463TIP3    H231805   5.365   0.028   3.515  0.4178 -0.0890 -0.4010
 3464TIP3   OH231806   0.819   1.885  14.219 -0.1402  0.3316  0.1075
 3464TIP3    H131807   0.901   1.931  14.239 -0.6721  1.2102  0.3111
 3464TIP3    H231808   0.764   1.951  14.177 -0.3317 -0.5616 -1.0988
 3465TIP3   OH231809   1.083   4.828   4.191  0.4837  0.0915 -0.0280
 3465TIP3    H131810   1.070   4.784   4.107  0.8673  0.2977 -0.1957
 3465TIP3    H231811   1.023   4.902   4.189 -0.3184 -0.5234  0.3389
 3466TIP3   OH231812   5.463   2.661   1.653  0.6082 -0.4246 -0.3058
 3466TIP3    H131813   5.372   2.645   1.678  0.7213 -0.8461 -0.1618
 3466TIP3    H231814   5.511   2.668   1.736  0.4891  1.1744 -0.3333
 3467TIP3   OH231815   2.415   0.071   0.714  0.5477  0.1843  0.0017
 3467TIP3    H131816   2.331   0.031   0.735  2.1732 -3.0146  0.9347
 3467TIP3    H231817   2.393   0.140   0.650 -2.4999 -2.3993 -2.0377
 3468TIP3   OH231818   1.501   5.904  15.256  0.7553 -0.3503 -0.0690
 3468TIP3    H131819   1.431   5.865  15.203  0.9068 -2.0702  0.9185
 3468TIP3    H231820   1.575   5.844  15.245  1.8340  0.9889 -0.4129
 3469TIP3   OH231821   4.682   3.908  13.737 -0.4957 -0.2386  0.3459
 3469TIP3    H131822   4.608   3.960  13.707  0.1957 -0.5612 -2.1207
 3469TIP3    H231823   4.759   3.954  13.703  0.3559 -0.8177  1.4174
 3470TIP3   OH231824   1.409   0.377   3.240 -0.1707  0.1476 -0.1205
 3470TIP3    H131825   1.492   0.377   3.288 -0.1155 -1.0809 -0.1831
 3470TIP3    H231826   1.358   0.306   3.280 -0.5602 -0.1602 -1.1315
 3471TIP3   OH231827   6.326   4.249   1.693 -0.1274 -0.4373  0.3889
 3471TIP3    H131828   6.264   4.231   1.764 -1.6143  1.3956 -0.3359
 3471TIP3    H231829   6.277   4.231   1.613 -0.0459  1.6944 -0.2237
 3472TIP3   OH231830   3.266   5.404   6.154  0.0640 -0.2038 -0.0216
 3472TIP3    H131831   3.256   5.494   6.185  2.4638 -0.0383  0.4682
 3472TIP3    H231832   3.310   5.358   6.225  2.1876 -0.8113 -1.6151
 3473TIP3   OH231833   3.172   4.177   7.396 -0.2633 -0.1246  0.0040
 3473TIP3    H131834   3.239   4.183   7.464 -0.1140  0.3001 -0.1797
 3473TIP3    H231835   3.220   4.183   7.314 -0.3820 -1.1821 -0.1625
 3474TIP3   OH231836   0.295   1.837  13.493 -0.3776  0.5973  0.0133
 3474TIP3    H131837   0.213   1.846  13.444 -1.4605 -0.8023  1.4354
 3474TIP3    H231838   0.270   1.860  13.583  0.6682 -0.2836  0.5505
 3475TIP3   OH231839   5.647   5.510   4.730  0.3230 -0.4445 -0.0984
 3475TIP3    H131840   5.706   5.547   4.663  1.4002 -0.8654  0.5916
 3475TIP3    H231841   5.678   5.421   4.742 -0.6926 -0.7897  0.0502
 3476TIP3   OH231842   4.645   5.570   4.226  0.1429  0.1112  0.3195
 3476TIP3    H131843   4.570   5.553   4.284  0.2940 -1.2280  0.1537
 3476TIP3    H231844   4.704   5.623   4.278 -0.0381 -0.4904  1.1549
 3477TIP3   OH231845   1.808   4.883   6.056  0.0395 -0.1658 -0.6485
 3477TIP3    H131846   1.830   4.972   6.029  2.4034 -0.2584  0.7167
 3477TIP3    H231847   1.816   4.831   5.976  0.4091  0.5652 -1.0961
 3478TIP3   OH231848   6.360   0.300   1.547  0.4960  0.1713  0.1702
 3478TIP3    H131849   6.413   0.278   1.624  1.0559  0.9730  0.0229
 3478TIP3    H231850   6.387   0.237   1.481  0.7722  0.1370  0.3127
 3479TIP3   OH231851   6.319   5.932  14.040  0.2440  0.4484 -0.2961
 3479TIP3    H131852   6.249   5.885  14.086  1.2066  0.1621  0.9270
 3479TIP3    H231853   6.307   5.908  13.948  0.3338 -1.7642  0.1934
 3480TIP3   OH231854   4.427   6.749  12.781 -1.0484  0.1699  0.2132
 3480TIP3    H131855   4.371   6.676  12.756 -0.2348  0.1462 -1.7182
 3480TIP3    H231856   4.511   6.709  12.805 -1.2436  0.3427  1.2499
 3481TIP3   OH231857   5.260   1.690  10.649  0.5151 -0.3579 -0.6141
 3481TIP3    H131858   5.238   1.729  10.733 -1.1987 -3.2597  0.4541
 3481TIP3    H231859   5.177   1.689  10.601  0.7412 -1.6358 -1.0082
 3482TIP3   OH231860   5.784   2.875  13.900  0.5834 -0.6253 -0.0917
 3482TIP3    H131861   5.718   2.941  13.877  0.4818 -1.1781 -1.5151
 3482TIP3    H231862   5.832   2.913  13.974 -0.1340  0.5815 -0.2159
 3483TIP3   OH231863   4.947   3.955   2.178  0.2761 -0.5194  0.0507
 3483TIP3    H131864   4.859   3.940   2.212  0.5478 -0.4109  0.8254
 3483TIP3    H231865   4.948   3.910   2.093 -0.6903 -0.0611 -0.2221
 3484TIP3   OH231866   3.566   3.615  13.028  0.0736 -0.5619  0.0836
 3484TIP3    H131867   3.615   3.637  13.107  1.9336 -2.9255 -0.2867
 3484TIP3    H231868   3.568   3.519  13.024 -0.3772 -0.5510 -2.5408
 3485TIP3   OH231869   4.205   5.269   5.513 -0.3085  0.5463  0.0953
 3485TIP3    H131870   4.124   5.219   5.501  0.8795 -1.1705 -1.2974
 3485TIP3    H231871   4.219   5.270   5.608 -2.5457  1.9660  0.4946
 3486TIP3   OH231872   0.474   1.569  13.915  0.4511 -0.1415 -0.4027
 3486TIP3    H131873   0.467   1.481  13.880  0.6911  0.2379 -1.4454
 3486TIP3    H231874   0.402   1.618  13.874  0.6934  0.2955 -0.3178
 3487TIP3   OH231875   0.276   1.176   1.704  0.0934  0.7292  0.4465
 3487TIP3    H131876   0.297   1.182   1.611  1.1049  0.0331  0.6073
 3487TIP3    H231877   0.361   1.183   1.748 -0.4221  1.5321  1.3488
 3488TIP3   OH231878   6.394   4.448  12.849 -0.0672 -0.4951 -0.1701
 3488TIP3    H131879   6.408   4.365  12.894 -1.0372 -0.3664  0.3973
 3488TIP3    H231880   6.468   4.455  12.788 -0.2200 -1.9974 -0.5689
 3489TIP3   OH231881   0.607   3.619  13.616  0.1407  0.7577 -0.1652
 3489TIP3    H131882   0.679   3.622  13.553 -0.7298  0.8919 -1.1844
 3489TIP3    H231883   0.607   3.529  13.648  1.1549  0.9178  0.3404
 3490TIP3   OH231884   3.832   0.180   1.731  0.2889 -0.2341  0.2214
 3490TIP3    H131885   3.918   0.152   1.698  0.6396  0.8104  0.2097
 3490TIP3    H231886   3.796   0.232   1.660 -0.9157 -1.6610 -0.2751
 3491TIP3   OH231887   5.571   6.553  15.797 -0.5493  0.2956  0.1788
 3491TIP3    H131888   5.640   6.540  15.733 -0.4029  0.9637  0.1910
 3491TIP3    H231889   5.496   6.505  15.762 -1.5945  3.4039 -2.3215
 3492TIP3   OH231890   1.902   4.368   1.100 -0.1675 -0.4314 -0.1270
 3492TIP3    H131891   1.957   4.295   1.074 -0.0737 -0.2723 -0.3776
 3492TIP3    H231892   1.958   4.445   1.093  0.2894 -0.5131  1.8534
 3493TIP3   OH231893   4.098   0.330  11.282 -0.5402 -0.4072 -0.4734
 3493TIP3    H131894   4.148   0.382  11.345 -0.1231 -1.3715  0.0094
 3493TIP3    H231895   4.154   0.327  11.204  0.1362 -1.3974  0.0306
 3494TIP3   OH231896   5.920   1.491   3.181 -0.3455 -0.6469  0.0848
 3494TIP3    H131897   5.875   1.476   3.264 -0.0974 -2.5255 -0.0679
 3494TIP3    H231898   6.011   1.504   3.205 -0.1887 -1.6887  0.0996
 3495TIP3   OH231899   2.623   0.487  15.111  0.9094 -0.1052 -0.2745
 3495TIP3    H131900   2.563   0.453  15.177  2.2540 -2.2092 -0.0490
 3495TIP3    H231901   2.629   0.580  15.129 -1.3410 -0.0457  0.4231
 3496TIP3   OH231902   6.194   6.049   1.746  0.0248  0.4201 -0.5930
 3496TIP3    H131903   6.223   6.028   1.657 -0.8387 -0.5827 -0.6571
 3496TIP3    H231904   6.207   5.967   1.795 -0.4095  0.6824 -0.0334
 3497TIP3   OH231905   5.882   5.065  11.856 -0.1259  0.0869  0.4038
 3497TIP3    H131906   5.864   5.151  11.895 -1.6419  0.5453 -1.1748
 3497TIP3    H231907   5.978   5.058  11.856 -0.0189  1.0837  1.9502
 3498TIP3   OH231908   4.992   0.295  14.898 -0.3417  0.2263 -0.5478
 3498TIP3    H131909   5.049   0.218  14.894  0.0061  0.5166 -1.8030
 3498TIP3    H231910   4.924   0.277  14.833 -0.3032  0.9288 -0.7902
 3499TIP3   OH231911   5.298   6.181   5.183  0.0749 -0.3972 -0.4175
 3499TIP3    H131912   5.292   6.157   5.276 -0.6497 -2.0958 -0.8629
 3499TIP3    H231913   5.388   6.211   5.172  0.6999 -1.8317  0.4780
 3500TIP3   OH231914   4.376   1.027   0.820  0.8672  0.1476  0.7616
 3500TIP3    H131915   4.416   1.113   0.813  1.8513 -0.2326  1.4419
 3500TIP3    H231916   4.411   0.991   0.902  1.0252 -1.1784  0.1384
 3501TIP3   OH231917   2.113   1.149   2.137  0.4934  0.1383 -0.5138
 3501TIP3    H131918   2.163   1.197   2.204 -0.7207  1.1064 -0.2775
 3501TIP3    H231919   2.180   1.116   2.077  1.5341  0.1045  0.6258
 3502TIP3   OH231920   4.481   1.932  11.329  0.3955 -0.5749 -0.1463
 3502TIP3    H131921   4.406   1.958  11.383  1.7795  2.4910  0.5152
 3502TIP3    H231922   4.455   1.955  11.240  1.0033  1.9924  0.2556
 3503TIP3   OH231923   1.921   6.094  15.542  0.0553 -0.1512  0.4873
 3503TIP3    H131924   1.925   6.071  15.635  1.1136  1.0696  0.7584
 3503TIP3    H231925   2.011   6.089  15.511 -0.4053 -1.5601 -0.7592
 3504TIP3   OH231926   0.880   1.282  15.690  0.1115  0.5628  0.8695
 3504TIP3    H131927   0.813   1.333  15.645  0.5052  0.7240  0.4549
 3504TIP3    H231928   0.918   1.344  15.753  0.4863  0.7432  0.4712
 3505TIP3   OH231929   5.733   1.899  11.315  0.0006  0.2490  0.4705
 3505TIP3    H131930   5.827   1.886  11.308 -0.1115  0.0504 -1.0154
 3505TIP3    H231931   5.705   1.925  11.227 -1.1033  1.9263  1.2584
 3506TIP3   OH231932   4.505   2.007  12.666  0.1819  0.7187 -0.2984
 3506TIP3    H131933   4.545   1.920  12.669  1.0332  1.1245  1.3898
 3506TIP3    H231934   4.558   2.056  12.604  2.5384  1.2789  1.9658
 3507TIP3   OH231935   0.382   6.698   2.344 -0.2626 -0.0687 -1.0678
 3507TIP3    H131936   0.316   6.759   2.310 -0.6524 -0.0407 -0.2843
 3507TIP3    H231937   0.389   6.631   2.276 -2.6054 -1.1744 -0.3094
 3508TIP3   OH231938   0.795   5.625  11.690  0.2971  0.0053 -0.1485
 3508TIP3    H131939   0.777   5.561  11.621  0.8858 -1.3097  0.8626
 3508TIP3    H231940   0.747   5.703  11.664 -0.8460 -1.0068 -1.1970
 3509TIP3   OH231941   5.640   2.980   5.117  0.4801  0.1377 -0.2684
 3509TIP3    H131942   5.615   3.070   5.098 -0.5186  0.2731  1.3890
 3509TIP3    H231943   5.557   2.936   5.137  0.7480 -1.6050 -2.5749
 3510TIP3   OH231944   2.459   2.506   5.425  0.5104 -0.2893  0.0431
 3510TIP3    H131945   2.499   2.503   5.338  0.2639  2.6775 -0.2677
 3510TIP3    H231946   2.533   2.514   5.485  0.5981  1.6232 -0.2578
 3511TIP3   OH231947   2.035   5.430  16.264  0.2849 -0.2477 -0.7077
 3511TIP3    H131948   2.091   5.440  16.187  2.2293 -0.6855  0.5721
 3511TIP3    H231949   1.971   5.363  16.239  3.2316 -3.2689 -0.7817
 3512TIP3   OH231950   6.247   5.576   1.478  0.0024 -0.5842  0.2560
 3512TIP3    H131951   6.204   5.579   1.393  1.6105  1.1822 -0.5592
 3512TIP3    H231952   6.183   5.613   1.539  0.6939  3.6364 -1.2043
 3513TIP3   OH231953   1.436   3.494   3.777  0.0431 -0.1092  0.3055
 3513TIP3    H131954   1.389   3.571   3.745  0.1459 -0.3475 -0.4252
 3513TIP3    H231955   1.527   3.524   3.786 -0.1914  0.3103  1.5858
 3514TIP3   OH231956   3.073   6.462   3.831  0.2987 -0.3993  0.2746
 3514TIP3    H131957   2.992   6.410   3.832  1.5198 -2.4625  2.1336
 3514TIP3    H231958   3.049   6.543   3.875 -1.5392  0.5388 -2.2234
 3515TIP3   OH231959   6.114   2.014  15.955  0.0069  0.0240 -0.5861
 3515TIP3    H131960   6.169   1.956  16.008 -0.6204 -1.1412 -1.1818
 3515TIP3    H231961   6.138   1.995  15.865 -0.2871  0.6359 -0.8008
 3516TIP3   OH231962   0.936   5.031  14.063  0.1900  0.4105 -0.3733
 3516TIP3    H131963   0.906   5.032  13.972 -1.4998  1.6416  0.1580
 3516TIP3    H231964   0.864   4.990  14.111  0.4747  1.0291  0.5995
 3517TIP3   OH231965   2.320   5.614   5.216 -0.1991 -0.4335  0.4795
 3517TIP3    H131966   2.370   5.577   5.289 -0.1516 -2.5695 -0.5343
 3517TIP3    H231967   2.229   5.590   5.235 -0.1418 -1.3650 -0.3001
 3518TIP3   OH231968   0.929   2.197   5.077  0.6278  0.0791  0.2372
 3518TIP3    H131969   0.837   2.172   5.066  0.1892  1.5381  0.2981
 3518TIP3    H231970   0.948   2.179   5.169  0.9355 -1.7969 -0.1626
 3519TIP3   OH231971   5.828   6.131   6.137  0.0036  0.2376 -0.3312
 3519TIP3    H131972   5.780   6.098   6.061 -1.3302 -0.7703  0.8609
 3519TIP3    H231973   5.762   6.178   6.188  0.4782 -0.3546  0.8950
 3520TIP3   OH231974   3.454   3.534   3.565  0.2679  0.1708 -0.2046
 3520TIP3    H131975   3.546   3.525   3.588  0.1026 -0.1166  0.3780
 3520TIP3    H231976   3.447   3.621   3.526  0.3245  1.3159  2.1264
 3521TIP3   OH231977   4.875   2.358  16.740  0.5308  0.1579  0.1555
 3521TIP3    H131978   4.857   2.287  16.801 -0.0429  0.8275  0.7806
 3521TIP3    H231979   4.789   2.389  16.712  0.5536  2.8988  2.6055
 3522TIP3   OH231980   0.124   6.691  15.299 -0.1053  0.3975 -0.2468
 3522TIP3    H131981   0.193   6.652  15.246 -0.2893 -1.0447  0.5253
 3522TIP3    H231982   0.052   6.628  15.294 -0.5192  0.7653  0.8225
 3523TIP3   OH231983   1.556   1.577   4.246  0.1404  0.0051 -0.2059
 3523TIP3    H131984   1.560   1.637   4.171 -1.6441 -0.1655 -0.4710
 3523TIP3    H231985   1.523   1.630   4.318 -1.8994 -0.6907 -0.5586
 3524TIP3   OH231986   2.398   0.809   5.974  0.0170 -0.1805  0.0325
 3524TIP3    H131987   2.406   0.739   6.038 -1.3811 -0.9273 -0.5615
 3524TIP3    H231988   2.341   0.873   6.017 -1.7110 -1.1223 -0.7787
 3525TIP3   OH231989   3.790   1.091  11.432 -0.2457  0.4576  0.4896
 3525TIP3    H131990   3.866   1.044  11.467 -0.2482  0.4652  0.5045
 3525TIP3    H231991   3.735   1.108  11.508 -0.6906 -0.3177  0.3522
 3526TIP3   OH231992   4.752   4.540  11.576 -0.6555 -0.0742 -0.2578
 3526TIP3    H131993   4.787   4.480  11.510 -1.0899  0.5278 -1.0571
 3526TIP3    H231994   4.772   4.627  11.541  0.2042  0.2581  1.0152
 3527TIP3   OH231995   6.021   3.607   4.664  0.6099 -0.6932 -0.3510
 3527TIP3    H131996   5.971   3.688   4.653  0.2729 -0.9389 -0.6503
 3527TIP3    H231997   6.106   3.625   4.624  1.5176  0.4127  1.8967
 3528TIP3   OH231998   6.264   1.750   1.743 -0.2093 -0.3753  0.1909
 3528TIP3    H131999   6.217   1.706   1.813 -1.2859 -0.1047 -0.3258
 3528TIP3    H232000   6.273   1.684   1.674 -0.4016 -0.2478  0.0420
 3529TIP3   OH232001   0.086   3.815   0.588 -0.0676 -0.2122  0.1090
 3529TIP3    H132002   0.069   3.721   0.576  0.9475 -0.5796  1.3381
 3529TIP3    H232003   0.141   3.839   0.514  0.5069 -0.8369  0.3221
 3530TIP3   OH232004   4.900   0.195   0.774 -0.1171  0.3437 -0.5700
 3530TIP3    H132005   4.838   0.124   0.758 -1.2241  0.4262  2.7364
 3530TIP3    H232006   4.848   0.275   0.766  0.3239  0.6029 -0.8963
 3531TIP3   OH232007   5.231   5.569   3.512  0.1370 -0.3496  0.0929
 3531TIP3    H132008   5.293   5.635   3.544 -0.4586  1.3162 -1.9484
 3531TIP3    H232009   5.274   5.532   3.434 -0.7074 -0.3966 -0.3551
 3532TIP3   OH232010   4.453   5.894   6.472 -0.0160  0.1330 -0.1573
 3532TIP3    H132011   4.397   5.970   6.452  0.3523  0.9759  1.8143
 3532TIP3    H232012   4.525   5.901   6.409 -1.2347 -0.0405 -1.6522
 3533TIP3   OH232013   4.759   0.627   0.197 -0.5796  0.0790 -0.5675
 3533TIP3    H132014   4.716   0.649   0.115 -1.9338 -0.4346 -0.0160
 3533TIP3    H232015   4.815   0.702   0.216 -0.6699  0.4343 -1.6767
 3534TIP3   OH232016   1.230   6.516   6.626 -0.0454 -0.0281 -0.1932
 3534TIP3    H132017   1.278   6.591   6.591  0.6666 -0.5027 -0.2572
 3534TIP3    H232018   1.169   6.554   6.689  0.9877  0.5355  0.5144
 3535TIP3   OH232019   3.503   0.711  13.604  0.0793  0.0606  0.0550
 3535TIP3    H132020   3.430   0.748  13.654 -0.6270 -1.1765 -0.0196
 3535TIP3    H232021   3.577   0.714  13.665  0.4314  2.7227 -0.3569
 3536TIP3   OH232022   3.232   3.165   4.378  0.1619 -0.3957 -0.1286
 3536TIP3    H132023   3.152   3.219   4.375 -0.3359 -0.9784  1.3277
 3536TIP3    H232024   3.256   3.152   4.287 -2.2997 -1.4781 -0.7010
 3537TIP3   OH232025   2.347   3.916   5.171  0.0066  0.0075  0.3306
 3537TIP3    H132026   2.263   3.887   5.136  0.1013  1.1546 -0.9202
 3537TIP3    H232027   2.327   3.949   5.259 -0.1528 -3.3635  1.7264
 3538TIP3   OH232028   1.940   0.999   5.639 -0.6005 -0.0332  0.1353
 3538TIP3    H132029   1.851   1.013   5.672 -0.4364  0.7525  0.2596
 3538TIP3    H232030   1.930   0.930   5.573 -1.3592  0.2969 -0.1097
 3539TIP3   OH232031   3.680   6.158   2.502  0.5513  0.5178  0.2561
 3539TIP3    H132032   3.760   6.164   2.554  1.1792 -1.4615 -0.4234
 3539TIP3    H232033   3.681   6.237   2.448  4.0511 -1.1266 -2.4591
 3540TIP3   OH232034   3.149   1.900   1.858  0.4402 -0.4215 -0.0857
 3540TIP3    H132035   3.166   1.980   1.907  1.1076 -0.1681 -0.7094
 3540TIP3    H232036   3.077   1.858   1.905  0.4041  0.3002  0.5275
 3541TIP3   OH232037   1.376   4.174   5.612 -0.0516 -0.2479 -0.5749
 3541TIP3    H132038   1.314   4.238   5.648 -0.8766 -0.6325 -1.2606
 3541TIP3    H232039   1.460   4.219   5.610 -0.4350  0.4939 -0.1814
 3542TIP3   OH232040   5.434   3.945   5.671  0.3556 -0.2873 -0.4440
 3542TIP3    H132041   5.445   4.036   5.697 -0.0330  0.4113 -2.5589
 3542TIP3    H232042   5.514   3.902   5.701  1.8239  1.3545 -1.8220
 3543TIP3   OH232043   5.338   5.286   3.432 -0.2568 -0.4319 -0.9945
 3543TIP3    H132044   5.395   5.209   3.428  0.4671  0.1334 -2.1123
 3543TIP3    H232045   5.394   5.359   3.406 -1.4969  0.1246 -2.2397
 3544TIP3   OH232046   4.360   4.612  11.640  0.4940 -0.3068 -0.0993
 3544TIP3    H132047   4.420   4.538  11.630 -1.3137 -1.7905 -0.5887
 3544TIP3    H232048   4.336   4.610  11.733 -0.9920 -1.6069 -0.4534
 3545TIP3   OH232049   2.790   1.347   5.882 -0.1325 -0.1880 -0.7106
 3545TIP3    H132050   2.721   1.390   5.831 -1.2083 -0.5422  0.4061
 3545TIP3    H232051   2.814   1.412   5.948 -1.1808 -0.9474  0.4649
 3546TIP3   OH232052   2.664   0.249   1.524 -0.1251 -0.0225 -0.3972
 3546TIP3    H132053   2.740   0.196   1.500 -0.3156  0.3044 -1.7455
 3546TIP3    H232054   2.683   0.336   1.491 -0.6416  0.3195  0.1762
 3547TIP3   OH232055   5.956   5.277   0.067 -0.4180  0.1817  0.3852
 3547TIP3    H132056   5.969   5.201   0.123 -1.0898 -0.0935  0.1859
 3547TIP3    H232057   5.861   5.289   0.066 -0.5136 -0.4175 -1.4444
 3548TIP3   OH232058   5.714   0.829  15.963 -0.8612  0.6355  0.7481
 3548TIP3    H132059   5.647   0.769  15.995 -0.2537  0.0775  0.9894
 3548TIP3    H232060   5.708   0.906  16.020 -1.2688  0.5698  0.7896
 3549TIP3   OH232061   6.004   6.406   4.107 -0.1348 -0.7258  0.3255
 3549TIP3    H132062   5.939   6.365   4.050 -0.7564 -0.4169  0.8015
 3549TIP3    H232063   5.979   6.378   4.195 -0.8299  0.9721  0.7164
 3550TIP3   OH232064   2.532   0.119  16.793  1.2304  0.4359 -0.3180
 3550TIP3    H132065   2.582   0.088  16.717  1.7825  0.3374  0.0730
 3550TIP3    H232066   2.587   0.095  16.868  0.7878  0.7120  0.0969
 3551TIP3   OH232067   3.710   3.424   0.960 -0.6981  0.6154  0.6245
 3551TIP3    H132068   3.712   3.499   1.019 -1.5332  1.0807  0.0879
 3551TIP3    H232069   3.670   3.458   0.880  0.5782  0.0577 -0.2947
 3552TIP3   OH232070   2.908   0.701   5.490 -0.2463  0.2459 -0.0436
 3552TIP3    H132071   2.989   0.752   5.487 -0.5570  0.7316 -2.3925
 3552TIP3    H232072   2.865   0.729   5.570  1.9000 -0.0706  1.3026
 3553TIP3   OH232073   1.188   2.671   0.658 -0.2194  0.1373 -0.4074
 3553TIP3    H132074   1.264   2.724   0.681  0.4951 -0.2569 -1.7854
 3553TIP3    H232075   1.114   2.731   0.667  0.3732  0.8545 -0.1685
 3554TIP3   OH232076   1.307   2.632   3.265 -0.3429  0.3223 -0.1471
 3554TIP3    H132077   1.306   2.603   3.174  1.0962 -0.7992  0.1569
 3554TIP3    H232078   1.254   2.567   3.312  0.7116 -0.3728  0.1240
 3555TIP3   OH232079   2.004   4.907   1.744 -0.4151  0.5066 -0.7321
 3555TIP3    H132080   2.068   4.850   1.702 -0.8533 -0.3355 -0.2895
 3555TIP3    H232081   1.921   4.889   1.699 -1.1825 -1.3807  1.2560
 3556TIP3   OH232082   4.904   6.021  16.944  0.4091 -0.0748 -0.1311
 3556TIP3    H132083   4.837   5.991  16.884  1.2339 -0.0896 -1.0634
 3556TIP3    H232084   4.976   6.049  16.888  1.6431 -1.1338  0.8708
 3557TIP3   OH232085   5.594   1.821  14.954 -0.0704  0.1836 -0.0027
 3557TIP3    H132086   5.687   1.841  14.942 -0.1171  1.3240  1.2294
 3557TIP3    H232087   5.591   1.767  15.034 -0.3832 -0.7802 -0.6495
 3558TIP3   OH232088   4.726   5.432  12.223 -0.1451 -0.2412 -0.4302
 3558TIP3    H132089   4.744   5.384  12.142  0.4043  0.4882 -0.7519
 3558TIP3    H232090   4.750   5.522  12.203  1.6614 -0.3155  1.0668
 3559TIP3   OH232091   0.041   5.734   1.866  0.1907 -0.4164  0.3508
 3559TIP3    H132092   0.109   5.673   1.894  2.8285  1.2514 -1.8282
 3559TIP3    H232093   0.028   5.715   1.773  0.4412  1.6380 -0.1709
 3560TIP3   OH232094   4.581   4.614  16.767  0.2568  0.4617  0.5507
 3560TIP3    H132095   4.501   4.563  16.781 -0.0359  0.7584  0.0093
 3560TIP3    H232096   4.554   4.683  16.706  0.7006  1.1379  1.1173
 3561TIP3   OH232097   0.335   4.376   4.743 -0.2987 -0.5131 -0.2663
 3561TIP3    H132098   0.371   4.384   4.832  0.6010 -0.8396 -0.5866
 3561TIP3    H232099   0.242   4.394   4.753  0.2138  2.2642  0.3247
 3562TIP3   OH232100   3.652   0.996   0.040 -0.3648 -0.2052  0.4210
 3562TIP3    H132101   3.718   0.943  -0.005  0.6815  1.8425 -0.5643
 3562TIP3    H232102   3.656   0.966   0.131  2.0946 -0.0306  0.4380
 3563TIP3   OH232103   1.575   6.244   4.954  0.0932 -0.1124  0.1643
 3563TIP3    H132104   1.664   6.239   4.987  1.3438  2.4297 -2.3769
 3563TIP3    H232105   1.555   6.338   4.952 -1.2819 -0.3538 -2.4469
 3564TIP3   OH232106   0.784   0.326  17.275  0.9616 -0.4374  0.8792
 3564TIP3    H132107   0.726   0.296  17.206  1.7172 -1.6834  0.7443
 3564TIP3    H232108   0.730   0.323  17.355 -0.1070  1.6430  0.3083
 3565TIP3   OH232109   1.154   1.841  11.636  0.1560 -0.2625 -0.4302
 3565TIP3    H132110   1.121   1.931  11.637 -1.5895 -0.8499  1.5724
 3565TIP3    H232111   1.249   1.851  11.625 -0.0669  1.7573 -1.0306
 3566TIP3   OH232112   6.124   2.977   1.189  0.1998  0.7619 -0.1530
 3566TIP3    H132113   6.179   2.943   1.260 -1.2548  0.2044  0.7566
 3566TIP3    H232114   6.041   2.998   1.232 -1.5126 -1.6294 -2.0260
 3567TIP3   OH232115   4.890   3.530  14.305  0.4315 -0.5015 -0.9329
 3567TIP3    H132116   4.914   3.459  14.364 -1.6373  1.3726  2.4807
 3567TIP3    H232117   4.943   3.604  14.333 -0.3962  0.3789 -1.6166
 3568TIP3   OH232118   4.342   4.205  14.662  0.2022  0.3078  0.4113
 3568TIP3    H132119   4.246   4.200  14.660  0.2572 -0.7230  0.1281
 3568TIP3    H232120   4.371   4.115  14.651  1.2146  0.6266  0.4083
 3569TIP3   OH232121   1.429   3.959   4.270  0.0477 -0.4511 -0.4350
 3569TIP3    H132122   1.344   3.924   4.246 -0.3938  1.3594 -1.7338
 3569TIP3    H232123   1.486   3.882   4.276 -1.2791 -1.5396 -1.2272
 3570TIP3   OH232124   3.791   2.384   0.931 -0.3372  0.3198 -0.0336
 3570TIP3    H132125   3.766   2.463   0.979 -0.4628 -0.3419  1.0312
 3570TIP3    H232126   3.707   2.345   0.904 -0.2579  0.8216 -1.0209
 3571TIP3   OH232127   4.644   3.626  10.864 -0.2970 -0.2447  0.4124
 3571TIP3    H132128   4.592   3.651  10.940  0.9046 -1.5707  1.7343
 3571TIP3    H232129   4.701   3.702  10.847 -1.2350  0.4287  0.1948
 3572TIP3   OH232130   3.210   5.694   2.598  0.0298 -0.4340  0.5332
 3572TIP3    H132131   3.229   5.608   2.562 -1.2914 -0.5503  0.0538
 3572TIP3    H232132   3.282   5.750   2.568 -1.7571 -0.1082 -3.7691
 3573TIP3   OH232133   0.636   4.257   6.458  0.4504  0.4142  0.3242
 3573TIP3    H132134   0.669   4.235   6.370 -1.0525  0.1860 -0.2248
 3573TIP3    H232135   0.713   4.253   6.514  1.4811  0.6938 -1.0089
 3574TIP3   OH232136   4.639   0.675   5.063 -0.2176 -0.6485 -0.6132
 3574TIP3    H132137   4.706   0.722   5.112  0.4824  0.7238 -2.7346
 3574TIP3    H232138   4.594   0.621   5.128  1.5194  0.0336  1.2386
 3575TIP3   OH232139   2.838   2.660   4.594  0.2430 -0.2340  0.5068
 3575TIP3    H132140   2.766   2.710   4.556  0.0445 -0.5593  0.4476
 3575TIP3    H232141   2.914   2.717   4.586 -0.1964  0.5174  1.4755
 3576TIP3   OH232142   1.695   5.142   3.853  0.7649  0.6077  0.1375
 3576TIP3    H132143   1.767   5.173   3.798 -0.1421 -1.4181 -2.3691
 3576TIP3    H232144   1.708   5.048   3.860 -1.4473  0.2353 -0.1028
 3577TIP3   OH232145   2.195   1.608   5.172  0.2772  0.8178 -0.1968
 3577TIP3    H132146   2.148   1.689   5.193  1.1215  0.9900  1.0876
 3577TIP3    H232147   2.133   1.538   5.192  0.4860  1.0472  1.3788
 3578TIP3   OH232148   1.414   3.144   2.028  0.2767  0.1753  0.2419
 3578TIP3    H132149   1.379   3.222   1.984 -2.2036 -1.1660 -0.3462
 3578TIP3    H232150   1.410   3.165   2.121  1.4844  1.4329  0.0394
 3579TIP3   OH232151   0.597   0.495   2.058  0.4510  0.3800  0.1641
 3579TIP3    H132152   0.578   0.588   2.043  2.5274  0.9438  0.7695
 3579TIP3    H232153   0.598   0.485   2.153 -0.3095 -0.4151  0.1055
 3580TIP3   OH232154   3.793   3.860   2.892  0.1979  0.1030  0.0938
 3580TIP3    H132155   3.823   3.941   2.933 -1.5641  0.3154  1.1054
 3580TIP3    H232156   3.751   3.888   2.811  1.5062 -0.0597 -0.6655
 3581TIP3   OH232157   6.011   3.443   0.509  0.1335  0.3147  0.5198
 3581TIP3    H132158   6.002   3.471   0.600  2.3022  0.7512  0.6551
 3581TIP3    H232159   6.001   3.524   0.458  1.4430  0.5202  0.5665
 3582TIP3   OH232160   5.986   1.939  13.804  0.1806  0.0708 -0.2957
 3582TIP3    H132161   6.045   1.932  13.878  1.4601 -1.1978 -1.3824
 3582TIP3    H232162   5.946   2.026  13.813  1.5259  0.5945  0.9617
 3583TIP3   OH232163   4.706   5.112  16.565  0.3375  0.3780 -0.0384
 3583TIP3    H132164   4.693   5.179  16.633 -0.6059  1.0562 -0.8535
 3583TIP3    H232165   4.775   5.148  16.510  1.4386 -0.3915  0.8055
 3584TIP3   OH232166   6.404   1.693  12.836 -0.7798 -0.5504  0.8741
 3584TIP3    H132167   6.454   1.616  12.864  0.9655  0.1183 -0.2170
 3584TIP3    H232168   6.378   1.673  12.746  1.3307  0.8269 -0.1115
 3585TIP3   OH232169   1.743   0.229   0.723  0.2057  0.5319  0.4553
 3585TIP3    H132170   1.651   0.212   0.746  0.1319 -0.2375 -0.3163
 3585TIP3    H232171   1.793   0.177   0.785  0.0627 -0.1875 -0.0165
 3586TIP3   OH232172   3.067   4.050   0.824  0.1095 -0.2475  0.5814
 3586TIP3    H132173   3.138   4.105   0.858 -0.1226  0.9058 -0.7397
 3586TIP3    H232174   3.009   4.110   0.777 -1.6524 -1.2049  1.4352
 3587TIP3   OH232175   5.914   0.613   3.002 -0.2421  0.1924  0.3547
 3587TIP3    H132176   5.977   0.632   3.070 -0.2574  3.5845 -0.3809
 3587TIP3    H232177   5.944   0.664   2.926 -3.4646  1.6243 -0.1674
 3588TIP3   OH232178   3.982   0.387  12.027  0.3772  0.0115 -0.4716
 3588TIP3    H132179   3.942   0.396  12.114  0.9039 -1.5439 -0.0359
 3588TIP3    H232180   4.017   0.474  12.008 -0.2485  0.5287  0.6144
 3589TIP3   OH232181   6.620   3.006   5.295  0.3141 -0.5529  0.0410
 3589TIP3    H132182   6.656   2.926   5.335 -0.4177  0.6144  3.3852
 3589TIP3    H232183   6.697   3.055   5.266  0.9087 -1.3796  0.1718
 3590TIP3   OH232184   5.801   0.718  13.604 -0.2539 -0.5088 -0.2748
 3590TIP3    H132185   5.811   0.675  13.689 -0.5859 -1.6097 -0.7811
 3590TIP3    H232186   5.794   0.811  13.626 -1.3445 -0.8546  0.9821
 3591TIP3   OH232187   1.723   4.101   3.828 -0.3175  0.3695  0.2001
 3591TIP3    H132188   1.732   4.145   3.912 -0.1154 -0.7853  0.8072
 3591TIP3    H232189   1.811   4.100   3.792 -0.1807 -0.2041  0.5407
 3592TIP3   OH232190   6.073   5.086  13.686  0.3425 -0.2249  0.2039
 3592TIP3    H132191   6.132   5.107  13.758 -0.3084  0.6045  0.5122
 3592TIP3    H232192   6.058   5.170  13.642 -1.7402 -0.1107  1.0158
 3593TIP3   OH232193   1.186   0.892   0.915 -0.2308 -0.5948  1.2452
 3593TIP3    H132194   1.125   0.842   0.860 -0.9619  1.9855 -0.4835
 3593TIP3    H232195   1.144   0.894   1.001 -0.6666 -1.9913  1.1017
 3594TIP3   OH232196   0.050   4.191  11.473 -0.3477  0.0029 -0.3779
 3594TIP3    H132197   0.013   4.251  11.408 -0.6565 -0.2239 -0.4142
 3594TIP3    H232198   0.132   4.160  11.434 -0.6278 -0.2835 -0.7524
 3595TIP3   OH232199   0.307   4.583  13.280  0.2123 -0.3388 -0.3217
 3595TIP3    H132200   0.270   4.519  13.341  0.5391 -0.7056 -0.5051
 3595TIP3    H232201   0.362   4.639  13.334  0.2614 -0.4763 -0.2287
 3596TIP3   OH232202   3.861   3.373  12.651 -0.0503  0.0034 -0.0390
 3596TIP3    H132203   3.926   3.383  12.581 -0.2137  1.4245 -0.0106
 3596TIP3    H232204   3.790   3.433  12.626 -0.1874  0.3986  1.2673
 3597TIP3   OH232205   1.721   4.175  11.835 -0.0161 -0.0310 -0.1426
 3597TIP3    H132206   1.753   4.179  11.925 -1.6497  0.2711  0.4560
 3597TIP3    H232207   1.632   4.141  11.842 -0.1328 -0.1234 -1.6643
 3598TIP3   OH232208   1.045   0.272  12.785  0.4077  1.0379 -0.2520
 3598TIP3    H132209   0.979   0.278  12.854  1.6407 -2.9173  1.6001
 3598TIP3    H232210   0.994   0.267  12.704 -1.4926  0.3742  0.9114
 3599TIP3   OH232211   4.550   6.252   4.625  0.3377  0.9215  0.2043
 3599TIP3    H132212   4.463   6.239   4.660  0.4972 -0.8093  0.0277
 3599TIP3    H232213   4.545   6.336   4.579 -1.1780  0.9257  0.3394
 3600TIP3   OH232214   6.440   2.602  15.920 -0.0161 -0.1702 -0.5429
 3600TIP3    H132215   6.432   2.675  15.982  0.9367  1.4682 -2.2131
 3600TIP3    H232216   6.493   2.537  15.965 -0.5729  0.3166  0.8641
 3601TIP3   OH232217   5.543   6.278   1.332  0.0449 -0.3748 -0.2003
 3601TIP3    H132218   5.470   6.308   1.386 -0.5024  0.0457 -1.1628
 3601TIP3    H232219   5.613   6.341   1.350  0.0319 -0.5181  0.3797
 3602TIP3   OH232220   0.233   6.271  16.420  0.7032 -0.1228  0.4554
 3602TIP3    H132221   0.254   6.357  16.458  1.6621 -0.0551 -0.2042
 3602TIP3    H232222   0.139   6.277  16.400  0.2727  0.0077  2.3122
 3603TIP3   OH232223   0.847   5.133   3.956 -0.0634  0.1134  0.1946
 3603TIP3    H132224   0.865   5.191   3.882 -0.3704 -0.1273 -0.0683
 3603TIP3    H232225   0.752   5.124   3.957 -0.0150 -0.3959  0.2335
 3604TIP3   OH232226   3.615   2.116  13.373  0.4695  0.0724  0.2067
 3604TIP3    H132227   3.657   2.044  13.420  0.6957 -0.2780 -0.5173
 3604TIP3    H232228   3.583   2.077  13.292 -0.2838  0.5796  0.2443
 3605TIP3   OH232229   4.870   3.941   0.946  0.2374 -0.0477  0.0939
 3605TIP3    H132230   4.929   3.954   1.020  1.3186 -1.0797 -0.5538
 3605TIP3    H232231   4.820   3.863   0.968 -0.7875  0.7087  0.5507
 3606TIP3   OH232232   1.983   5.746   5.543 -0.6244  0.3106  0.0572
 3606TIP3    H132233   2.034   5.826   5.555  0.0708 -0.1009 -0.1234
 3606TIP3    H232234   2.010   5.714   5.456 -1.7024  0.4588 -0.3487
 3607TIP3   OH232235   3.777   4.451  11.040  0.6231 -0.2093 -0.7448
 3607TIP3    H132236   3.714   4.481  10.975 -0.6504  1.0985  0.9976
 3607TIP3    H232237   3.861   4.483  11.008 -0.0850  1.1664 -1.3440
 3608TIP3   OH232238   2.914   5.055   3.688 -0.2577 -0.5880 -0.1559
 3608TIP3    H132239   2.941   5.057   3.780 -0.7060  0.5027 -0.0367
 3608TIP3    H232240   2.882   5.143   3.671 -1.0363 -1.0484 -1.1083
 3609TIP3   OH232241   4.677   3.917  17.377  0.2539  0.2314 -0.3601
 3609TIP3    H132242   4.666   3.971  17.299 -2.9374 -0.3273 -0.4287
 3609TIP3    H232243   4.704   3.831  17.344  2.4886  0.9192 -0.4732
 3610TIP3   OH232244   4.460   4.477  13.738 -0.1362 -0.7691 -0.0432
 3610TIP3    H132245   4.434   4.510  13.653 -1.4669 -1.3917  0.1054
 3610TIP3    H232246   4.516   4.401  13.718 -1.4587 -1.6895 -0.3959
 3611TIP3   OH232247   2.051   2.919   2.631  0.0519  0.6263  0.4074
 3611TIP3    H132248   2.144   2.934   2.611  0.2504  0.6405  1.2715
 3611TIP3    H232249   2.020   3.003   2.662 -0.2538  0.6163  0.1296
 3612TIP3   OH232250   5.227   6.744   2.762 -0.3761 -0.1149 -0.5289
 3612TIP3    H132251   5.258   6.834   2.755  0.4857 -0.1817  1.6310
 3612TIP3    H232252   5.140   6.752   2.802 -0.2389 -0.2542 -0.2039
 3613TIP3   OH232253   1.028   0.171   4.587 -0.1070 -0.2479 -0.2132
 3613TIP3    H132254   1.010   0.078   4.577 -0.4215  0.0270 -2.9445
 3613TIP3    H232255   0.963   0.202   4.649 -0.8544 -1.6191 -0.2850
 3614TIP3   OH232256   4.267   2.469  15.120 -0.3919  0.1763 -0.2377
 3614TIP3    H132257   4.181   2.508  15.137 -0.7853 -0.2471 -1.1924
 3614TIP3    H232258   4.321   2.542  15.092 -0.7984  0.2531 -0.8580
 3615TIP3   OH232259   1.212   4.592  12.691  0.2640  0.4684 -0.0682
 3615TIP3    H132260   1.153   4.667  12.690  0.0188  0.3000  0.9656
 3615TIP3    H232261   1.205   4.555  12.603 -0.5233  0.9479 -0.2170
 3616TIP3   OH232262   4.428   5.289   3.816 -0.7114  0.0725  0.2566
 3616TIP3    H132263   4.395   5.214   3.767 -0.5776  0.4294 -0.3831
 3616TIP3    H232264   4.378   5.364   3.783  1.7222  0.8865 -1.8501
 3617TIP3   OH232265   6.591   2.405  11.393 -0.1130  0.0373 -0.1767
 3617TIP3    H132266   6.580   2.366  11.480 -0.1975 -0.5820 -0.4591
 3617TIP3    H232267   6.559   2.338  11.333  0.2105  0.3498 -0.7021
 3618TIP3   OH232268   6.554   1.586   0.519  0.4545 -0.4461  0.0455
 3618TIP3    H132269   6.560   1.613   0.610 -0.1355 -0.4472  0.0930
 3618TIP3    H232270   6.564   1.667   0.469  0.2174 -0.3593  0.1358
 3619TIP3   OH232271   5.513   6.542   3.656  0.3940  0.1814 -0.1443
 3619TIP3    H132272   5.514   6.457   3.612  0.1588 -0.7605  1.5730
 3619TIP3    H232273   5.595   6.546   3.705 -0.0903  0.4191  0.6902
 3620TIP3   OH232274   1.787   3.564   5.542 -0.1064 -0.2729 -0.3783
 3620TIP3    H132275   1.815   3.612   5.464  0.3949 -0.4113 -0.2891
 3620TIP3    H232276   1.839   3.601   5.613 -0.6591 -0.0548 -0.0820
 3621TIP3   OH232277   5.906   0.691  15.810  0.2888 -0.0272  0.4656
 3621TIP3    H132278   5.860   0.731  15.884 -0.0906 -0.9490  0.7454
 3621TIP3    H232279   5.999   0.706  15.828  0.1654  3.1377 -0.8223
 3622TIP3   OH232280   1.170   5.365  14.953 -0.1756  0.2535  0.0862
 3622TIP3    H132281   1.186   5.308  15.028 -0.8627 -0.4916 -0.3112
 3622TIP3    H232282   1.199   5.314  14.878  1.7558  1.5216 -0.0715
 3623TIP3   OH232283   3.923   6.400  17.204  0.2986  0.2892 -0.5267
 3623TIP3    H132284   3.963   6.479  17.242 -0.1968  0.3486 -0.1229
 3623TIP3    H232285   3.997   6.353  17.165  1.2519 -0.8582  2.3682
 3624TIP3   OH232286   3.935   1.966   5.096 -0.4262  0.3488  0.2949
 3624TIP3    H132287   3.861   1.984   5.152 -1.3396 -3.4628  0.5744
 3624TIP3    H232288   3.901   1.907   5.028  2.0154 -0.4889 -0.3379
 3625TIP3   OH232289   1.059   4.441  16.242 -0.1243  0.1465  0.6100
 3625TIP3    H132290   1.011   4.523  16.229 -1.2336 -0.3734  1.3209
 3625TIP3    H232291   1.133   4.466  16.297  0.6352  1.0138 -0.7361
 3626TIP3   OH232292   1.462   6.149   0.288 -0.3195  0.0118  0.4271
 3626TIP3    H132293   1.442   6.188   0.373 -1.6179 -1.4033  0.8114
 3626TIP3    H232294   1.435   6.058   0.297  0.7088 -0.4777 -1.1079
 3627TIP3   OH232295   1.723   0.904   3.855  0.1901  0.4780 -0.2798
 3627TIP3    H132296   1.643   0.933   3.900  0.1295  0.7192 -0.5367
 3627TIP3    H232297   1.746   0.978   3.799  1.3358  0.9366  0.7559
 3628TIP3   OH232298   6.239   1.287  11.152 -0.5713 -0.2194 -0.3566
 3628TIP3    H132299   6.179   1.241  11.210 -1.0106  1.1149  0.2898
 3628TIP3    H232300   6.182   1.331  11.088 -0.3164  1.0203  0.2342
 3629TIP3   OH232301   5.660   3.161   0.174  0.3558 -0.1246 -0.2137
 3629TIP3    H132302   5.658   3.067   0.160  0.8956 -0.0978 -0.4946
 3629TIP3    H232303   5.593   3.196   0.115  2.0152 -0.0938 -2.1838
 3630TIP3   OH232304   2.114   3.664  16.455 -0.3283 -0.5107 -0.1433
 3630TIP3    H132305   2.072   3.579  16.442  0.1148 -0.7636  0.0574
 3630TIP3    H232306   2.146   3.661  16.545  0.5561 -0.5151 -0.4533
 3631TIP3   OH232307   2.792   4.666  12.765  0.3420  1.3256  0.0231
 3631TIP3    H132308   2.842   4.584  12.763 -1.3804  0.2321 -0.3616
 3631TIP3    H232309   2.764   4.675  12.856  0.8662  1.7228  0.1511
 3632TIP3   OH232310   3.261   6.214  12.653  0.3052  0.1713 -0.5146
 3632TIP3    H132311   3.261   6.303  12.619 -0.2037 -0.4952 -2.3959
 3632TIP3    H232312   3.350   6.201  12.687  0.1054  1.6767  0.6745
 3633TIP3   OH232313   6.503   1.132   2.423  0.5500 -0.0345  0.3270
 3633TIP3    H132314   6.437   1.201   2.420  1.2561  0.6255 -0.6127
 3633TIP3    H232315   6.458   1.057   2.464  0.0598  1.2624  2.3076
 3634TIP3   OH232316   2.308   1.147  15.292 -0.4140 -0.2755 -0.3004
 3634TIP3    H132317   2.365   1.102  15.230 -1.3853 -2.4626  0.3296
 3634TIP3    H232318   2.368   1.193  15.350  0.5369  2.0450 -2.8647
 3635TIP3   OH232319   4.555   0.546  12.598  0.5087  0.4723 -0.9365
 3635TIP3    H132320   4.577   0.453  12.606  3.0417  0.8384 -2.6259
 3635TIP3    H232321   4.474   0.546  12.546  0.1345 -0.7671 -0.4101
 3636TIP3   OH232322   2.612   3.326  15.167 -0.8499  0.2358  0.4515
 3636TIP3    H132323   2.667   3.366  15.234  1.2490 -1.5000 -0.1324
 3636TIP3    H232324   2.588   3.241  15.203  0.7520 -0.9521 -1.1355
 3637TIP3   OH232325   3.987   4.170  16.993 -0.3452  0.8109  0.4276
 3637TIP3    H132326   3.937   4.091  17.016  0.2613  0.5431  0.8685
 3637TIP3    H232327   3.952   4.238  17.050 -1.0980  0.9417 -0.1869
 3638TIP3   OH232328   1.668   3.205  14.596 -0.1016 -0.0980 -0.0672
 3638TIP3    H132329   1.576   3.179  14.601 -0.3930  0.8460 -0.2416
 3638TIP3    H232330   1.665   3.298  14.573  0.8964 -0.0258  0.0534
 3639TIP3   OH232331   6.700   5.472  10.830  0.1139 -0.2776 -1.1105
 3639TIP3    H132332   6.790   5.469  10.862  0.0986  1.0961 -0.8699
 3639TIP3    H232333   6.701   5.420  10.749  1.5134  1.1065 -2.0292
 3640TIP3   OH232334   3.141   3.173  13.828  0.1264 -0.6137  0.3263
 3640TIP3    H132335   3.110   3.085  13.809  0.3779 -0.6469  0.0625
 3640TIP3    H232336   3.140   3.218  13.743 -0.1872 -0.3022  0.4929
 3641TIP3   OH232337   0.452   3.554   6.290 -0.0556  0.4188  0.5244
 3641TIP3    H132338   0.492   3.639   6.277  1.9195 -0.6754 -1.1273
 3641TIP3    H232339   0.457   3.538   6.384 -1.5930  2.5772  1.0442
 3642TIP3   OH232340   3.026   4.604  15.238  0.1444 -0.3449 -1.0088
 3642TIP3    H132341   3.086   4.531  15.221  0.7925 -0.5269  1.5917
 3642TIP3    H232342   3.083   4.679  15.253 -0.3955  0.0887 -1.1191
 3643TIP3   OH232343   6.099   0.476   3.386 -0.1216 -0.2558 -0.4015
 3643TIP3    H132344   6.098   0.555   3.332  1.3128  0.8567  1.0937
 3643TIP3    H232345   6.042   0.497   3.460  0.1356 -0.6954 -0.0782
 3644TIP3   OH232346   3.923   5.747   5.203  0.3724  0.3144  0.4209
 3644TIP3    H132347   3.883   5.737   5.289  0.0157 -2.0619  0.0486
 3644TIP3    H232348   3.849   5.746   5.142  0.6699  1.1538  0.0398
 3645TIP3   OH232349   1.303   4.786   3.374  0.0810  0.2652 -0.0169
 3645TIP3    H132350   1.328   4.878   3.381 -0.5048  0.6515 -2.2458
 3645TIP3    H232351   1.209   4.785   3.395  0.5806 -0.2734  2.5054
 3646TIP3   OH232352   6.719   0.628   1.057 -0.4780  0.0526  0.2485
 3646TIP3    H132353   6.690   0.598   1.143  0.5442 -0.0778  0.5663
 3646TIP3    H232354   6.721   0.549   1.003  0.7906 -0.2312  0.6746
 3647TIP3   OH232355   0.568   1.604  14.160  0.1673  0.0297  0.2357
 3647TIP3    H132356   0.545   1.604  14.067  0.2871 -1.3895  0.1816
 3647TIP3    H232357   0.663   1.619  14.160 -0.2369  3.5076  0.3493
 3648TIP3   OH232358   1.267   4.919   6.199 -0.2532  0.6381  0.4291
 3648TIP3    H132359   1.323   4.943   6.273 -0.5203  0.9962  0.5197
 3648TIP3    H232360   1.308   4.961   6.123  1.3374 -1.6153 -0.0505
 3649TIP3   OH232361   0.828   0.385  12.984  0.4328  0.0992  0.0141
 3649TIP3    H132362   0.741   0.413  12.955  1.4172  1.7241 -1.5715
 3649TIP3    H232363   0.855   0.453  13.046  0.4861 -0.5362  0.6941
 3650TIP3   OH232364   6.038   0.982  11.404 -0.1398  0.6552 -0.9600
 3650TIP3    H132365   6.017   0.988  11.310 -2.1001 -0.8111 -0.6782
 3650TIP3    H232366   5.957   1.009  11.448  0.7504  1.2855  0.3164
 3651TIP3   OH232367   3.534   2.257  11.215  0.2361  0.1608  0.1498
 3651TIP3    H132368   3.517   2.305  11.296  1.4295  1.3891 -0.2858
 3651TIP3    H232369   3.560   2.325  11.152 -0.7439 -0.7541 -1.2936
 3652TIP3   OH232370   1.656   1.773  14.529 -0.7599  0.3761 -0.0500
 3652TIP3    H132371   1.591   1.707  14.555 -0.6482  0.9372  1.7769
 3652TIP3    H232372   1.726   1.723  14.487 -0.7877 -0.6522  1.0934
 3653TIP3   OH232373   2.210   5.211   4.013  0.3672  0.1515  0.0350
 3653TIP3    H132374   2.126   5.167   4.023  0.8860 -0.9933 -0.5110
 3653TIP3    H232375   2.272   5.141   3.993  1.5360  0.9221  0.8387
 3654TIP3   OH232376   3.478   1.670  16.232 -0.1418  0.3784  0.5073
 3654TIP3    H132377   3.395   1.666  16.280 -0.3518 -1.3333  0.0689
 3654TIP3    H232378   3.525   1.592  16.261  0.1054 -0.2059 -1.3718
 3655TIP3   OH232379   5.259   6.487   3.494 -0.6021 -0.3144 -0.0236
 3655TIP3    H132380   5.266   6.477   3.399 -0.2554  0.9115 -0.1363
 3655TIP3    H232381   5.350   6.494   3.524 -0.7502  0.6528  0.2289
 3656TIP3   OH232382   0.742   5.856  12.226 -1.0550 -0.1196  0.5802
 3656TIP3    H132383   0.761   5.927  12.287  0.4888 -0.1527  0.1917
 3656TIP3    H232384   0.826   5.812  12.213 -1.0418  0.5283 -2.3671
 3657TIP3   OH232385   2.483   4.223   2.652  0.1139 -0.3017 -0.0310
 3657TIP3    H132386   2.485   4.317   2.665 -0.9629 -0.5138  2.2927
 3657TIP3    H232387   2.548   4.206   2.584 -0.2922  2.1626 -1.1229
 3658TIP3   OH232388   4.561   1.329   4.226 -0.2613  0.1490 -0.3142
 3658TIP3    H132389   4.540   1.281   4.307  0.1460 -1.3742 -1.0644
 3658TIP3    H232390   4.596   1.262   4.167  1.3600  1.5854 -1.0769
 3659TIP3   OH232391   6.356   4.174   4.596 -0.2374  0.0073 -0.4003
 3659TIP3    H132392   6.419   4.232   4.639  0.5662  0.1923 -1.7800
 3659TIP3    H232393   6.298   4.146   4.667  1.2044  0.0655  0.8588
 3660TIP3   OH232394   6.307   5.450  15.665  0.1810  0.2059  0.5098
 3660TIP3    H132395   6.325   5.512  15.736  0.7687 -0.1127  0.6457
 3660TIP3    H232396   6.278   5.505  15.592  4.8209  1.2926 -0.8988
 3661TIP3   OH232397   5.998   3.182   5.666 -0.5644  0.5963  0.5338
 3661TIP3    H132398   5.943   3.110   5.696  2.1126 -1.6148  0.5765
 3661TIP3    H232399   6.013   3.164   5.573  1.5356  0.0116  0.9366
 3662TIP3   OH232400   5.855   3.862   5.588  0.4670 -0.7417 -0.3856
 3662TIP3    H132401   5.940   3.892   5.557  0.4505 -1.4213 -1.1085
 3662TIP3    H232402   5.847   3.773   5.555 -1.4630  0.0334 -2.2181
 3663TIP3   OH232403   2.185   0.258   2.991 -0.4054  0.2239 -0.2958
 3663TIP3    H132404   2.233   0.305   3.059  0.1202  0.8747 -1.0952
 3663TIP3    H232405   2.099   0.299   2.989 -1.8681 -2.2741  2.5704
 3664TIP3   OH232406   3.035   4.239  12.621  0.0557 -0.3234 -0.9048
 3664TIP3    H132407   3.051   4.177  12.693 -1.2535  0.9232  0.5313
 3664TIP3    H232408   3.102   4.218  12.556  2.9795  0.1116  1.7324
 3665TIP3   OH232409   4.801   1.028   6.272  0.7633  0.1201  0.1443
 3665TIP3    H132410   4.732   1.082   6.312 -0.2848 -0.5429 -0.7353
 3665TIP3    H232411   4.779   0.939   6.298  0.4975 -0.2419 -1.2711
 3666TIP3   OH232412   1.400   5.106   3.457 -0.1482  0.4106 -0.3341
 3666TIP3    H132413   1.339   5.179   3.466 -0.1291  0.3404  0.3971
 3666TIP3    H232414   1.486   5.145   3.473 -0.0817  0.3292 -0.4860
 3667TIP3   OH232415   2.996   0.059   1.790 -0.2327  0.3773  0.7489
 3667TIP3    H132416   3.086   0.026   1.782 -0.1810  0.3741  1.3255
 3667TIP3    H232417   2.942  -0.019   1.792 -0.1786  0.3499  1.2477
 3668TIP3   OH232418   5.761   4.247   5.322 -0.6859  0.9968  0.1439
 3668TIP3    H132419   5.847   4.224   5.358 -1.0528  1.5421  1.4251
 3668TIP3    H232420   5.737   4.328   5.367 -1.5924  1.1940 -0.6682
 3669TIP3   OH232421   0.106   4.294   0.769  0.1080 -0.9800 -0.5757
 3669TIP3    H132422   0.175   4.250   0.718 -0.4002 -2.5275  0.0038
 3669TIP3    H232423   0.113   4.255   0.856 -1.1703 -0.8050 -0.3800
 3670TIP3   OH232424   5.992   1.372   5.202  0.2293 -0.0652 -0.2319
 3670TIP3    H132425   6.035   1.446   5.243  0.5133  0.6132 -1.6943
 3670TIP3    H232426   6.044   1.296   5.230  1.4251  0.5605 -0.6574
 3671TIP3   OH232427   5.201   6.234  10.837 -0.3820  0.4858 -0.6238
 3671TIP3    H132428   5.128   6.204  10.782 -0.9405  1.0752 -0.2251
 3671TIP3    H232429   5.193   6.182  10.917  0.9693 -1.0197 -1.4052
 3672TIP3   OH232430   0.382   0.551  15.200 -0.2080 -0.4438  0.5726
 3672TIP3    H132431   0.332   0.475  15.228 -0.8191 -0.1560  0.2902
 3672TIP3    H232432   0.318   0.607  15.156 -0.1791  1.0521  2.3097
 3673TIP3   OH232433   3.167   3.111  13.454 -0.2080 -0.0102  0.0678
 3673TIP3    H132434   3.083   3.067  13.446 -0.4542  0.0129  2.0132
 3673TIP3    H232435   3.146   3.203  13.470  0.1628 -0.0176  0.6545
 3674TIP3   OH232436   4.091   2.176   0.037  0.2171 -0.3727  0.3741
 3674TIP3    H132437   4.026   2.246   0.046  0.4874  0.3212 -2.0883
 3674TIP3    H232438   4.175   2.220   0.049  0.3249 -0.9709  2.0472
 3675TIP3   OH232439   1.298   0.265  15.615  0.3731 -0.1321 -0.3989
 3675TIP3    H132440   1.357   0.307  15.552  3.1480 -1.6513  1.0124
 3675TIP3    H232441   1.251   0.199  15.564 -0.6421  1.4745 -1.6696
 3676TIP3   OH232442   2.909   5.883  11.333 -0.1491 -0.1768  0.1623
 3676TIP3    H132443   2.951   5.877  11.419 -0.1828 -0.0914  0.1838
 3676TIP3    H232444   2.976   5.850  11.273 -0.4519 -1.1192  0.3185
 3677TIP3   OH232445   3.717   5.859  12.388 -0.6328 -0.1144  0.4336
 3677TIP3    H132446   3.711   5.797  12.315  0.2515  0.3506 -0.0465
 3677TIP3    H232447   3.682   5.811  12.463  2.2016 -2.1203  0.6447
 3678TIP3   OH232448   5.901   4.056  11.493  0.5859  0.0692  0.1545
 3678TIP3    H132449   5.991   4.038  11.522  1.4442  1.5047 -1.4539
 3678TIP3    H232450   5.902   4.040  11.399 -0.2346  2.1732 -0.2714
 3679TIP3   OH232451   0.854   4.122   0.110  0.2092 -0.1212  0.5742
 3679TIP3    H132452   0.879   4.097   0.021  2.3252  1.9961  0.4659
 3679TIP3    H232453   0.796   4.197   0.099  0.7246  0.3442  0.9478
 3680TIP3   OH232454   1.612   5.735   1.913  0.1394 -0.4138  0.0118
 3680TIP3    H132455   1.658   5.745   1.830  1.3886 -0.0759  0.7212
 3680TIP3    H232456   1.660   5.790   1.974 -1.5499  0.3847  0.6853
 3681TIP3   OH232457   2.749   0.361   3.562 -0.1608  0.0071  0.0942
 3681TIP3    H132458   2.666   0.326   3.531 -1.3143  1.4489  1.4149
 3681TIP3    H232459   2.732   0.454   3.578  1.7165  0.3455  0.3529
 3682TIP3   OH232460   3.785   0.005   0.881 -0.4105 -0.5910 -0.5947
 3682TIP3    H132461   3.873  -0.021   0.908 -0.1188 -0.2524 -1.1930
 3682TIP3    H232462   3.741   0.029   0.963 -0.1628 -1.3755 -0.2213
 3683TIP3   OH232463   2.255   5.517   4.414  0.2838 -0.5874  0.4138
 3683TIP3    H132464   2.272   5.496   4.323  0.0404  0.6336  0.0672
 3683TIP3    H232465   2.160   5.531   4.418  0.2762 -0.7614  0.8762
 3684TIP3   OH232466   4.173   5.696   5.307  0.3440  0.1751 -0.8594
 3684TIP3    H132467   4.151   5.628   5.371 -0.5041  1.6291  0.4991
 3684TIP3    H232468   4.092   5.709   5.258  0.5318  0.1201 -1.1793
 3685TIP3   OH232469   3.596   5.090  14.165 -0.2547 -0.0613  0.4578
 3685TIP3    H132470   3.674   5.124  14.209 -1.4202  1.0538  1.7875
 3685TIP3    H232471   3.585   5.001  14.200  0.3501 -0.1820  0.3444
 3686TIP3   OH232472   1.806   6.519   3.979  0.2753 -0.6064 -0.3398
 3686TIP3    H132473   1.744   6.447   3.966  0.2140 -0.4756 -0.7817
 3686TIP3    H232474   1.838   6.540   3.891  0.3359 -0.1366 -0.2083
 3687TIP3   OH232475   6.524   3.801  13.433  0.2842 -0.1155 -0.0755
 3687TIP3    H132476   6.512   3.757  13.349  0.7528  2.0087 -1.3089
 3687TIP3    H232477   6.566   3.884  13.412 -1.2219  1.3027  2.0539
 3688TIP3   OH232478   6.714   1.371   5.892  0.1818  0.1644 -0.2761
 3688TIP3    H132479   6.784   1.365   5.827  0.2956 -1.1179 -0.0629
 3688TIP3    H232480   6.743   1.315   5.964 -0.1443  1.2133  0.7088
 3689TIP3   OH232481   1.343   2.074   1.059  0.1612 -0.2458  0.4944
 3689TIP3    H132482   1.296   2.157   1.065  1.5518  0.6696 -0.5395
 3689TIP3    H232483   1.427   2.090   1.101  1.7550 -0.0385 -2.5103
 3690TIP3   OH232484   4.909   3.696   2.953 -0.6238 -0.0426  0.5291
 3690TIP3    H132485   4.950   3.627   2.901  1.6302  0.6062  1.3418
 3690TIP3    H232486   4.906   3.660   3.042  2.9362  1.6649  1.5246
 3691TIP3   OH232487   1.505   3.675  12.419  0.2504  0.1366  0.2557
 3691TIP3    H132488   1.441   3.727  12.468  0.4496  1.1377 -0.4984
 3691TIP3    H232489   1.561   3.637  12.486 -0.7945 -0.3259  0.9033
 3692TIP3   OH232490   6.569   4.849   0.610 -0.2283  0.1672  0.1548
 3692TIP3    H132491   6.552   4.919   0.546 -1.5687  1.5063  1.8722
 3692TIP3    H232492   6.522   4.773   0.575 -0.1837  0.5965 -0.8888
 3693TIP3   OH232493   5.700   4.578   2.208  0.4394  0.3322 -0.4020
 3693TIP3    H132494   5.733   4.637   2.276  1.4622  0.3085 -0.8504
 3693TIP3    H232495   5.749   4.497   2.221 -0.4846 -0.2082 -0.2023
 3694TIP3   OH232496   1.816   1.710   5.042  0.4510 -0.3537 -0.7015
 3694TIP3    H132497   1.875   1.637   5.061  0.2925 -0.3651 -0.2434
 3694TIP3    H232498   1.779   1.734   5.127  1.0106  0.6914 -0.7338
 3695TIP3   OH232499   2.389   3.333  17.308  0.4705  0.1394  0.1895
 3695TIP3    H132500   2.453   3.292  17.366  0.0686  0.8353  1.1559
 3695TIP3    H232501   2.436   3.406  17.268  0.9505 -0.7476 -0.9179
 3696TIP3   OH232502   1.010   1.254   6.067 -0.6110 -0.4010 -0.1836
 3696TIP3    H132503   1.050   1.341   6.076  0.3104 -0.6669 -1.5056
 3696TIP3    H232504   1.024   1.212   6.152 -0.2601  0.4128  0.1727
 3697TIP3   OH232505   4.313   0.755   3.712 -0.0274 -0.0251  0.1722
 3697TIP3    H132506   4.269   0.683   3.757 -1.5379  0.7770  0.0259
 3697TIP3    H232507   4.331   0.722   3.624 -1.5339  0.0551 -0.1864
 3698TIP3   OH232508   4.313   6.669   0.612  0.5923 -0.3745 -0.2095
 3698TIP3    H132509   4.358   6.602   0.664  0.6549 -0.0865  0.1109
 3698TIP3    H232510   4.272   6.620   0.542  0.0958 -0.8343  0.3877
 3699TIP3   OH232511   0.881   6.387   5.820  0.7923 -0.0354 -0.4589
 3699TIP3    H132512   0.857   6.441   5.895  0.3593 -0.0032 -0.6210
 3699TIP3    H232513   0.930   6.314   5.857 -0.4650 -0.6735 -0.0040
 3700TIP3   OH232514   0.571   5.351   1.382  0.3714 -0.1494 -0.1352
 3700TIP3    H132515   0.491   5.328   1.430  1.2329 -0.1593  1.3723
 3700TIP3    H232516   0.627   5.392   1.448  1.8950 -0.7955 -0.9764
 3701TIP3   OH232517   1.091   5.587  13.069  0.1346  0.0662  0.0258
 3701TIP3    H132518   1.003   5.593  13.031 -0.3911 -1.3842  0.9604
 3701TIP3    H232519   1.150   5.613  12.998 -1.0010  0.3652 -0.8239
 3702TIP3   OH232520   4.487   1.663   3.949 -0.2977 -0.3311 -0.6313
 3702TIP3    H132521   4.565   1.644   4.001 -0.8778 -1.1326 -0.0202
 3702TIP3    H232522   4.515   1.654   3.858  0.6208  0.6348 -0.4550
 3703TIP3   OH232523   2.910   0.134   1.463  0.2343 -0.0927  0.3205
 3703TIP3    H132524   2.979   0.106   1.523  0.6088  0.4037  0.1260
 3703TIP3    H232525   2.956   0.175   1.390 -0.2367 -0.3291 -0.1240
 3704TIP3   OH232526   4.614   4.762   3.526 -0.1269  0.5043 -0.3056
 3704TIP3    H132527   4.550   4.791   3.461 -1.5556 -1.9762 -0.1161
 3704TIP3    H232528   4.577   4.788   3.610 -0.2804  0.1518 -0.2636
 3705TIP3   OH232529   0.348   2.800   0.625 -0.5276  0.3165  0.5442
 3705TIP3    H132530   0.325   2.730   0.686 -0.9124  0.1480  0.2117
 3705TIP3    H232531   0.366   2.755   0.543 -0.7733  0.6125  0.3297
 3706TIP3   OH232532   3.691   0.592   3.116 -0.4297  0.6597  0.2064
 3706TIP3    H132533   3.748   0.515   3.106 -0.8551  0.3542  0.0914
 3706TIP3    H232534   3.751   0.664   3.134 -0.0693  0.1828  0.9652
 3707TIP3   OH232535   4.125   1.749   0.383  0.3888  0.3514  0.2925
 3707TIP3    H132536   4.082   1.680   0.434  0.9861 -0.7166 -0.6161
 3707TIP3    H232537   4.111   1.829   0.435  1.5379 -0.7822  2.5031
 3708TIP3   OH232538   5.422   5.019  15.460  0.0051 -0.1078  0.5561
 3708TIP3    H132539   5.491   5.031  15.395  0.0184  0.9129  0.7405
 3708TIP3    H232540   5.381   5.105  15.467  0.5815  0.0452  2.5668
 3709TIP3   OH232541   5.274   5.544  15.845  0.2455 -0.3123  0.2782
 3709TIP3    H132542   5.226   5.582  15.919 -1.2469 -0.3772 -0.6379
 3709TIP3    H232543   5.303   5.459  15.878 -1.2050 -0.7462  0.5236
 3710TIP3   OH232544   1.809   3.310   4.613 -1.1782  0.0780 -0.3220
 3710TIP3    H132545   1.901   3.326   4.590 -0.9264 -0.0011  0.5995
 3710TIP3    H232546   1.786   3.383   4.671 -2.1020  0.8134 -1.5530
 3711TIP3   OH232547   6.730   3.599  12.647  0.2823  0.2290  0.2471
 3711TIP3    H132548   6.786   3.522  12.640 -0.5663 -0.3794 -0.0410
 3711TIP3    H232549   6.763   3.646  12.724  1.2586 -0.0411 -0.0000
 3712TIP3   OH232550   2.846   4.044  14.102 -0.2157 -0.7438  0.6663
 3712TIP3    H132551   2.934   4.075  14.081 -0.9803  0.9855 -0.1633
 3712TIP3    H232552   2.837   4.059  14.196 -0.4012  1.2601  0.3771
 3713TIP3   OH232553   5.392   0.310   3.871 -0.1564 -0.3476 -0.1062
 3713TIP3    H132554   5.378   0.399   3.902  1.3686  0.2069 -0.9312
 3713TIP3    H232555   5.414   0.320   3.779 -2.4217 -1.7871 -0.9061
 3714TIP3   OH232556   0.068   4.549  11.600 -0.1270  0.4286 -0.0756
 3714TIP3    H132557  -0.020   4.544  11.564 -0.6708 -0.1558  1.2725
 3714TIP3    H232558   0.118   4.599  11.534 -1.2230  0.0049 -1.2751
 3715TIP3   OH232559   1.113   2.005  15.753  0.0784 -0.1821 -0.3296
 3715TIP3    H132560   1.074   2.045  15.675 -0.2569  0.0186 -0.0687
 3715TIP3    H232561   1.083   2.061  15.825  0.2206 -0.4782 -0.0373
 3716TIP3   OH232562   0.186   5.812   5.316  0.0797  0.5277 -0.3108
 3716TIP3    H132563   0.267   5.850   5.351 -0.3116  0.7689  0.3559
 3716TIP3    H232564   0.214   5.730   5.276  0.6413  0.5366  0.0362
 3717TIP3   OH232565   5.609   0.574  12.127 -0.3022  0.0767  0.4479
 3717TIP3    H132566   5.684   0.615  12.084 -1.5145  1.1395 -0.7431
 3717TIP3    H232567   5.533   0.606  12.079 -1.5130 -1.3215  1.3257
 3718TIP3   OH232568   5.449   2.759  14.494 -0.3745 -0.3110 -0.1368
 3718TIP3    H132569   5.365   2.712  14.495 -0.5092 -0.1083 -1.1745
 3718TIP3    H232570   5.479   2.755  14.585 -1.0758 -1.1604  0.0781
 3719TIP3   OH232571   6.512   1.354   1.238 -0.6022  0.0163 -0.0762
 3719TIP3    H132572   6.583   1.407   1.202  1.1344 -2.2008 -0.1519
 3719TIP3    H232573   6.476   1.307   1.163 -2.1290  1.0078 -0.0177
 3720TIP3   OH232574   1.942   2.331  12.207 -0.4071  0.2202  0.1091
 3720TIP3    H132575   2.029   2.367  12.191 -0.9135  2.0770  1.1796
 3720TIP3    H232576   1.906   2.314  12.120  1.5964 -2.2072 -0.3500
 3721TIP3   OH232577   6.628   0.908   4.322 -0.0767 -0.6637  0.3400
 3721TIP3    H132578   6.576   0.833   4.352  2.5681 -2.8584 -0.1993
 3721TIP3    H232579   6.718   0.886   4.346  0.7649  2.6682  0.6812
 3722TIP3   OH232580   6.394   3.291  14.443 -0.2414  0.2009 -0.4010
 3722TIP3    H132581   6.313   3.268  14.398  1.0527 -1.9688 -1.8774
 3722TIP3    H232582   6.366   3.336  14.522 -2.8325  0.1061 -1.1627
 3723TIP3   OH232583   3.781   4.787   3.396  0.0219  0.2940  0.2242
 3723TIP3    H132584   3.750   4.751   3.479 -1.5984 -0.0797 -0.4993
 3723TIP3    H232585   3.810   4.876   3.417  0.6708 -0.1785  1.3736
 3724TIP3   OH232586   0.783   1.244   1.819 -0.2106 -0.0806 -0.5209
 3724TIP3    H132587   0.846   1.207   1.880 -1.1806 -1.0158 -0.0620
 3724TIP3    H232588   0.788   1.339   1.834 -0.9199 -0.3223  1.4984
 3725TIP3   OH232589   6.074   3.509   5.274 -0.3319  0.0714 -0.6199
 3725TIP3    H132590   6.050   3.506   5.181 -0.1176 -3.2449 -0.6982
 3725TIP3    H232591   6.162   3.472   5.277 -0.5142 -0.2946  0.9459
 3726TIP3   OH232592   0.801   3.738  17.029 -0.4673 -0.0662  0.3815
 3726TIP3    H132593   0.757   3.818  17.000  0.4485  0.0340 -0.8249
 3726TIP3    H232594   0.737   3.695  17.085 -0.7301  1.8509  1.6798
 3727TIP3   OH232595   2.163   3.739  12.504  0.0689  0.4805 -0.1245
 3727TIP3    H132596   2.217   3.777  12.435  0.7233 -0.6588 -0.2562
 3727TIP3    H232597   2.133   3.656  12.469  0.5998 -0.2270  1.0168
 3728TIP3   OH232598   5.038   2.238   1.687  0.0264  0.6195  0.2446
 3728TIP3    H132599   5.084   2.178   1.628 -1.1059 -0.2280  0.1827
 3728TIP3    H232600   5.019   2.314   1.633 -0.1879  0.2372 -0.2279
 3729TIP3   OH232601   2.007   1.314   1.633  0.4999 -0.3127 -0.2693
 3729TIP3    H132602   1.924   1.328   1.680 -0.1580  0.4162 -1.6120
 3729TIP3    H232603   1.984   1.320   1.541  2.2254  0.9225 -0.6669
 3730TIP3   OH232604   5.840   2.522   1.714 -0.3170 -0.2843 -0.2862
 3730TIP3    H132605   5.835   2.430   1.739  0.5782 -0.0196  0.9249
 3730TIP3    H232606   5.794   2.526   1.629 -2.6071 -1.3689  0.8054
 3731TIP3   OH232607   3.025   4.235   4.368  0.3762 -0.4148  0.8059
 3731TIP3    H132608   3.099   4.280   4.409  2.2112 -3.2051  0.8661
 3731TIP3    H232609   3.030   4.146   4.402 -1.4757 -1.3769 -1.2013
 3732TIP3   OH232610   6.352   4.863  15.344 -0.5300  0.6038  0.2177
 3732TIP3    H132611   6.305   4.874  15.261 -1.4776  0.5719  0.7393
 3732TIP3    H232612   6.300   4.912  15.408  0.6576  1.3406  0.6395
 3733TIP3   OH232613   6.725   3.274   3.088  0.5064 -0.2758  0.3177
 3733TIP3    H132614   6.796   3.219   3.055  0.7739  0.6102 -0.6352
 3733TIP3    H232615   6.765   3.360   3.099 -0.2776  0.0927  0.3231
 3734TIP3   OH232616   5.888   5.398   5.940 -0.2059  0.2751  0.6161
 3734TIP3    H132617   5.906   5.308   5.912 -1.2459  0.3530 -0.3590
 3734TIP3    H232618   5.934   5.406   6.024  0.4343 -0.9531  0.4160
 3735TIP3   OH232619   4.577   2.505   5.594  0.6917  0.5887  0.5618
 3735TIP3    H132620   4.579   2.413   5.619 -0.0659  0.6578  0.8759
 3735TIP3    H232621   4.641   2.547   5.652  0.1928  0.4540  1.2187
 3736TIP3   OH232622   0.055   3.777   0.094  0.3453 -0.0362 -0.5387
 3736TIP3    H132623   0.073   3.706   0.155 -0.4748  1.3580  1.4549
 3736TIP3    H232624  -0.010   3.742   0.034  0.3263 -1.1046  0.0824
 3737TIP3   OH232625   5.061   4.054  11.975 -0.5226  0.7653  0.0214
 3737TIP3    H132626   5.122   4.090  12.040 -0.1786 -0.6319  0.5237
 3737TIP3    H232627   5.008   4.128  11.947  0.9894  1.8931  0.0479
 3738TIP3   OH232628   4.369   3.055  17.009 -0.7819  0.3074 -0.3322
 3738TIP3    H132629   4.372   3.060  17.104 -0.0231 -1.4807 -0.2437
 3738TIP3    H232630   4.337   3.142  16.982 -0.4392  1.0441  1.4964
 3739TIP3   OH232631   4.818   4.679  13.338 -0.4395  0.4799  0.0570
 3739TIP3    H132632   4.837   4.754  13.282  0.4246 -1.7352 -2.8603
 3739TIP3    H232633   4.736   4.643  13.303 -0.2220 -0.6307  0.6465
 3740TIP3   OH232634   3.708   6.531  12.940  0.1291  0.2246  0.0505
 3740TIP3    H132635   3.685   6.617  12.975  2.2201  0.8180  0.1223
 3740TIP3    H232636   3.642   6.472  12.975 -0.6471  1.5984  0.9947
 3741TIP3   OH232637   3.788   5.559   4.466 -0.3706 -0.0189 -0.4609
 3741TIP3    H132638   3.830   5.576   4.381  1.6196  2.6527  0.8906
 3741TIP3    H232639   3.696   5.548   4.445 -0.1493  1.8380 -2.9197
 3742TIP3   OH232640   6.432   0.419  14.960  0.7104  0.2134  0.1968
 3742TIP3    H132641   6.509   0.371  14.990  2.1258  2.6159  0.6625
 3742TIP3    H232642   6.440   0.418  14.864  1.1744  0.2184  0.2318
 3743TIP3   OH232643   1.269   2.691  14.467  0.3280 -0.7744 -0.2380
 3743TIP3    H132644   1.316   2.648  14.397 -0.5560  0.2946 -1.5487
 3743TIP3    H232645   1.259   2.782  14.437 -0.4004 -0.3823  1.0901
 3744TIP3   OH232646   6.620   2.419  13.929 -0.2676 -0.2373  0.5763
 3744TIP3    H132647   6.558   2.490  13.950 -0.1010 -0.0056  0.2834
 3744TIP3    H232648   6.613   2.360  14.004  1.8787  1.6353  2.4268
 3745TIP3   OH232649   2.948   1.259   3.567 -0.1221 -0.1688 -0.0723
 3745TIP3    H132650   2.896   1.312   3.506  1.0081  0.5026 -0.4814
 3745TIP3    H232651   2.896   1.258   3.647 -0.1736  1.6301 -0.0298
 3746TIP3   OH232652   6.359   1.086   3.580 -0.0815  0.0162 -0.2127
 3746TIP3    H132653   6.450   1.098   3.552 -0.3197  0.4963 -0.7881
 3746TIP3    H232654   6.315   1.168   3.557 -0.7113 -0.2909 -0.1288
 3747TIP3   OH232655   0.552   2.296   5.735  0.3484  0.2482  0.2244
 3747TIP3    H132656   0.558   2.341   5.651  0.9074 -0.1523  0.0404
 3747TIP3    H232657   0.643   2.289   5.764  0.2543 -0.6293  0.3180
 3748TIP3   OH232658   0.379   2.574   2.287 -0.1455  0.3710  0.3082
 3748TIP3    H132659   0.403   2.614   2.204 -0.6359 -0.4506 -0.2369
 3748TIP3    H232660   0.291   2.607   2.306 -0.5799 -0.4630 -0.1767
 3749TIP3   OH232661   2.651   5.787  12.520  0.0288  0.2667  0.2264
 3749TIP3    H132662   2.578   5.784  12.458 -1.0923  1.2942  1.4339
 3749TIP3    H232663   2.729   5.784  12.465 -0.9178  1.5501 -1.2725
 3750TIP3   OH232664   6.065   3.447   0.798 -0.1222  0.1494 -0.3779
 3750TIP3    H132665   6.012   3.498   0.859  0.0398 -0.3087  0.1614
 3750TIP3    H232666   6.097   3.373   0.851 -0.3071 -0.4769 -1.1250
 3751TIP3   OH232667   5.302   5.085   0.310  0.8071  0.1396  0.3833
 3751TIP3    H132668   5.214   5.108   0.338  0.9502 -1.2867  2.2038
 3751TIP3    H232669   5.294   5.070   0.215 -1.1872 -1.1286  0.6913
 3752TIP3   OH232670   2.062   5.205  15.698 -0.2967 -0.2028 -1.1301
 3752TIP3    H132671   2.054   5.154  15.617 -2.5594 -0.3049 -0.8951
 3752TIP3    H232672   2.065   5.139  15.767  1.6282 -0.1152 -1.0713
 3753TIP3   OH232673   6.411   1.444   6.032  0.2279 -0.3476 -0.3570
 3753TIP3    H132674   6.455   1.518   5.991  0.7155 -0.6924 -0.4660
 3753TIP3    H232675   6.325   1.478   6.058  1.1002  0.7511  1.2308
 3754TIP3   OH232676   6.156   0.751  13.789  0.4583  0.3459 -0.5131
 3754TIP3    H132677   6.125   0.732  13.878  1.6392 -0.0979 -0.1789
 3754TIP3    H232678   6.169   0.664  13.750  0.3913  0.5356 -0.9596
 3755TIP3   OH232679   4.904   2.309   0.658  0.5793  0.0005 -0.0927
 3755TIP3    H132680   4.900   2.312   0.753  0.8453 -0.0326 -0.0788
 3755TIP3    H232681   4.906   2.215   0.637  2.9967 -0.0324 -0.0039
 3756TIP3   OH232682   2.683   5.038   3.482  0.3033  0.1454  0.6623
 3756TIP3    H132683   2.625   5.005   3.412  2.5312 -1.0934 -0.7230
 3756TIP3    H232684   2.650   5.125   3.501 -1.8609 -0.4129 -0.2135
 3757TIP3   OH232685   4.629   0.834  11.868 -0.0919  0.4442 -0.1360
 3757TIP3    H132686   4.651   0.830  11.775 -1.2779 -2.5125 -0.4142
 3757TIP3    H232687   4.544   0.876  11.871 -0.2376  0.1747 -0.4418
 3758TIP3   OH232688   5.618   5.160  11.755  0.0470  0.0123 -0.2220
 3758TIP3    H132689   5.712   5.140  11.757 -0.0600 -0.5162 -0.2888
 3758TIP3    H232690   5.581   5.092  11.699 -0.4792 -0.2135  0.4006
 3759TIP3   OH232691   1.007   4.416  12.766  0.6341  0.7316 -0.5142
 3759TIP3    H132692   0.981   4.492  12.818  0.2807  0.8559 -0.8692
 3759TIP3    H232693   1.094   4.438  12.732  2.3270 -0.6278  2.5736
 3760TIP3   OH232694   3.049   2.306   5.802  0.1373  0.2320 -0.3787
 3760TIP3    H132695   2.977   2.352   5.844 -1.5225  0.4031 -3.1210
 3760TIP3    H232696   3.012   2.222   5.774  1.5257 -0.4326 -0.3346
 3761TIP3   OH232697   4.229   2.754  11.751 -0.7443 -0.1317 -0.0235
 3761TIP3    H132698   4.191   2.831  11.709 -1.2126  0.3226  1.2068
 3761TIP3    H232699   4.161   2.687  11.743  0.7557 -1.4677 -3.8113
 3762TIP3   OH232700   2.862   0.860  13.019  0.0936  0.1298 -0.0336
 3762TIP3    H132701   2.948   0.852  13.060  0.1595 -0.3303 -0.2502
 3762TIP3    H232702   2.857   0.785  12.959 -0.4545  0.1534 -0.0239
 3763TIP3   OH232703   4.560   4.155  13.899  0.4871 -0.2534 -1.1618
 3763TIP3    H132704   4.651   4.147  13.928  1.4856 -0.7263 -4.1201
 3763TIP3    H232705   4.565   4.206  13.819 -1.9636  0.2084 -1.0813
 3764TIP3   OH232706   2.116   5.857   3.897 -0.2246  0.0814  0.0451
 3764TIP3    H132707   2.044   5.916   3.917 -0.9484 -0.6911 -0.2277
 3764TIP3    H232708   2.078   5.790   3.840  0.1179 -1.6641  1.7763
 3765TIP3   OH232709   1.126   0.957  12.553 -0.1417  0.6415 -0.0735
 3765TIP3    H132710   1.106   0.868  12.524 -0.1903  0.6471 -0.0575
 3765TIP3    H232711   1.050   0.984  12.605  0.1304  0.4669  0.4262
 3766TIP3   OH232712   5.164   6.127  16.948 -0.3410  0.0302 -0.1382
 3766TIP3    H132713   5.160   6.130  17.044  0.5656 -0.3786 -0.0716
 3766TIP3    H232714   5.166   6.219  16.921  1.1377  0.1785  0.3506
 3767TIP3   OH232715   5.102   6.044   3.378 -0.6149  0.5119 -0.0612
 3767TIP3    H132716   5.103   6.020   3.285  3.0249 -1.0749  0.2160
 3767TIP3    H232717   5.095   6.140   3.378  0.5524  0.6516 -2.0750
 3768TIP3   OH232718   3.812   1.760  13.756  0.3581 -0.5698 -0.8506
 3768TIP3    H132719   3.900   1.737  13.725  0.0776  1.2295 -3.2963
 3768TIP3    H232720   3.754   1.719  13.692 -0.4714  0.1999 -0.5978
 3769TIP3   OH232721   5.203   1.447   0.974 -0.1473 -0.3080 -0.5418
 3769TIP3    H132722   5.272   1.429   0.910 -1.6223 -3.9051 -1.3891
 3769TIP3    H232723   5.150   1.516   0.933  1.3856  0.5852 -1.1028
 3770TIP3   OH232724   2.525   2.342  15.735  0.2603  0.6121  0.0100
 3770TIP3    H132725   2.478   2.375  15.659  0.3853 -0.3417 -0.5076
 3770TIP3    H232726   2.593   2.286  15.698  1.2039  1.2232  0.7834
 3771TIP3   OH232727   0.286   0.113  14.985 -0.4035  0.1184  0.3479
 3771TIP3    H132728   0.216   0.175  14.966 -1.1870 -0.7813  0.2503
 3771TIP3    H232729   0.352   0.165  15.031 -0.5281  1.2853 -0.7273
 3772TIP3   OH232730   1.155   3.393  14.732  0.3743  0.5733 -0.5560
 3772TIP3    H132731   1.213   3.424  14.662  1.2426  0.5792  0.1480
 3772TIP3    H232732   1.070   3.433  14.713  1.0257  1.9467 -0.6676
 3773TIP3   OH232733   5.196   5.039  11.726 -0.3720  0.2775  0.1381
 3773TIP3    H132734   5.237   5.014  11.643 -0.6733 -0.9742  0.3496
 3773TIP3    H232735   5.119   5.091  11.701 -0.2567  0.2093 -0.3528
 3774TIP3   OH232736   3.970   1.537   4.975  0.3108  0.0056  0.0841
 3774TIP3    H132737   3.885   1.506   4.945 -0.4775  2.6147 -0.6223
 3774TIP3    H232738   4.001   1.593   4.904  1.9575  0.2560  0.9548
 3775TIP3   OH232739   5.508   2.441  10.730  0.0289  0.5193  0.2427
 3775TIP3    H132740   5.589   2.390  10.724  0.0611  0.7426 -1.5733
 3775TIP3    H232741   5.442   2.378  10.759 -0.3334 -1.1773 -3.6340
 3776TIP3   OH232742   5.857   6.710   0.521 -0.2775 -0.0429  0.2527
 3776TIP3    H132743   5.780   6.715   0.465 -0.5208 -0.2610  0.5655
 3776TIP3    H232744   5.827   6.666   0.600 -0.4114  1.9185  1.3611
 3777TIP3   OH232745   4.201   0.303  12.272 -0.0440  0.0967 -0.0740
 3777TIP3    H132746   4.231   0.215  12.252  0.8102  0.2221  0.6237
 3777TIP3    H232747   4.106   0.294  12.280 -0.3006 -0.2563 -2.5210
 3778TIP3   OH232748   6.196   4.355  11.336 -0.0434 -0.5119 -0.2702
 3778TIP3    H132749   6.179   4.447  11.317  0.2910  0.0533  1.9348
 3778TIP3    H232750   6.241   4.323  11.257  0.8866  1.5194 -0.6426
 3779TIP3   OH232751   2.851   5.364  13.884 -0.1477 -0.0533 -0.0380
 3779TIP3    H132752   2.884   5.453  13.866 -0.5785  0.0697 -0.2329
 3779TIP3    H232753   2.780   5.352  13.821  0.3094 -0.7745 -0.4178
 3780TIP3   OH232754   4.118   5.108  11.539 -0.1651  0.4137  0.3531
 3780TIP3    H132755   4.041   5.145  11.584  0.6107  1.6096  0.7259
 3780TIP3    H232756   4.159   5.052  11.606 -1.5934 -1.6101 -0.3489
 3781TIP3   OH232757   1.479   2.397   0.263 -0.1102  0.0145 -0.1809
 3781TIP3    H132758   1.513   2.400   0.174 -1.1961 -0.2109 -0.6096
 3781TIP3    H232759   1.524   2.322   0.303  0.2759  0.0323 -0.5710
 3782TIP3   OH232760   5.902   1.751   4.710  0.2304  0.2127  0.6087
 3782TIP3    H132761   5.892   1.656   4.710  0.5795  0.1517  1.9096
 3782TIP3    H232762   5.828   1.783   4.659  0.3561 -0.7695 -0.2242
 3783TIP3   OH232763   2.188   0.194  10.710 -0.0552 -0.2284  0.0831
 3783TIP3    H132764   2.213   0.196  10.618  3.0413  0.3952  0.8490
 3783TIP3    H232765   2.143   0.110  10.721 -1.0779 -0.0291 -2.0700
 3784TIP3   OH232766   1.227   2.851   4.293  0.5743 -0.8395  0.1037
 3784TIP3    H132767   1.167   2.793   4.340  2.2182 -2.4444  0.3412
 3784TIP3    H232768   1.314   2.826   4.324  1.5274  0.0209 -1.7129
 3785TIP3   OH232769   0.271   3.265   3.161  0.4532  0.1729 -0.0113
 3785TIP3    H132770   0.356   3.307   3.173  1.0315 -1.4098  1.9063
 3785TIP3    H232771   0.232   3.311   3.087  2.2859  2.0172  0.0871
 3786TIP3   OH232772   1.252   4.798  16.536  0.0237  0.1779 -0.1000
 3786TIP3    H132773   1.213   4.885  16.546  4.1282  2.1179  1.3529
 3786TIP3    H232774   1.276   4.792  16.444 -0.3307  0.5684 -0.2194
 3787TIP3   OH232775   2.211   2.886  13.553 -0.4642 -0.3699  0.2041
 3787TIP3    H132776   2.158   2.834  13.614  1.6540 -1.2955  1.3294
 3787TIP3    H232777   2.219   2.830  13.476 -0.4848 -0.5380  0.3232
 3788TIP3   OH232778   6.329   5.672  12.903  0.0511 -0.1484  0.4940
 3788TIP3    H132779   6.384   5.697  12.829 -1.5948 -0.7233 -0.9906
 3788TIP3    H232780   6.317   5.753  12.952  0.6546  0.3913 -0.2303
 3789TIP3   OH232781   2.364   5.655   1.018  0.1702  0.4897 -0.1176
 3789TIP3    H132782   2.332   5.623   1.103 -0.6869 -2.0944 -1.3234
 3789TIP3    H232783   2.294   5.635   0.957  1.6331  0.3346 -1.8132
 3790TIP3   OH232784   5.187   3.087  11.968 -0.0581 -0.4891 -0.1225
 3790TIP3    H132785   5.271   3.084  11.923  1.0385 -0.8855  1.8904
 3790TIP3    H232786   5.132   3.026  11.918  0.7101  0.0242 -1.6566
 3791TIP3   OH232787   3.363   3.959  15.222  0.4993  0.3072 -0.1078
 3791TIP3    H132788   3.367   3.910  15.304  0.0808  0.2620 -0.1111
 3791TIP3    H232789   3.315   3.902  15.162  0.8839  0.3014 -0.4123
 3792TIP3   OH232790   0.163   2.388  14.434  0.0255  0.2671  0.5799
 3792TIP3    H132791   0.160   2.406  14.340  0.6722  0.5193  0.5982
 3792TIP3    H232792   0.242   2.434  14.464  0.1508 -0.2979  1.1377
 3793TIP3   OH232793   2.504   1.887  10.392  0.3365  0.6403  0.3360
 3793TIP3    H132794   2.511   1.974  10.431  2.4043  0.1440  1.1961
 3793TIP3    H232795   2.594   1.860  10.378 -0.2900 -1.0759 -0.6292
 3794TIP3   OH232796   4.813   0.689  14.283  0.9425  0.3657 -0.2152
 3794TIP3    H132797   4.781   0.778  14.270  1.9737  0.6427 -0.9969
 3794TIP3    H232798   4.907   0.694  14.266  0.7281 -1.2498 -2.2655
 3795TIP3   OH232799   5.828   2.344   3.378 -0.3443  0.3690 -0.3659
 3795TIP3    H132800   5.794   2.362   3.465  1.5909  0.8589  0.3335
 3795TIP3    H232801   5.902   2.403   3.368  0.5555 -0.8997 -1.6358
 3796TIP3   OH232802   2.979   4.334   2.990 -0.2261 -0.1957 -0.5990
 3796TIP3    H132803   2.962   4.288   2.908  0.6903 -0.0401 -0.8850
 3796TIP3    H232804   3.059   4.385   2.973  1.1861 -1.7496  1.0274
 3797TIP3   OH232805   1.254   3.948   3.597 -0.0200 -0.1703  0.0383
 3797TIP3    H132806   1.229   4.007   3.527  1.0551  0.2151 -0.0383
 3797TIP3    H232807   1.312   4.000   3.653  1.5007 -1.3172 -0.3949
 3798TIP3   OH232808   1.889   1.083  10.269 -0.4613 -0.3376  0.1063
 3798TIP3    H132809   1.868   0.991  10.287 -0.2019 -0.8067 -1.8566
 3798TIP3    H232810   1.984   1.085  10.261 -0.3719  0.3177  1.1521
 3799TIP3   OH232811   1.601   3.206  16.563  0.1667  0.0678  0.1274
 3799TIP3    H132812   1.608   3.173  16.473  1.6713  0.6563  0.0085
 3799TIP3    H232813   1.621   3.130  16.617  0.4590 -0.0027 -0.0746
 3800TIP3   OH232814   6.503   6.371   0.262 -0.4880 -0.0312 -0.3691
 3800TIP3    H132815   6.534   6.368   0.171 -0.7334  0.9774 -0.4992
 3800TIP3    H232816   6.409   6.356   0.257 -0.6228  0.7691 -0.3655
 3801TIP3   OH232817   3.200   0.342  13.953  0.1493  0.1666  0.1002
 3801TIP3    H132818   3.205   0.436  13.970 -1.0709  0.0106  1.5154
 3801TIP3    H232819   3.277   0.323  13.899  0.5109  1.9335 -0.0556
 3802TIP3   OH232820   3.896   5.623  15.996 -0.0771 -0.1383  0.1910
 3802TIP3    H132821   3.837   5.698  15.990 -0.6080 -0.6325 -0.8899
 3802TIP3    H232822   3.917   5.617  16.089 -0.7001  0.8251  0.4106
 3803TIP3   OH232823   4.453   4.061   2.625  0.1860  0.1764  0.2560
 3803TIP3    H132824   4.358   4.071   2.621  0.1712 -0.2361 -0.8102
 3803TIP3    H232825   4.467   3.967   2.639  0.4352  0.0301 -0.8571
 3804TIP3   OH232826   5.008   4.347   1.468  0.4236 -0.2203 -0.0226
 3804TIP3    H132827   5.098   4.364   1.439  0.6591 -0.3383  0.6397
 3804TIP3    H232828   4.995   4.254   1.451  0.2290 -0.0907 -0.6346
 3805TIP3   OH232829   2.650   5.150  17.186 -0.4411 -0.4048 -0.2731
 3805TIP3    H132830   2.629   5.131  17.277 -1.0100 -0.4191 -0.4041
 3805TIP3    H232831   2.700   5.232  17.189  0.3942 -0.9103  0.1297
 3806TIP3   OH232832   5.911   4.578   5.271 -0.5479 -0.5882 -0.4306
 3806TIP3    H132833   5.949   4.508   5.218  0.4960  0.4497 -1.1188
 3806TIP3    H232834   5.955   4.570   5.356  1.0658  0.3817 -1.1107
 3807TIP3   OH232835   1.246   4.764   3.084 -0.1386 -0.6577  0.8555
 3807TIP3    H132836   1.260   4.852   3.049  2.0107 -1.0405  0.6093
 3807TIP3    H232837   1.309   4.757   3.156  2.3269 -3.1163 -1.2987
 3808TIP3   OH232838   4.941   3.305   0.318 -0.0003 -0.8067 -0.5373
 3808TIP3    H132839   4.855   3.344   0.337  0.6390  0.2125  0.4249
 3808TIP3    H232840   4.979   3.362   0.251  0.8860  0.2180  0.7795
 3809TIP3   OH232841   0.603   0.149  11.024  0.0615  0.3178 -0.0586
 3809TIP3    H132842   0.671   0.205  11.061 -0.5599  0.1970  1.3184
 3809TIP3    H232843   0.651   0.075  10.986  0.6848 -0.1664  1.5906
 3810TIP3   OH232844   0.855   3.953  15.371  0.5000 -0.0458 -0.3363
 3810TIP3    H132845   0.877   3.862  15.391  0.6796 -0.1574 -1.0111
 3810TIP3    H232846   0.760   3.955  15.370  0.3959  0.3511  2.2089
 3811TIP3   OH232847   2.234   6.307  15.810  0.4259 -0.0246  0.2752
 3811TIP3    H132848   2.155   6.262  15.779 -0.8305  1.5869  0.9651
 3811TIP3    H232849   2.202   6.370  15.875  2.2124  1.0624  0.1839
 3812TIP3   OH232850   1.973   6.677   1.276 -0.5410  0.0776 -0.0028
 3812TIP3    H132851   2.009   6.610   1.218 -0.3723 -0.2353  0.4569
 3812TIP3    H232852   2.004   6.760   1.240  0.7156 -0.1835  0.4340
 3813TIP3   OH232853   4.939   3.399  12.268 -0.1098 -0.3711 -0.1769
 3813TIP3    H132854   4.975   3.482  12.234 -0.4627  0.4402  1.3392
 3813TIP3    H232855   4.986   3.331  12.220  1.7752  0.6924  0.0650
 3814TIP3   OH232856   3.308   1.170  17.169 -0.7182  0.3646 -0.7662
 3814TIP3    H132857   3.258   1.144  17.091  1.2273 -2.1154 -1.3356
 3814TIP3    H232858   3.313   1.265  17.164 -2.4051  0.4132 -2.5337
 3815TIP3   OH232859   5.602   6.485  11.893  0.0008  0.2247  0.3642
 3815TIP3    H132860   5.629   6.529  11.812 -1.1859  0.4528  0.0775
 3815TIP3    H232861   5.511   6.510  11.905 -0.7955 -2.2458  0.1177
 3816TIP3   OH232862   2.864   4.985  11.179  0.0974 -0.2870 -1.0059
 3816TIP3    H132863   2.772   4.961  11.166 -0.4691  1.0461  0.2804
 3816TIP3    H232864   2.889   5.029  11.098 -0.5065 -0.3494 -1.2314
 3817TIP3   OH232865   2.321   4.084   0.603  0.7651  0.0322  0.5636
 3817TIP3    H132866   2.231   4.115   0.592  1.2165  1.4185  0.6025
 3817TIP3    H232867   2.345   4.112   0.692  1.3292 -0.0865  0.4511
 3818TIP3   OH232868   4.859   0.353  16.305  0.2449  0.2852  0.1684
 3818TIP3    H132869   4.954   0.361  16.305  0.2769  0.2579 -1.4710
 3818TIP3    H232870   4.828   0.434  16.345  0.9459  0.4463  0.4034
 3819TIP3   OH232871   0.911   2.421  12.292 -0.7597  0.6482  0.1710
 3819TIP3    H132872   0.900   2.409  12.198 -0.5577 -0.8324  0.3109
 3819TIP3    H232873   0.996   2.464  12.301  0.9460 -2.3547 -0.2252
 3820TIP3   OH232874   0.232   1.388   2.841  0.3555 -0.2464 -0.4445
 3820TIP3    H132875   0.220   1.314   2.780  2.2783 -1.0421  0.0613
 3820TIP3    H232876   0.254   1.346   2.924  0.1490  0.8898  0.1913
 3821TIP3   OH232877   0.423   4.614   0.489 -0.5242  0.3623  0.6043
 3821TIP3    H132878   0.392   4.684   0.433 -0.9278 -0.2038  0.1072
 3821TIP3    H232879   0.445   4.657   0.572  0.3956  1.2564 -0.0811
 3822TIP3   OH232880   5.460   3.321  13.131  0.0257  0.2585  0.3831
 3822TIP3    H132881   5.456   3.410  13.095 -3.6688  0.1337  0.1698
 3822TIP3    H232882   5.370   3.301  13.156  0.5434 -3.7904 -0.3789
 3823TIP3   OH232883   1.201   1.498   1.209  0.1558 -0.3233 -0.3633
 3823TIP3    H132884   1.161   1.580   1.239 -1.1916 -0.7502 -0.9201
 3823TIP3    H232885   1.229   1.454   1.289 -2.6571 -1.0888  0.2761
 3824TIP3   OH232886   2.400   0.254  11.511  0.1820  0.0287  0.1531
 3824TIP3    H132887   2.436   0.175  11.470 -0.6507 -0.5614  0.5290
 3824TIP3    H232888   2.458   0.270  11.586  0.1805 -0.4016  0.2488
 3825TIP3   OH232889   5.643   0.997  12.897  0.1541 -0.0637  0.1572
 3825TIP3    H132890   5.640   0.928  12.831 -0.5447  1.6937 -1.7375
 3825TIP3    H232891   5.576   0.971  12.961  0.4762 -1.5291 -0.0627
 3826TIP3   OH232892   1.786   6.289  12.459  0.0916  0.1742  0.2622
 3826TIP3    H132893   1.772   6.343  12.382 -0.4551  2.6314  1.9507
 3826TIP3    H232894   1.796   6.200  12.425 -0.8500  1.0326 -2.5319
 3827TIP3   OH232895   2.555   1.101   1.112 -0.1670 -0.0423  0.5524
 3827TIP3    H132896   2.547   1.013   1.147 -0.4852 -1.0983 -1.9811
 3827TIP3    H232897   2.478   1.112   1.056  0.4563  1.3941 -0.0710
 3828TIP3   OH232898   2.512   2.829   3.381 -0.8120  0.3027  0.0069
 3828TIP3    H132899   2.474   2.742   3.394  1.1908 -0.8625 -1.3607
 3828TIP3    H232900   2.459   2.886   3.436 -0.7847 -2.1100  2.8069
 3829TIP3   OH232901   0.569   4.625   5.703  0.2916  0.3096 -0.1749
 3829TIP3    H132902   0.614   4.693   5.654  0.0877  1.5206  1.2622
 3829TIP3    H232903   0.624   4.609   5.779 -1.9713  2.4421  2.1023
 3830TIP3   OH232904   1.744   4.464  14.037  0.4830 -0.0376 -0.1029
 3830TIP3    H132905   1.811   4.429  13.979  0.2931  1.0706 -1.0250
 3830TIP3    H232906   1.793   4.510  14.105  0.6847  1.0321 -0.9421
 3831TIP3   OH232907   2.077   5.151  16.033  0.3598 -0.1490  0.0132
 3831TIP3    H132908   2.116   5.238  16.045  0.7819 -0.5468  1.8775
 3831TIP3    H232909   2.014   5.143  16.105  0.6542 -1.5618  0.1432
 3832TIP3   OH232910   3.055   4.639   4.852  0.7364 -0.2190  0.4492
 3832TIP3    H132911   3.140   4.671   4.883 -0.1321  3.0592 -0.1811
 3832TIP3    H232912   3.051   4.665   4.761 -1.5797  1.2657  0.8979
 3833TIP3   OH232913   5.360   5.032   1.804 -0.7919  0.0452  0.2357
 3833TIP3    H132914   5.365   4.965   1.871 -0.5385 -0.1131  0.0605
 3833TIP3    H232915   5.267   5.038   1.783 -0.7527 -0.7390 -0.2298
 3834TIP3   OH232916   4.249   0.172  11.655 -0.5918  0.3788  0.2516
 3834TIP3    H132917   4.250   0.145  11.563  2.5350 -0.4765  0.4074
 3834TIP3    H232918   4.298   0.255  11.656 -0.6148  0.3971  1.1588
 3835TIP3   OH232919   4.243   1.432  14.851  0.2571  0.5817 -0.1593
 3835TIP3    H132920   4.321   1.377  14.849  0.2478  0.5647 -0.0704
 3835TIP3    H232921   4.271   1.516  14.814  0.8942  1.3080  1.8201
 3836TIP3   OH232922   2.896   0.908  13.386 -0.9080 -0.7471  0.0078
 3836TIP3    H132923   2.969   0.919  13.446  0.2139  1.0993 -1.5794
 3836TIP3    H232924   2.933   0.856  13.314 -1.2867 -0.2353 -0.5635
 3837TIP3   OH232925   2.782   5.114   0.229  0.1893  0.0767 -0.1967
 3837TIP3    H132926   2.715   5.144   0.167 -0.7065 -0.3120  0.5521
 3837TIP3    H232927   2.812   5.194   0.273 -0.5713  0.1557  0.2110
 3838TIP3   OH232928   2.850   6.614   5.663 -0.2165  0.4918  0.2825
 3838TIP3    H132929   2.761   6.628   5.694 -0.0421  0.4167  0.8267
 3838TIP3    H232930   2.857   6.519   5.652  0.3686  0.2906  2.0459
 3839TIP3   OH232931   5.747   0.380  12.348  0.1484 -0.1308  0.0143
 3839TIP3    H132932   5.771   0.290  12.370 -2.8077 -0.8074  1.0623
 3839TIP3    H232933   5.696   0.373  12.267  1.5776  0.9165 -1.0195
 3840TIP3   OH232934   0.589   1.497  16.152 -0.9242 -0.1630  0.6686
 3840TIP3    H132935   0.666   1.442  16.170 -1.3251 -0.5837  1.1288
 3840TIP3    H232936   0.578   1.549  16.232  0.2423  1.5805 -0.2424
 3841TIP3   OH232937   3.548   5.757  11.388 -0.2760  0.3785  0.2202
 3841TIP3    H132938   3.486   5.819  11.428 -0.7340  1.1764 -1.6345
 3841TIP3    H232939   3.599   5.810  11.326  1.5987 -0.4731  0.9570
 3842TIP3   OH232940   5.026   1.771  13.582 -0.4515 -0.3545  0.1322
 3842TIP3    H132941   4.988   1.859  13.586 -0.2700 -0.3279  2.0003
 3842TIP3    H232942   4.994   1.727  13.661 -0.4343 -1.9459 -0.6923
 3843TIP3   OH232943   3.048   0.415  16.294  0.2143  0.3763  0.0765
 3843TIP3    H132944   3.081   0.404  16.205  0.0988  0.7725 -0.0189
 3843TIP3    H232945   2.953   0.400  16.286  0.1725  0.6335  0.0923
 3844TIP3   OH232946   2.773   2.627  14.953  0.1814  0.4753 -0.4703
 3844TIP3    H132947   2.750   2.588  14.869 -0.7781  2.0954 -1.0166
 3844TIP3    H232948   2.768   2.722  14.938  2.5525  0.8764  0.7379
 3845TIP3   OH232949   2.314   1.702   3.695 -0.5822  0.2252 -0.0332
 3845TIP3    H132950   2.343   1.672   3.781  0.1468  0.0896 -0.3194
 3845TIP3    H232951   2.393   1.700   3.641 -0.7350  1.6261 -0.3444
 3846TIP3   OH232952   5.623   1.022   5.506  0.0425  0.1919  0.1685
 3846TIP3    H132953   5.542   1.068   5.487  0.2311  0.0978 -0.9559
 3846TIP3    H232954   5.656   0.995   5.420  1.2190  0.1652  0.5992
 3847TIP3   OH232955   0.379   1.898   3.040  0.6241 -0.1139  0.0457
 3847TIP3    H132956   0.380   1.806   3.014  1.6540 -0.1478  0.1823
 3847TIP3    H232957   0.471   1.921   3.053  0.2735  0.3584  2.0352
 3848TIP3   OH232958   6.712   1.226  17.260 -0.5560  0.2642  0.3683
 3848TIP3    H132959   6.736   1.317  17.242  0.4076 -0.2683 -1.3159
 3848TIP3    H232960   6.618   1.228  17.276 -0.4145  1.6494  1.2071
 3849TIP3   OH232961   6.050   0.854   2.344 -0.2937  0.4199 -0.8446
 3849TIP3    H132962   6.099   0.781   2.382 -2.7341 -0.6422  0.4793
 3849TIP3    H232963   5.971   0.814   2.308 -1.8870  2.3994  0.2266
 3850TIP3   OH232964   0.120   4.728   5.610  0.6748  0.0064 -0.0922
 3850TIP3    H132965   0.088   4.721   5.700  0.9139 -1.6397 -0.1003
 3850TIP3    H232966   0.211   4.758   5.619  0.4656  0.5739  0.1661
 3851TIP3   OH232967   1.164   3.824  15.701 -0.3988 -0.1851 -0.6989
 3851TIP3    H132968   1.156   3.728  15.695 -1.2201 -0.3572  1.8166
 3851TIP3    H232969   1.105   3.848  15.773  1.0364  2.0180 -0.1675
 3852TIP3   OH232970   6.326   2.899  12.742  0.5265  0.1939 -0.6335
 3852TIP3    H132971   6.416   2.932  12.733  0.2801  0.9364 -0.4005
 3852TIP3    H232972   6.336   2.814  12.785  1.0752  0.5258 -0.0947
 3853TIP3   OH232973   2.542   1.473  12.986 -0.2324 -0.4952  0.6674
 3853TIP3    H132974   2.621   1.420  12.980 -0.1534 -0.3536  0.4575
 3853TIP3    H232975   2.496   1.458  12.904 -0.3961 -0.5332  0.7656
 3854TIP3   OH232976   6.083   6.074   4.400 -0.0010 -0.0151 -0.8162
 3854TIP3    H132977   5.997   6.036   4.416 -1.0144  2.0124 -1.1267
 3854TIP3    H232978   6.094   6.070   4.304 -0.2822  0.7817 -0.8874
 3855TIP3   OH232979   2.857   0.594   1.050  0.1655  0.4464  0.1521
 3855TIP3    H132980   2.941   0.631   1.023 -0.8452  2.2811 -0.6590
 3855TIP3    H232981   2.810   0.579   0.968  0.1823 -1.8854  0.5136
 3856TIP3   OH232982   2.262   1.072  15.595  0.3520 -0.1856 -0.5616
 3856TIP3    H132983   2.316   1.017  15.652 -1.0865 -1.0377  0.0542
 3856TIP3    H232984   2.216   1.010  15.538 -0.5466  0.4382 -0.5393
 3857TIP3   OH232985   2.989   0.694  16.336  0.0732 -0.0480  0.3055
 3857TIP3    H132986   3.014   0.617  16.284  3.0307  1.7834 -1.2331
 3857TIP3    H232987   2.919   0.735  16.286  0.2346 -0.3714 -0.1882
 3858TIP3   OH232988   3.094   4.364  13.536 -0.1436  0.2107  0.0467
 3858TIP3    H132989   3.088   4.271  13.515 -0.2048  0.1250  0.4326
 3858TIP3    H232990   3.163   4.369  13.602  0.2018  0.5016 -0.3345
 3859TIP3   OH232991   5.141   3.411   5.104  0.0698 -0.4536 -0.0838
 3859TIP3    H132992   5.122   3.330   5.152 -0.0190 -1.1546 -1.2570
 3859TIP3    H232993   5.070   3.470   5.129  0.4717 -0.5121  1.2626
 3860TIP3   OH232994   1.620   3.344   1.088  0.1095  0.0936 -0.1753
 3860TIP3    H132995   1.686   3.276   1.077 -0.6122 -0.3291 -2.3842
 3860TIP3    H232996   1.540   3.297   1.113 -0.3099  0.1238 -1.3925
 3861TIP3   OH232997   3.982   2.645   0.865  0.1465  0.4725 -0.2326
 3861TIP3    H132998   4.035   2.676   0.939  0.0083  0.9448 -0.3272
 3861TIP3    H232999   4.016   2.558   0.846  1.0222  0.8389 -0.4069
 3862TIP3   OH233000   1.834   3.278  17.259 -0.3014  0.5946  0.0302
 3862TIP3    H133001   1.795   3.260  17.173 -0.2141  0.1721  0.0740
 3862TIP3    H233002   1.846   3.191  17.298 -0.7212  0.8073  0.6420
 3863TIP3   OH233003   3.929   2.771  12.160 -0.4756  0.3747  0.0429
 3863TIP3    H133004   3.929   2.791  12.254 -0.3260  0.0075  0.1224
 3863TIP3    H233005   4.022   2.761  12.138 -0.5576 -0.5562  0.0745
 3864TIP3   OH233006   2.069   0.956  16.798 -0.0282  0.2998 -0.2461
 3864TIP3    H133007   2.070   0.872  16.845  1.1252  1.1068  1.2775
 3864TIP3    H233008   2.162   0.976  16.783 -0.3571  0.4070 -2.3115
 3865TIP3   OH233009   6.142   5.781   4.677  0.1028 -0.1243 -0.0869
 3865TIP3    H133010   6.185   5.851   4.628 -3.4399  1.7540 -0.8333
 3865TIP3    H233011   6.112   5.720   4.609 -1.1676  0.2880  0.0868
 3866TIP3   OH233012   2.996   3.372  15.562 -0.1980 -0.4214 -0.6280
 3866TIP3    H133013   2.965   3.402  15.477  0.6015 -3.3139 -2.0966
 3866TIP3    H233014   2.916   3.356  15.613 -0.6540  2.7135 -0.1897
 3867TIP3   OH233015   2.709   3.181   2.533 -0.5672 -0.5145  0.0527
 3867TIP3    H133016   2.623   3.159   2.496 -0.5089  1.0583 -1.1273
 3867TIP3    H233017   2.766   3.111   2.503 -0.7439  0.1739 -2.1171
 3868TIP3   OH233018   2.095   0.055  13.528  0.0533 -0.0936  0.6578
 3868TIP3    H133019   2.065   0.133  13.481  0.5434 -0.4370 -0.2418
 3868TIP3    H233020   2.146   0.006  13.464  3.5326  0.9945  2.3786
 3869TIP3   OH233021   1.344   3.407   1.892  0.0536 -0.0145 -0.2453
 3869TIP3    H133022   1.287   3.387   1.966  0.8541  2.0387  1.0300
 3869TIP3    H233023   1.303   3.365   1.817 -3.2047  1.4541  0.5583
 3870TIP3   OH233024   1.142   4.289   0.884 -0.4543  0.4872 -0.1855
 3870TIP3    H133025   1.192   4.208   0.884 -0.9764  0.1194 -2.1236
 3870TIP3    H233026   1.101   4.291   0.971  1.3702 -0.1246  0.7497
 3871TIP3   OH233027   0.756   2.141  15.066  0.6240 -0.7910  0.3692
 3871TIP3    H133028   0.730   2.052  15.090 -0.0424 -0.9245 -0.7597
 3871TIP3    H233029   0.780   2.182  15.149  0.8821 -1.9963  0.9163
 3872TIP3   OH233030   2.317   3.015  14.753 -0.1071  0.2808  0.5546
 3872TIP3    H133031   2.352   3.040  14.839 -0.3901  2.2150  0.1659
 3872TIP3    H233032   2.260   2.940  14.771  0.1660  0.3883  1.9906
 3873TIP3   OH233033   6.213   3.353  11.853 -0.0933  0.2595 -0.1086
 3873TIP3    H133034   6.286   3.292  11.845  1.6628  2.2593 -0.1819
 3873TIP3    H233035   6.146   3.319  11.793  0.3159 -2.1529  0.6851
 3874TIP3   OH233036   2.457   6.681   2.760 -0.7585 -0.5293 -0.3654
 3874TIP3    H133037   2.395   6.717   2.823  0.1044 -1.2452  0.9527
 3874TIP3    H233038   2.436   6.724   2.677  0.1482  2.9716  1.0384
 3875TIP3   OH233039   3.580   5.953  15.741 -0.1379 -0.2320 -1.0845
 3875TIP3    H133040   3.654   5.967  15.682  0.6659  0.0501 -0.0498
 3875TIP3    H233041   3.619   5.957  15.829 -0.9714 -2.4527 -0.5383
 3876TIP3   OH233042   3.555   2.872   6.296 -0.2676 -0.3198  0.6159
 3876TIP3    H133043   3.541   2.831   6.381  1.1727  0.7887  1.4333
 3876TIP3    H233044   3.579   2.962   6.316  1.3604 -0.3686 -0.8783
 3877TIP3   OH233045   1.285   1.116  14.922  0.1315  0.8533 -0.7900
 3877TIP3    H133046   1.224   1.075  14.862 -1.0784 -1.3347  1.7256
 3877TIP3    H233047   1.329   1.043  14.966  0.8309  2.2837  1.0340
 3878TIP3   OH233048   3.625   4.510  15.350 -0.3282  0.5254  0.2093
 3878TIP3    H133049   3.548   4.567  15.342 -2.0653 -1.6370  0.4372
 3878TIP3    H233050   3.642   4.480  15.261 -0.8120 -0.2541  0.3653
 3879TIP3   OH233051   0.817   3.929  14.432 -0.8273 -0.0232 -0.0933
 3879TIP3    H133052   0.865   3.938  14.350 -1.2112  1.7172 -0.1491
 3879TIP3    H233053   0.725   3.931  14.407 -1.1272 -4.2890 -0.0998
 3880TIP3   OH233054   4.294   6.176  17.334  0.1870 -0.1850  0.5078
 3880TIP3    H133055   4.345   6.249  17.299 -0.2327  0.7883  1.8102
 3880TIP3    H233056   4.204   6.208  17.332 -0.0047 -0.6827  1.0677
 3881TIP3   OH233057   0.449   6.445   3.193 -0.2409 -0.3097 -0.2274
 3881TIP3    H133058   0.513   6.439   3.263 -0.3206  1.7569  0.0882
 3881TIP3    H233059   0.500   6.461   3.114 -0.2602 -0.8351 -0.3515
 3882TIP3   OH233060   1.901   1.177  10.823  0.2958 -0.2610 -0.4632
 3882TIP3    H133061   1.857   1.100  10.788  1.2949  0.0761 -2.6349
 3882TIP3    H233062   1.961   1.204  10.754  0.4270  2.1077  0.4698
 3883TIP3   OH233063   2.274   4.525   6.193  0.1396  0.0086 -0.3636
 3883TIP3    H133064   2.340   4.505   6.127 -1.4136 -0.1869 -1.9178
 3883TIP3    H233065   2.298   4.470   6.268  2.6382  1.1324 -0.2453
 3884TIP3   OH233066   4.061   4.282  14.142 -0.6084 -0.2313 -0.6422
 3884TIP3    H133067   4.104   4.206  14.182 -0.7277 -0.4713 -0.9619
 3884TIP3    H233068   4.128   4.317  14.083  0.4405  1.5481  1.4734
 3885TIP3   OH233069   6.436   6.308  13.221  0.0476  0.3202 -0.1784
 3885TIP3    H133070   6.440   6.362  13.143  0.4969  0.0508 -0.3459
 3885TIP3    H233071   6.528   6.294  13.245 -0.0857  0.4845  0.4565
 3886TIP3   OH233072   0.783   2.675  13.989 -0.3688 -0.8614 -0.0011
 3886TIP3    H133073   0.878   2.668  13.977 -0.1451  0.8191  0.6313
 3886TIP3    H233074   0.746   2.626  13.915  0.9860 -0.7489 -0.7812
 3887TIP3   OH233075   1.222   3.202   3.208  0.5816  0.0931  0.2455
 3887TIP3    H133076   1.312   3.229   3.188  0.6208  1.2878  1.7583
 3887TIP3    H233077   1.231   3.136   3.277  0.3224 -0.4249 -0.2127
 3888TIP3   OH233078   2.080   3.887   6.223 -0.5952  0.4958 -0.1309
 3888TIP3    H133079   2.000   3.937   6.204  0.3285  1.6980 -0.9965
 3888TIP3    H233080   2.070   3.807   6.171 -3.3637 -1.7256  3.3496
 3889TIP3   OH233081   2.023   1.668  15.352  0.0241 -0.2157 -0.0050
 3889TIP3    H133082   2.095   1.723  15.384 -2.7496  2.2544  2.7404
 3889TIP3    H233083   2.062   1.582  15.340  3.2603  0.7561  2.1805
 3890TIP3   OH233084   2.745   2.954   3.805 -0.2712 -0.6524  0.5826
 3890TIP3    H133085   2.774   2.880   3.752 -1.5312  0.9237 -2.5518
 3890TIP3    H233086   2.826   2.999   3.829  0.3333 -1.1410 -0.4500
 3891TIP3   OH233087   2.510   2.262   1.227  0.0509 -0.3667  0.7306
 3891TIP3    H133088   2.581   2.227   1.280  1.1557 -0.2006 -0.5905
 3891TIP3    H233089   2.488   2.191   1.166 -0.1762 -0.0348  0.4206
 3892TIP3   OH233090   6.667   5.355   0.855  0.0334  0.5900  0.4502
 3892TIP3    H133091   6.703   5.290   0.915 -1.1183  0.5784  1.1372
 3892TIP3    H233092   6.685   5.439   0.897  2.5438  0.8826 -0.9578
 3893TIP3   OH233093   1.425   4.796  15.700 -0.2832  0.0956 -0.4266
 3893TIP3    H133094   1.411   4.880  15.656 -1.3653  0.6911  0.9994
 3893TIP3    H233095   1.360   4.793  15.769  2.4368  0.0247  2.3674
 3894TIP3   OH233096   1.718   0.700   0.756 -0.6466  0.0144 -0.4325
 3894TIP3    H133097   1.627   0.685   0.728 -1.3860  0.7808  1.3779
 3894TIP3    H233098   1.755   0.756   0.689 -1.4302 -0.4886 -1.3216
 3895TIP3   OH233099   5.053   5.342   4.905 -0.4767  0.3576 -1.0957
 3895TIP3    H133100   5.051   5.312   4.814  0.1705  2.1984 -1.7504
 3895TIP3    H233101   4.976   5.399   4.913 -1.0208 -0.4682 -0.2142
 3896TIP3   OH233102   0.928   3.046   1.008  0.0442 -0.3214 -0.1314
 3896TIP3    H133103   0.838   3.047   0.977  0.0052 -1.6908 -0.1103
 3896TIP3    H233104   0.960   3.135   0.990 -1.2605  0.1579 -0.2222
 3897TIP3   OH233105   4.962   0.063   1.703  0.5978  0.0465  0.1958
 3897TIP3    H133106   4.970   0.111   1.621 -2.5759 -2.5059 -1.8551
 3897TIP3    H233107   5.015  -0.016   1.689 -2.3636 -1.9348 -0.9124
 3898TIP3   OH233108   2.931   0.372  14.265  0.2839  0.0752 -1.1436
 3898TIP3    H133109   2.918   0.463  14.239 -0.0866 -0.0935 -1.5562
 3898TIP3    H233110   2.992   0.337  14.201  0.7575  0.1406 -0.7397
 3899TIP3   OH233111   4.237   0.851  15.519  0.1378 -0.5281 -1.0354
 3899TIP3    H133112   4.287   0.817  15.593  0.5541  1.3527 -0.3960
 3899TIP3    H233113   4.282   0.932  15.494 -1.8587  0.6242 -1.1947
 3900TIP3   OH233114   2.040   2.835   5.899  0.1891 -0.1647 -0.0862
 3900TIP3    H133115   2.046   2.926   5.871  1.1013  0.7395  2.7045
 3900TIP3    H233116   2.130   2.802   5.895 -0.0332 -0.7477 -0.4531
 3901TIP3   OH233117   0.489   3.659   1.899  0.1241 -0.0436 -0.0955
 3901TIP3    H133118   0.532   3.731   1.854  0.0282  0.2393  0.2642
 3901TIP3    H233119   0.405   3.695   1.928  0.1034 -0.2774  0.1434
 3902TIP3   OH233120   3.785   5.513  12.726 -0.2100  0.3886  0.2562
 3902TIP3    H133121   3.694   5.514  12.756 -1.2833  0.0107 -2.6232
 3902TIP3    H233122   3.837   5.526  12.805 -2.8367  4.8038  1.6181
 3903TIP3   OH233123   4.495   6.161   5.227 -0.2150  0.1628  0.8379
 3903TIP3    H133124   4.518   6.139   5.137 -1.7546 -1.2067  0.7222
 3903TIP3    H233125   4.484   6.076   5.270 -0.8573  0.7788  1.9437
 3904TIP3   OH233126   0.580   3.462  16.947  0.0847 -0.7713  0.2556
 3904TIP3    H133127   0.602   3.470  17.040  1.7532 -0.6730 -0.1216
 3904TIP3    H233128   0.584   3.552  16.913  1.7936 -1.0571 -0.3778
 3905TIP3   OH233129   3.429   3.657  14.427 -0.1418  0.0119 -0.2658
 3905TIP3    H133130   3.365   3.716  14.387 -1.8566 -2.0267 -0.7251
 3905TIP3    H233131   3.382   3.617  14.500  1.2050 -0.2925  0.4601
 3906TIP3   OH233132   2.947   1.350  13.354 -0.2008  0.2690 -0.3151
 3906TIP3    H133133   3.000   1.408  13.410 -0.8217  0.5683 -0.0312
 3906TIP3    H233134   2.970   1.377  13.265 -0.1436  0.6438 -0.1905
 3907TIP3   OH233135   1.658   5.381   2.323 -0.2600  0.1154 -0.1395
 3907TIP3    H133136   1.753   5.373   2.335 -0.2434 -0.5441 -0.6504
 3907TIP3    H233137   1.646   5.463   2.276  0.1042 -0.0505 -0.5300
 3908TIP3   OH233138   0.477   4.110  16.125 -0.1255 -0.0021  0.6228
 3908TIP3    H133139   0.490   4.019  16.101 -0.9174 -0.2776  1.2226
 3908TIP3    H233140   0.564   4.150  16.115 -0.3322 -0.0927 -2.5512
 3909TIP3   OH233141   3.450   0.621   0.569  0.4074  0.1726 -0.5258
 3909TIP3    H133142   3.494   0.693   0.524 -0.7049 -0.0207 -1.9944
 3909TIP3    H233143   3.375   0.662   0.612  0.1241  0.0052 -0.8505
 3910TIP3   OH233144   1.082   3.119   2.315 -0.0523  0.2615 -0.1546
 3910TIP3    H133145   1.153   3.109   2.379 -0.2207  0.3448  0.0491
 3910TIP3    H233146   1.078   3.036   2.269 -0.1239  0.0958  0.1497
 3911TIP3   OH233147   5.765   5.595   2.421  0.3438  0.5270 -0.1838
 3911TIP3    H133148   5.688   5.652   2.426  0.7295  1.0909 -0.5531
 3911TIP3    H233149   5.821   5.625   2.493  0.0341 -0.1757  0.3646
 3912TIP3   OH233150   2.799   5.905  12.894 -0.1016  0.1809 -0.3504
 3912TIP3    H133151   2.879   5.853  12.879  0.1769  0.6970 -0.6815
 3912TIP3    H233152   2.793   5.914  12.989  1.5857  2.1911 -0.3651
 3913TIP3   OH233153   0.156   2.199  12.279 -0.0827 -0.1121  0.7739
 3913TIP3    H133154   0.237   2.212  12.230  1.4063  2.1544  3.5467
 3913TIP3    H233155   0.149   2.104  12.287  0.7001 -0.4835 -1.9024
 3914TIP3   OH233156   0.090   1.957   3.392 -0.4851 -0.1181  0.0264
 3914TIP3    H133157   0.036   1.930   3.318  0.7021  0.5092 -1.1157
 3914TIP3    H233158   0.167   1.900   3.388  1.1386  2.0117 -1.2530
 3915TIP3   OH233159   1.527   6.074  11.860  0.0692 -0.2335  0.0737
 3915TIP3    H133160   1.494   6.032  11.938  2.1906  0.2424  1.3061
 3915TIP3    H233161   1.493   6.164  11.865 -2.0858 -0.9298 -1.0639
 3916TIP3   OH233162   6.172   1.535   6.122 -0.6663 -0.1763 -0.0259
 3916TIP3    H133163   6.085   1.520   6.086 -0.1136 -0.4601 -1.2872
 3916TIP3    H233164   6.197   1.622   6.091 -0.5155 -0.0680  0.3824
 3917TIP3   OH233165   2.536   2.486   5.158 -0.0717  0.7716 -0.2137
 3917TIP3    H133166   2.497   2.444   5.082  0.1270  0.1150  0.0402
 3917TIP3    H233167   2.628   2.496   5.136  0.3199 -0.8628  0.5349
 3918TIP3   OH233168   6.170   3.362  15.447  0.0692 -0.5150  0.2208
 3918TIP3    H133169   6.091   3.309  15.438  0.6983 -1.6804  1.2053
 3918TIP3    H233170   6.186   3.366  15.541  0.0297  1.5004  0.1741
 3919TIP3   OH233171   5.416   4.887  16.779 -0.0962 -0.3099 -0.5912
 3919TIP3    H133172   5.510   4.883  16.801 -0.2888  1.8400  0.9362
 3919TIP3    H233173   5.374   4.829  16.843  0.2068 -1.9516 -1.8132
 3920TIP3   OH233174   2.148   1.477  13.861 -0.2958  0.4498  0.3617
 3920TIP3    H133175   2.235   1.458  13.894  0.5307  0.3457 -1.7048
 3920TIP3    H233176   2.144   1.573  13.856  0.1355  0.4313 -0.5468
 3921TIP3   OH233177   0.696   1.388  11.849  0.0455  0.0249  0.0796
 3921TIP3    H133178   0.665   1.477  11.832 -0.3165 -0.4811 -2.2551
 3921TIP3    H233179   0.716   1.387  11.943 -3.0303  1.6141  0.8977
 3922TIP3   OH233180   2.344   0.306  11.192 -0.1488 -0.2834  0.2733
 3922TIP3    H133181   2.314   0.386  11.234  0.1611 -0.6901  1.3244
 3922TIP3    H233182   2.437   0.320  11.177 -0.2274 -0.1993 -0.1207
 3923TIP3   OH233183   0.419   5.475   4.059 -1.0043 -0.1811 -0.3473
 3923TIP3    H133184   0.374   5.394   4.037 -0.4807 -0.0081 -2.2043
 3923TIP3    H233185   0.362   5.544   4.025  0.4787  0.0461 -2.5377
 3924TIP3   OH233186   5.773   0.200  16.755  0.6441  0.2150 -0.0841
 3924TIP3    H133187   5.732   0.209  16.669 -2.0375  1.4600  1.2162
 3924TIP3    H233188   5.760   0.108  16.778 -1.3135  0.5239  0.1803
 3925TIP3   OH233189   5.808   1.405  14.054  0.3195  0.0859 -0.3626
 3925TIP3    H133190   5.875   1.383  13.989  1.8695 -1.1652  1.5528
 3925TIP3    H233191   5.827   1.348  14.128 -1.9514  0.8074  0.8616
 3926TIP3   OH233192   6.388   5.681   4.755  0.0340  0.2097 -0.3849
 3926TIP3    H133193   6.299   5.716   4.759  0.7146  1.9041  0.7958
 3926TIP3    H233194   6.403   5.642   4.841  1.0315  1.5512  0.0879
 3927TIP3   OH233195   1.676   1.425   1.098  0.3834 -0.1969 -0.3214
 3927TIP3    H133196   1.701   1.339   1.131  0.0407 -0.4396 -0.6685
 3927TIP3    H233197   1.738   1.486   1.137 -0.6480 -0.3205  1.6035
 3928TIP3   OH233198   6.151   1.755  13.066 -0.2991  0.3132  0.3054
 3928TIP3    H133199   6.073   1.716  13.027  1.0420 -1.0039 -1.1258
 3928TIP3    H233200   6.184   1.816  13.000 -0.1288  0.9231  0.9328
 3929TIP3   OH233201   3.519   4.003  11.603  0.6206 -0.1114 -0.3668
 3929TIP3    H133202   3.502   3.926  11.548  1.1369  0.1686 -0.9257
 3929TIP3    H233203   3.614   4.013  11.602  0.4947  1.3741 -1.4854
 3930TIP3   OH233204   1.712   6.735   1.806  0.4762 -0.7331 -0.1768
 3930TIP3    H133205   1.803   6.757   1.828  0.3737 -0.3638 -0.1242
 3930TIP3    H233206   1.671   6.717   1.891  0.5621 -1.1391 -0.2203
 3931TIP3   OH233207   2.417   0.738  12.228  0.0122  0.0904  0.2612
 3931TIP3    H133208   2.334   0.731  12.276  1.3646  0.4043  2.8205
 3931TIP3    H233209   2.454   0.650  12.230  1.2623  0.6025  2.1892
 3932TIP3   OH233210   3.801   6.518  11.940  0.1875 -0.0045  0.0891
 3932TIP3    H133211   3.867   6.581  11.913 -0.1969 -0.2970 -1.6631
 3932TIP3    H233212   3.833   6.485  12.024  1.9349  0.3275 -0.3960
 3933TIP3   OH233213   3.339   4.175  15.050  0.0482  0.6318  0.2489
 3933TIP3    H133214   3.249   4.203  15.065 -0.4998 -0.7171 -0.3272
 3933TIP3    H233215   3.350   4.096  15.103  1.2404  1.3391  1.1124
 3934TIP3   OH233216   6.298   2.079  14.708 -0.8532 -0.2605  0.4346
 3934TIP3    H133217   6.326   2.095  14.618 -1.3841  0.0965  0.3287
 3934TIP3    H233218   6.367   2.024  14.745 -1.0307 -1.0980 -0.4384
 3935TIP3   OH233219   0.547   5.616   0.712 -0.5904 -0.0557  0.5688
 3935TIP3    H133220   0.545   5.710   0.693 -0.4279  0.0053  0.8498
 3935TIP3    H233221   0.532   5.610   0.806  1.5549 -0.1742  0.9582
 3936TIP3   OH233222   2.921   1.879  15.491 -0.2237 -0.4474 -0.4220
 3936TIP3    H133223   2.894   1.873  15.399  2.7333 -1.7683 -1.3220
 3936TIP3    H233224   2.897   1.968  15.517 -0.1724  0.3369 -2.8252
 3937TIP3   OH233225   2.202   1.427  16.587  0.1857 -0.4270 -0.0216
 3937TIP3    H133226   2.275   1.373  16.559 -0.5200 -1.7559  0.6017
 3937TIP3    H233227   2.231   1.466  16.669  0.6785  0.1183 -0.4488
 3938TIP3   OH233228   4.564   5.555   5.720  0.3211 -0.3862  0.0077
 3938TIP3    H133229   4.487   5.609   5.702 -0.5835 -1.2765  1.0820
 3938TIP3    H233230   4.635   5.619   5.732 -0.2687  0.4579 -0.7987
 3939TIP3   OH233231   6.494   6.401  15.046  0.5683 -0.2216  0.4552
 3939TIP3    H133232   6.441   6.398  14.967 -1.2442  1.6572  1.5014
 3939TIP3    H233233   6.448   6.344  15.108 -1.1098  2.3723  1.7739
 3940TIP3   OH233234   2.070   1.937   1.687  0.3144 -0.3314 -0.0243
 3940TIP3    H133235   2.043   1.916   1.597  0.2009 -1.6172  0.2940
 3940TIP3    H233236   2.165   1.935   1.684  0.3615  1.4290 -0.5111
 3941TIP3   OH233237   4.809   3.960  13.160  0.4838 -0.4747  0.0827
 3941TIP3    H133238   4.795   3.911  13.241 -0.1145 -0.6373 -0.1150
 3941TIP3    H233239   4.828   4.049  13.189 -1.6943 -0.0463  0.3820
 3942TIP3   OH233240   3.313   4.676   0.550  0.4852 -0.2467  0.1525
 3942TIP3    H133241   3.384   4.735   0.576 -0.1501  1.6605 -2.1265
 3942TIP3    H233242   3.270   4.721   0.477 -2.5920 -1.6839  0.9113
 3943TIP3   OH233243   6.166   0.954  16.536  0.0480  0.0977 -0.2566
 3943TIP3    H133244   6.121   0.908  16.607 -0.1314  0.0273 -0.4147
 3943TIP3    H233245   6.205   1.031  16.579  1.3805 -0.8285  0.2402
 3944TIP3   OH233246   1.707   3.230   3.698  0.6361 -0.1639  0.2603
 3944TIP3    H133247   1.636   3.204   3.756  0.7774 -0.0962  0.4640
 3944TIP3    H233248   1.770   3.274   3.755 -0.6402  2.7519 -0.4089
 3945TIP3   OH233249   3.035   1.060  14.863  0.4372 -0.2828  0.1630
 3945TIP3    H133250   3.032   1.091  14.772  1.4116  1.0563  0.5532
 3945TIP3    H233251   3.109   1.107  14.902 -0.0348 -0.7459  1.6946
 3946TIP3   OH233252   2.147   5.123   0.199 -0.0663  0.3414  0.3233
 3946TIP3    H133253   2.134   5.126   0.104  1.9077  1.1139  0.0333
 3946TIP3    H233254   2.193   5.040   0.214 -1.0181 -0.1239  0.7101
 3947TIP3   OH233255   6.431   6.727   0.634  0.8545  0.2073  0.3155
 3947TIP3    H133256   6.426   6.775   0.551  1.1763 -1.0545 -0.4703
 3947TIP3    H233257   6.341   6.705   0.655  0.6298  1.7356  1.0606
 3948TIP3   OH233258   6.463   3.427   5.015 -0.2545 -0.3509 -0.1978
 3948TIP3    H133259   6.442   3.445   4.924 -0.6788  0.6391  0.0806
 3948TIP3    H233260   6.465   3.513   5.057 -0.0823 -0.7916  0.7279
 3949TIP3   OH233261   0.727   4.461  15.760 -0.2732 -0.7502 -0.1423
 3949TIP3    H133262   0.644   4.468  15.807  0.6148  2.0381  1.2695
 3949TIP3    H233263   0.712   4.508  15.677 -0.2443 -0.6341 -0.0824
 3950TIP3   OH233264   0.548   4.048  13.453  0.2423 -0.0406 -0.2013
 3950TIP3    H133265   0.478   4.077  13.396 -0.6065 -1.3558  0.1229
 3950TIP3    H233266   0.518   3.964  13.488  0.7489  0.6541  2.1086
 3951TIP3   OH233267   5.491   3.284  12.824 -0.4636  0.3155  0.6648
 3951TIP3    H133268   5.485   3.214  12.759 -1.7748  1.4160 -0.4521
 3951TIP3    H233269   5.583   3.282  12.852  0.3812  0.3452 -1.8527
 3952TIP3   OH233270   4.268   6.077   0.537  0.3532 -0.2328 -0.0224
 3952TIP3    H133271   4.319   6.124   0.472 -0.7641 -0.5606 -1.1676
 3952TIP3    H233272   4.236   5.999   0.492 -1.3060  0.0443  0.5773
 3953TIP3   OH233273   3.065   3.802   4.827  0.4874 -0.0083  0.3114
 3953TIP3    H133274   3.150   3.765   4.803 -0.3413 -1.4749 -0.4777
 3953TIP3    H233275   3.004   3.729   4.821 -0.9049  1.0906  0.5229
 3954TIP3   OH233276   4.145   0.859   0.320 -0.2212  0.5519  0.0035
 3954TIP3    H133277   4.216   0.884   0.260  1.3880 -1.3274  1.0140
 3954TIP3    H233278   4.170   0.897   0.404 -1.0422  0.8793  0.1046
 3955TIP3   OH233279   1.746   5.570   4.926 -0.3965  0.5299 -0.3333
 3955TIP3    H133280   1.766   5.494   4.980 -0.1249  0.5611 -0.3879
 3955TIP3    H233281   1.664   5.604   4.960 -0.0329  0.7832  0.3156
 3956TIP3   OH233282   1.124   6.687  17.288  0.4602 -0.1227  0.1353
 3956TIP3    H133283   1.071   6.641  17.223  1.2159 -0.1102 -0.5088
 3956TIP3    H233284   1.178   6.748  17.236  1.1059 -0.1451  0.7640
 3957TIP3   OH233285   4.662   3.514   2.937  0.1581  0.1168  0.2592
 3957TIP3    H133286   4.710   3.442   2.978  0.2582 -0.0728 -0.1871
 3957TIP3    H233287   4.725   3.552   2.876 -1.2470 -2.3627 -3.0355
 3958TIP3   OH233288   5.566   1.871   3.631  0.4864  0.6311  0.0144
 3958TIP3    H133289   5.475   1.845   3.643  0.1410  1.9725  0.5184
 3958TIP3    H233290   5.564   1.967   3.636  1.6439  0.8082 -1.9403
 3959TIP3   OH233291   2.474   1.793  14.634 -0.0615 -0.3464  0.8690
 3959TIP3    H133292   2.493   1.729  14.703 -2.6966 -1.7841  0.4241
 3959TIP3    H233293   2.499   1.749  14.553  0.5725  0.2658  0.7332
 3960TIP3   OH233294   5.650   5.825  15.406 -0.8145  0.2120  0.5339
 3960TIP3    H133295   5.619   5.811  15.316  2.3302 -1.8654 -0.4391
 3960TIP3    H233296   5.685   5.914  15.406 -3.1495  1.1869  0.5674
 3961TIP3   OH233297   3.294   5.897   1.728 -0.4672 -0.2601  0.7858
 3961TIP3    H133298   3.295   5.828   1.794 -0.6915 -0.2878  0.7635
 3961TIP3    H233299   3.244   5.968   1.769  0.2706  0.1197  1.0359
 3962TIP3   OH233300   2.791   3.063   1.161  0.4661  0.2275  0.6663
 3962TIP3    H133301   2.769   3.134   1.220 -2.2958 -0.1404  0.1787
 3962TIP3    H233302   2.716   3.005   1.163  0.0890  0.2892 -3.2927
 3963TIP3   OH233303   5.885   1.439   0.723  0.1048  0.2796  0.1831
 3963TIP3    H133304   5.888   1.505   0.654  1.4719  1.7521  1.5547
 3963TIP3    H233305   5.866   1.357   0.677 -0.9897  1.4966 -1.6588
 3964TIP3   OH233306   6.430   5.922   2.362 -0.3021  0.4037 -0.2576
 3964TIP3    H133307   6.509   5.869   2.359 -0.9138 -0.5276 -0.2677
 3964TIP3    H233308   6.369   5.878   2.303 -1.9236 -0.7369  2.0817
 3965TIP3   OH233309   5.287   4.417   2.923  0.0001 -0.1206  0.2257
 3965TIP3    H133310   5.295   4.458   3.009 -2.7288  0.4816  0.2844
 3965TIP3    H233311   5.322   4.482   2.862  0.7291 -0.0059  0.7564
 3966TIP3   OH233312   3.762   3.988  11.089  0.3540  0.3061  0.1881
 3966TIP3    H133313   3.673   3.953  11.082 -0.1802  1.6457 -0.1707
 3966TIP3    H233314   3.797   3.983  11.000 -0.9507  3.5892 -0.6752
 3967TIP3   OH233315   4.157   4.362  10.644 -0.1470  0.4018  0.1489
 3967TIP3    H133316   4.220   4.304  10.600  0.3691  1.4990 -0.6025
 3967TIP3    H233317   4.205   4.395  10.720 -0.5247 -0.3178  0.7156
 3968TIP3   OH233318   2.797   0.870   1.399  0.5534 -0.0711 -0.1814
 3968TIP3    H133319   2.888   0.891   1.376  0.7566 -1.5179 -0.8076
 3968TIP3    H233320   2.763   0.951   1.439  1.1627  1.5177 -2.6622
 3969TIP3   OH233321   4.360   6.249   4.035 -0.0356  0.4626  0.0989
 3969TIP3    H133322   4.378   6.270   4.127 -0.4414 -1.8342  0.7490
 3969TIP3    H233323   4.439   6.279   3.989  0.2160  1.5659  1.1688
 3970TIP3   OH233324   5.545   3.385   3.545  0.3109 -0.3858 -0.4042
 3970TIP3    H133325   5.494   3.304   3.546  1.3176 -1.0520 -1.2118
 3970TIP3    H233326   5.622   3.365   3.599  0.8872 -0.2100 -1.1423
 3971TIP3   OH233327   0.194   1.894  15.775  0.2941  0.2306 -0.2858
 3971TIP3    H133328   0.222   1.937  15.856  0.7724  1.0193 -0.8563
 3971TIP3    H233329   0.135   1.956  15.733 -2.0648 -1.2404  0.6797
 3972TIP3   OH233330   5.794   6.396  14.918  0.3570 -0.0169  0.6429
 3972TIP3    H133331   5.822   6.341  14.845  0.7864 -1.0215  1.5186
 3972TIP3    H233332   5.788   6.484  14.882 -0.7943 -0.6918 -0.9355
 3973TIP3   OH233333   4.887   2.719   1.975 -0.1713  0.0315 -0.2136
 3973TIP3    H133334   4.947   2.715   1.900 -0.4170  2.0193 -0.5738
 3973TIP3    H233335   4.846   2.633   1.977 -0.5705  0.0772 -2.7287
 3974TIP3   OH233336   4.460   0.230   3.278 -0.1381 -0.1766 -0.2984
 3974TIP3    H133337   4.388   0.291   3.261  0.1439  0.2249 -0.0607
 3974TIP3    H233338   4.438   0.190   3.362  0.4355  0.7230  0.2991
 3975TIP3   OH233339   5.566   4.407  14.251 -0.4038 -0.3569 -0.4112
 3975TIP3    H133340   5.633   4.395  14.318  0.0096 -0.4779 -0.8403
 3975TIP3    H233341   5.484   4.386  14.295 -0.1345 -0.4356  0.0569
 3976TIP3   OH233342   1.065   6.254  10.931 -0.4275  0.2775 -0.4990
 3976TIP3    H133343   1.042   6.161  10.932  0.9561 -0.0727  0.6086
 3976TIP3    H233344   1.150   6.258  10.888  0.7565  0.6905  1.7683
 3977TIP3   OH233345   1.668   1.017   5.680 -0.0465 -0.1937  0.3920
 3977TIP3    H133346   1.584   1.031   5.725 -0.2795  1.9033 -0.5842
 3977TIP3    H233347   1.647   1.024   5.587  1.3810  1.6035  0.1640
 3978TIP3   OH233348   5.256   4.343  16.036 -0.5650  0.3599 -0.3432
 3978TIP3    H133349   5.326   4.283  16.063 -0.6359  0.9571  1.3150
 3978TIP3    H233350   5.176   4.304  16.072 -0.8995  0.3759 -1.0604
 3979TIP3   OH233351   1.721   0.205   1.993 -0.2654 -0.1044  0.2050
 3979TIP3    H133352   1.757   0.245   2.073  0.9160 -0.9031  0.0964
 3979TIP3    H233353   1.747   0.113   1.998  0.3507 -0.0435 -1.3856
 3980TIP3   OH233354   1.074   1.254  15.989  0.1046  0.1263  0.0395
 3980TIP3    H133355   1.068   1.349  15.999  1.3514  0.1245  1.1425
 3980TIP3    H233356   1.121   1.242  15.907  2.5050  0.5952  1.2421
 3981TIP3   OH233357   1.742   4.781  14.710 -0.3605 -0.3255 -0.2943
 3981TIP3    H133358   1.727   4.689  14.731  0.1238 -0.2794  0.2550
 3981TIP3    H233359   1.835   4.787  14.690 -0.4279  0.0112 -0.5247
 3982TIP3   OH233360   4.387   0.627  15.374 -0.2142 -0.3125  0.5656
 3982TIP3    H133361   4.339   0.693  15.423 -0.9450 -0.2606 -0.1905
 3982TIP3    H233362   4.456   0.598  15.433 -0.3976  0.5303  1.2054
 3983TIP3   OH233363   2.370   6.201  14.211  0.0874 -0.0138 -0.4621
 3983TIP3    H133364   2.288   6.184  14.257 -0.8736  1.7178 -1.4023
 3983TIP3    H233365   2.436   6.151  14.259 -1.3262 -0.5484  1.0100
 3984TIP3   OH233366   6.357   1.764   0.995  0.1558 -0.4034  0.3324
 3984TIP3    H133367   6.377   1.689   1.050  3.3025  0.2306  0.2520
 3984TIP3    H233368   6.264   1.783   1.012  0.4060 -1.5583  3.7106
 3985TIP3   OH233369   1.503   0.077   2.677 -0.2686 -0.1243  0.3164
 3985TIP3    H133370   1.551   0.009   2.724  1.5649 -0.4933 -1.9372
 3985TIP3    H233371   1.434   0.030   2.630  1.7810 -0.7500 -2.2671
 3986TIP3   OH233372   5.891   1.808   5.348 -0.0940 -0.0671  0.2285
 3986TIP3    H133373   5.918   1.795   5.257 -3.4918 -0.1824 -0.8837
 3986TIP3    H233374   5.852   1.724   5.374 -0.3252  0.3654  1.3578
 3987TIP3   OH233375   3.528   4.349  14.819  0.0761 -0.0615  0.5751
 3987TIP3    H133376   3.605   4.312  14.776  0.1546 -0.2060  0.8323
 3987TIP3    H233377   3.493   4.276  14.871 -0.4146 -0.0878  0.2211
 3988TIP3   OH233378   1.819   5.448  11.389 -0.0043  0.2522 -0.6792
 3988TIP3    H133379   1.805   5.456  11.295  0.2727 -0.5814 -0.8044
 3988TIP3    H233380   1.731   5.444  11.427 -0.1641 -1.7509 -1.1425
 3989TIP3   OH233381   5.534   0.776   1.009  0.2940  0.0334  1.0454
 3989TIP3    H133382   5.462   0.831   1.040  0.1168  0.2455  0.2961
 3989TIP3    H233383   5.597   0.776   1.080 -0.3040  0.1087  1.5876
 3990TIP3   OH233384   4.833   2.295   0.967 -0.3647 -0.3378 -0.2436
 3990TIP3    H133385   4.774   2.232   0.926 -0.3863 -0.0892 -0.5995
 3990TIP3    H233386   4.778   2.342   1.029 -0.5175 -0.1925 -0.4845
 3991TIP3   OH233387   4.266   2.429  15.805  0.5961 -0.0076 -0.5186
 3991TIP3    H133388   4.355   2.422  15.770 -0.0901 -1.4471 -2.1237
 3991TIP3    H233389   4.209   2.411  15.730 -1.0815  1.1712  0.4016
 3992TIP3   OH233390   0.578   5.657   2.369  0.7879 -0.6165 -0.5365
 3992TIP3    H133391   0.531   5.585   2.328  0.0956  0.0296 -0.8966
 3992TIP3    H233392   0.573   5.728   2.305  1.5087 -0.2598 -0.2087
 3993TIP3   OH233393   5.309   2.366   1.221  0.1434  0.1801 -0.6540
 3993TIP3    H133394   5.254   2.290   1.205  1.9781 -1.0083 -1.6883
 3993TIP3    H233395   5.398   2.331   1.224  1.1413  2.3850 -1.9773
 3994TIP3   OH233396   3.856   3.587  15.226 -0.0582  0.0947 -0.4973
 3994TIP3    H133397   3.937   3.541  15.251  0.8672 -0.0498 -3.4139
 3994TIP3    H233398   3.884   3.678  15.212 -0.6905  0.3290 -0.2462
 3995TIP3   OH233399   0.193   4.949   6.497 -0.6296  0.1502  0.2615
 3995TIP3    H133400   0.261   4.898   6.454  0.6557  0.9057  1.3293
 3995TIP3    H233401   0.177   5.023   6.438 -0.1317  0.2512  0.2503
 3996TIP3   OH233402   2.081   1.581  11.030 -0.4827 -0.1090 -0.1548
 3996TIP3    H133403   2.161   1.628  11.005 -0.2428 -0.2796  0.2831
 3996TIP3    H233404   2.086   1.498  10.981 -2.4624  1.5153 -3.5050
 3997TIP3   OH233405   6.409   6.255   4.337 -0.4800  0.2438  0.0245
 3997TIP3    H133406   6.500   6.246   4.366 -0.8896  1.1580  1.7354
 3997TIP3    H233407   6.408   6.217   4.250  1.5011  0.0216  0.0480
 3998TIP3   OH233408   4.204   2.199  15.389 -0.0073  0.2338  0.0053
 3998TIP3    H133409   4.209   2.198  15.485  0.7982  0.7779 -0.0135
 3998TIP3    H233410   4.271   2.263  15.363 -0.4111  0.2946 -0.9096
 3999TIP3   OH233411   6.488   0.470   0.289  0.4694 -0.0501  0.0308
 3999TIP3    H133412   6.426   0.406   0.253  0.0916  0.0188  0.5481
 3999TIP3    H233413   6.442   0.509   0.363  1.5227 -0.7449  1.0912
 4000TIP3   OH233414   4.107   4.357   0.264 -0.5577  0.0518  0.5383
 4000TIP3    H133415   4.030   4.410   0.287 -0.5193  1.1714 -1.6123
 4000TIP3    H233416   4.071   4.284   0.214 -0.3223 -0.0701  0.5481
 4001TIP3   OH233417   1.571   2.002  13.180 -0.4270  0.5706  0.7533
 4001TIP3    H133418   1.605   1.916  13.204  0.9939 -0.6728 -4.4533
 4001TIP3    H233419   1.476   1.989  13.171 -0.3400 -0.2196  0.9262
 4002TIP3   OH233420   4.640   4.661  15.874 -0.5367  0.0028  0.2069
 4002TIP3    H133421   4.718   4.708  15.903 -1.2408  1.1470  0.2896
 4002TIP3    H233422   4.567   4.718  15.898 -1.3560 -0.6961 -0.5527
 4003TIP3   OH233423   0.456   4.259   3.709 -0.2090  0.3359  0.2749
 4003TIP3    H133424   0.545   4.285   3.686  0.1233  0.1631  1.3209
 4003TIP3    H233425   0.448   4.279   3.802 -1.0588 -0.2128  0.3334
 4004TIP3   OH233426   2.693   3.861   5.233  0.2467 -0.3878  0.0501
 4004TIP3    H133427   2.615   3.808   5.219  1.0504 -0.8937 -3.3194
 4004TIP3    H233428   2.666   3.950   5.208  0.5059 -0.4095 -0.3177
 4005TIP3   OH233429   0.001   5.631  13.579  0.3144  0.1816 -0.0254
 4005TIP3    H133430   0.037   5.543  13.590  2.0981  0.9519  0.7868
 4005TIP3    H233431   0.041   5.663  13.498 -1.0274 -0.0463 -0.8037
 4006TIP3   OH233432   5.292   5.011  13.697  0.8041  0.7877  0.2387
 4006TIP3    H133433   5.386   4.994  13.685  0.7551 -1.0533  1.9981
 4006TIP3    H233434   5.284   5.040  13.788 -0.4388  0.0743  0.3757
 4007TIP3   OH233435   2.058   1.553  12.872 -0.5906  0.3162  0.5002
 4007TIP3    H133436   2.009   1.557  12.789  0.0116 -0.5862  0.0899
 4007TIP3    H233437   1.991   1.565  12.940 -0.9717  2.0817 -0.1151
 4008TIP3   OH233438   3.353   1.457   3.431 -0.0425  0.3396 -0.2506
 4008TIP3    H133439   3.311   1.391   3.486  0.9796 -0.1769 -0.0764
 4008TIP3    H233440   3.289   1.476   3.363 -0.9341  0.2593  0.5429
 4009TIP3   OH233441   1.736   2.405   2.185  0.6446  0.4094  0.1352
 4009TIP3    H133442   1.694   2.489   2.165  1.1819  0.5693 -0.3342
 4009TIP3    H233443   1.829   2.425   2.187  0.8231 -0.3073 -0.6364
 4010TIP3   OH233444   2.796   2.329   1.703 -0.0565  0.0229 -0.0892
 4010TIP3    H133445   2.830   2.359   1.788  1.5183 -1.1413 -0.2818
 4010TIP3    H233446   2.859   2.361   1.639 -1.1692  0.7765 -0.8442
 4011TIP3   OH233447   4.587   3.751  16.286  0.5521 -0.4483 -0.5044
 4011TIP3    H133448   4.614   3.663  16.314 -1.0166 -0.6165  0.6324
 4011TIP3    H233449   4.575   3.799  16.368 -1.0483  0.0442 -0.9867
 4012TIP3   OH233450   1.388   0.824   0.251 -0.2650  0.3143  0.1919
 4012TIP3    H133451   1.381   0.742   0.302 -1.7932 -0.4177 -1.1211
 4012TIP3    H233452   1.460   0.871   0.293  1.1544 -2.0086  0.5730
 4013TIP3   OH233453   2.686   2.150  15.581  0.1077 -0.5100  0.3353
 4013TIP3    H133454   2.707   2.205  15.505  1.5496  0.1224  1.1285
 4013TIP3    H233455   2.629   2.082  15.547  1.3924 -0.7475 -1.5046
 4014TIP3   OH233456   3.161   2.462   5.590 -0.7881  0.3336 -0.0010
 4014TIP3    H133457   3.211   2.482   5.669 -0.5514  1.3971 -0.4003
 4014TIP3    H233458   3.072   2.448   5.621 -0.7417  0.9581  0.4440
 4015TIP3   OH233459   5.370   5.746   5.132 -0.5910  0.2064 -0.7190
 4015TIP3    H133460   5.341   5.837   5.131 -1.8970 -0.1953 -1.4498
 4015TIP3    H233461   5.289   5.695   5.138  0.0856 -0.9198 -0.9008
 4016TIP3   OH233462   0.540   0.956   5.044  0.0858 -0.3411 -0.0093
 4016TIP3    H133463   0.446   0.955   5.059  0.2294  0.7520  1.2042
 4016TIP3    H233464   0.568   1.042   5.076  1.5345 -0.7458 -0.1208
 4017TIP3   OH233465   0.359   5.880   0.966  0.1730 -0.2590  0.3093
 4017TIP3    H133466   0.353   5.885   1.061 -0.1761  0.6070  0.2515
 4017TIP3    H233467   0.452   5.886   0.947  0.2514 -0.5350  0.5999
 4018TIP3   OH233468   5.780   6.278  12.336 -0.0911 -0.0696 -0.5928
 4018TIP3    H133469   5.776   6.183  12.341  0.5555 -0.0677  0.2278
 4018TIP3    H233470   5.850   6.302  12.397 -1.2381  1.0166  0.3500
 4019TIP3   OH233471   0.449   2.072  16.385 -0.8042 -0.1600  0.0290
 4019TIP3    H133472   0.467   1.998  16.327  0.1745  0.0012  0.1173
 4019TIP3    H233473   0.408   2.137  16.328  0.5873  0.1827 -0.6155
 4020TIP3   OH233474   3.522   6.280  12.420 -0.3792  0.0575  0.0093
 4020TIP3    H133475   3.473   6.351  12.460  1.9426  1.9675 -0.2958
 4020TIP3    H233476   3.456   6.227  12.375 -2.3328  1.2220  1.3604
 4021TIP3   OH233477   0.407   2.522  11.618  0.2435  0.4477 -0.1596
 4021TIP3    H133478   0.317   2.554  11.622  0.0346  0.2947 -2.5069
 4021TIP3    H233479   0.441   2.555  11.535  1.5876 -1.4345 -0.4236
 4022TIP3   OH233480   1.384   2.582   2.127  0.2660  0.6390 -0.0516
 4022TIP3    H133481   1.349   2.535   2.052 -1.0819  0.3310  0.7226
 4022TIP3    H233482   1.368   2.675   2.107  0.9255  0.6329 -0.6187
 4023TIP3   OH233483   0.618   6.614   5.350  0.4097  0.1141  0.1684
 4023TIP3    H133484   0.595   6.593   5.441  0.2169  1.0299  0.3469
 4023TIP3    H233485   0.635   6.530   5.309 -2.9569 -0.6899  0.1008
 4024TIP3   OH233486   2.133   4.705  16.553  0.0467 -0.1223  0.4425
 4024TIP3    H133487   2.133   4.626  16.498  0.6633 -0.2603  0.6357
 4024TIP3    H233488   2.167   4.774  16.496 -0.2210 -0.0520  0.3640
 4025TIP3   OH233489   1.298   0.115  16.236  0.2563 -0.0138 -0.5457
 4025TIP3    H133490   1.278   0.175  16.165  0.4503  1.1840  0.3850
 4025TIP3    H233491   1.213   0.089  16.271  0.1736 -0.2640 -0.9277
 4026TIP3   OH233492   0.306   4.608   4.513 -0.4866  0.0946 -0.0895
 4026TIP3    H133493   0.268   4.523   4.491 -0.0227 -0.0219 -0.4507
 4026TIP3    H233494   0.377   4.587   4.574 -0.1185  0.1846 -0.4837
 4027TIP3   OH233495   0.400   0.736   1.648  0.5006  0.1057  0.3472
 4027TIP3    H133496   0.356   0.801   1.703 -3.1584 -0.9660 -1.0111
 4027TIP3    H233497   0.389   0.769   1.559  0.1243 -1.4840 -0.2238
 4028TIP3   OH233498   4.023   0.714  12.217 -0.2080  0.3412 -0.2135
 4028TIP3    H133499   4.114   0.735  12.195 -0.0182 -0.5335 -0.3065
 4028TIP3    H233500   3.981   0.698  12.132 -0.1766 -0.2980 -0.1125
 4029TIP3   OH233501   2.435   1.715   5.086 -0.3571  0.2509  0.0198
 4029TIP3    H133502   2.460   1.639   5.034  0.6910  2.4201 -2.9421
 4029TIP3    H233503   2.343   1.700   5.108 -0.6652 -1.1373 -1.9393
 4030TIP3   OH233504   4.464   0.441   2.543 -0.6597 -0.1833  0.1900
 4030TIP3    H133505   4.546   0.473   2.506 -0.8365 -0.1935 -0.2196
 4030TIP3    H233506   4.423   0.518   2.581  0.8428 -0.6471  2.9618
 4031TIP3   OH233507   5.013   0.692  13.170 -0.1755  0.6716  0.1411
 4031TIP3    H133508   5.046   0.610  13.207  1.0561  0.7413 -0.7682
 4031TIP3    H233509   5.088   0.752  13.172 -1.1924  1.9852  1.3127
 4032TIP3   OH233510   3.452   2.571  14.579 -0.3049 -0.3712  0.1004
 4032TIP3    H133511   3.523   2.533  14.632  0.8124 -0.7492 -1.5928
 4032TIP3    H233512   3.479   2.663  14.567  1.4283 -1.1394 -2.8198
 4033TIP3   OH233513   2.865   2.649   5.354 -0.0318 -0.1845  0.4807
 4033TIP3    H133514   2.948   2.654   5.308 -0.7893 -0.6918 -1.0273
 4033TIP3    H233515   2.836   2.559   5.341 -1.1441  0.1700  0.3339
 4034TIP3   OH233516   2.859   4.001  13.822 -0.7139 -0.4470 -0.3597
 4034TIP3    H133517   2.896   3.914  13.806  2.8392  0.3630  2.1547
 4034TIP3    H233518   2.849   4.005  13.917 -1.1376  1.7543 -0.4488
 4035TIP3   OH233519   6.619   6.464  14.155 -0.3995  0.5734  0.4995
 4035TIP3    H133520   6.572   6.404  14.098 -2.1709  0.7940  1.6395
 4035TIP3    H233521   6.632   6.542  14.102  0.0087 -0.0385 -0.3103
 4036TIP3   OH233522   6.672   3.956  16.138  0.0789 -0.3478  0.0997
 4036TIP3    H133523   6.758   3.931  16.171  0.2977  1.2752  0.8673
 4036TIP3    H233524   6.616   3.954  16.215  0.3334  2.3711  0.4303
 4037TIP3   OH233525   5.229   3.545  16.164 -0.5941 -0.1526 -0.3525
 4037TIP3    H133526   5.149   3.505  16.198 -0.3077  0.3309  0.9313
 4037TIP3    H233527   5.289   3.472  16.153 -1.5893 -0.7400 -2.6396
 4038TIP3   OH233528   3.282   1.022  11.070  0.1876 -0.0645 -0.4833
 4038TIP3    H133529   3.293   0.927  11.072 -0.6128 -0.2662  3.6510
 4038TIP3    H233530   3.371   1.056  11.056  0.8782 -1.4484  0.3419
 4039TIP3   OH233531   5.423   5.522   1.501 -0.2681  0.4126  0.5702
 4039TIP3    H133532   5.328   5.522   1.513 -0.3700 -0.1854 -0.1610
 4039TIP3    H233533   5.438   5.582   1.428 -0.0799  0.5327  0.7080
 4040TIP3   OH233534   4.230   2.330   6.057  0.0130  0.3541  0.1462
 4040TIP3    H133535   4.318   2.318   6.023  0.0859  0.9338  0.1177
 4040TIP3    H233536   4.174   2.332   5.979  0.1151  1.1225  0.0790
 4041TIP3   OH233537   6.672   0.891  13.521 -0.5100  0.2292  0.0975
 4041TIP3    H133538   6.645   0.900  13.430 -1.6474 -1.8814  0.1514
 4041TIP3    H233539   6.591   0.895  13.571 -0.0146  0.3251  0.9211
 4042TIP3   OH233540   5.073   5.984   2.443 -0.2097 -0.7929  0.5169
 4042TIP3    H133541   5.051   6.066   2.400 -0.5979 -0.6151  1.0445
 4042TIP3    H233542   5.013   5.979   2.517 -1.2315 -2.2648 -0.3551
 4043TIP3   OH233543   4.020   3.083   4.445  0.2499 -0.1464  0.2271
 4043TIP3    H133544   4.041   3.175   4.427  1.6349 -0.3413  0.7459
 4043TIP3    H233545   3.938   3.068   4.398  0.4178  1.1314 -0.5289
 4044TIP3   OH233546   4.790   1.224   5.629  0.0293 -0.0018  0.3442
 4044TIP3    H133547   4.853   1.215   5.557 -0.4189  0.6467 -0.1370
 4044TIP3    H233548   4.720   1.277   5.593 -1.1886 -1.3558  0.6346
 4045TIP3   OH233549   4.292   6.462   2.562  0.1921  0.2854 -0.2273
 4045TIP3    H133550   4.212   6.409   2.561 -0.1667  0.8185 -1.5771
 4045TIP3    H233551   4.329   6.447   2.649 -0.5343 -1.2248 -0.1433
 4046TIP3   OH233552   2.726   2.785  13.869 -0.3694 -0.7904 -0.1353
 4046TIP3    H133553   2.812   2.783  13.827  0.4895 -0.9334  1.5295
 4046TIP3    H233554   2.700   2.693  13.877 -0.6058 -0.7556 -0.4998
 4047TIP3   OH233555   6.248   3.275  13.220  0.4139 -0.1444  0.3371
 4047TIP3    H133556   6.162   3.234  13.228 -0.4247  1.6995  1.6803
 4047TIP3    H233557   6.248   3.312  13.132 -0.8783  1.1697  0.8327
 4048TIP3   OH233558   3.297   0.313  11.631  0.2433 -0.5909  0.2791
 4048TIP3    H133559   3.360   0.275  11.570 -1.4160 -1.2793 -1.0991
 4048TIP3    H233560   3.248   0.376  11.579 -1.2403 -1.2173  0.8415
 4049TIP3   OH233561   3.785   3.243  15.391 -0.5490  0.2027 -0.2347
 4049TIP3    H133562   3.768   3.172  15.452  0.6554 -1.6127 -1.8983
 4049TIP3    H233563   3.787   3.322  15.446 -1.1222 -1.1226  1.7943
 4050TIP3   OH233564   2.209   0.758  16.202 -0.1850  0.5207 -0.1609
 4050TIP3    H133565   2.211   0.809  16.283 -0.6436 -1.3541  1.0882
 4050TIP3    H233566   2.116   0.750  16.181 -0.4079 -2.3439  1.4262
 4051TIP3   OH233567   0.997   6.515   5.254  0.4899  0.0543  0.8625
 4051TIP3    H133568   1.093   6.511   5.248  0.5496  1.7720  0.1590
 4051TIP3    H233569   0.979   6.594   5.304 -0.5614  0.9816 -0.8570
 4052TIP3   OH233570   0.692   4.199  15.031  0.1175  0.1809  0.4010
 4052TIP3    H133571   0.775   4.230  15.069  1.2279 -0.7547 -1.1647
 4052TIP3    H233572   0.631   4.271  15.046  0.6793  0.1983  3.1912
 4053TIP3   OH233573   1.000   2.654   2.349 -0.0353  1.0232  0.4583
 4053TIP3    H133574   0.966   2.741   2.368 -2.4698  0.9048 -2.5424
 4053TIP3    H233575   1.024   2.657   2.256  1.2437 -1.0921  0.6609
 4054TIP3   OH233576   1.234   4.239   6.549  0.5318  0.2967 -0.4138
 4054TIP3    H133577   1.307   4.182   6.573  0.6672  0.8784  0.6145
 4054TIP3    H233578   1.262   4.327   6.573 -0.5992  0.4930  0.2948
 4055TIP3   OH233579   1.449   3.194  12.735  0.1448 -0.3336 -0.2001
 4055TIP3    H133580   1.491   3.141  12.668  1.0931  2.4208 -1.9500
 4055TIP3    H233581   1.367   3.223  12.696 -0.9178 -1.3749  1.1677
 4056TIP3   OH233582   4.784   4.979   1.274 -0.2258 -0.0075  0.1454
 4056TIP3    H133583   4.810   5.069   1.294 -0.9855  0.4585 -0.8471
 4056TIP3    H233584   4.831   4.925   1.338  0.5446  1.0569  0.5022
 4057TIP3   OH233585   6.211   1.083   4.606  0.4023 -0.4075 -0.1925
 4057TIP3    H133586   6.303   1.069   4.587  0.5452 -0.2534  0.3493
 4057TIP3    H233587   6.172   0.996   4.606  0.8898 -0.6523  1.2312
 4058TIP3   OH233588   3.177   2.031   6.442 -0.2160 -0.2847 -0.8882
 4058TIP3    H133589   3.218   2.100   6.494 -1.7259  0.7229 -0.9542
 4058TIP3    H233590   3.178   1.954   6.499  1.7073 -0.3206 -0.9031
 4059TIP3   OH233591   2.530   5.215   5.522  0.4992  0.0706 -0.1669
 4059TIP3    H133592   2.483   5.161   5.459 -0.4503  0.8795 -0.1818
 4059TIP3    H233593   2.591   5.267   5.469 -0.6796  1.1469 -0.5115
 4060TIP3   OH233594   1.699   6.290   2.151 -0.4930  0.0739  0.5313
 4060TIP3    H133595   1.610   6.303   2.183 -1.3664  0.7168 -1.9725
 4060TIP3    H233596   1.731   6.379   2.132 -0.1507 -0.2846 -0.6442
 4061TIP3   OH233597   0.109   3.984  12.376 -0.6330 -0.5996  0.0885
 4061TIP3    H133598   0.139   3.894  12.389 -1.5608 -1.0940 -1.0601
 4061TIP3    H233599   0.015   3.980  12.390 -0.5243  0.4773  1.3376
 4062TIP3   OH233600   4.728   4.003  16.228  0.1262 -0.4457 -0.2964
 4062TIP3    H133601   4.798   3.992  16.292  0.8184  0.2510 -0.9108
 4062TIP3    H233602   4.688   3.916  16.220 -0.1726 -0.4789  1.2745
 4063TIP3   OH233603   1.923   1.719   0.366  0.4955  0.5852 -0.7948
 4063TIP3    H133604   1.940   1.783   0.435  1.2997 -2.7754  2.4725
 4063TIP3    H233605   1.833   1.690   0.382  0.4834  0.1971 -1.5322
 4064TIP3   OH233606   6.408   4.378  15.563 -0.1579  0.3266  0.3770
 4064TIP3    H133607   6.499   4.406  15.571 -0.0333 -0.2815  1.1959
 4064TIP3    H233608   6.371   4.391  15.651 -0.0439 -2.2104  0.8726
 4065TIP3   OH233609   5.966   2.551   0.409  0.2302  0.0363  0.4898
 4065TIP3    H133610   5.989   2.643   0.413 -0.2394  0.1471  0.7158
 4065TIP3    H233611   5.878   2.549   0.372 -0.1123 -0.2534  1.2925
 4066TIP3   OH233612   2.467   4.445  13.562 -0.4829  0.2507 -0.2451
 4066TIP3    H133613   2.459   4.536  13.589 -0.3193  0.5405 -1.1165
 4066TIP3    H233614   2.513   4.401  13.633 -1.0199  0.7306  0.4108
 4067TIP3   OH233615   4.170   6.748   3.129 -0.4036 -0.3669  0.3352
 4067TIP3    H133616   4.142   6.751   3.037 -0.0333  3.7863  0.1504
 4067TIP3    H233617   4.089   6.754   3.179 -0.4961 -0.7994  0.2422
 4068TIP3   OH233618   0.212   0.225   4.467 -0.8354 -0.7471 -0.2583
 4068TIP3    H133619   0.274   0.280   4.515 -0.8045 -0.9561 -0.0528
 4068TIP3    H233620   0.255   0.206   4.384 -1.3111  0.4456 -0.7903
 4069TIP3   OH233621   2.357   2.050   6.092  0.5721  0.1977  0.5823
 4069TIP3    H133622   2.385   2.101   6.016 -2.2494  1.1283  0.0580
 4069TIP3    H233623   2.381   2.105   6.167 -0.4103  1.2823  0.1308
 4070TIP3   OH233624   6.378   2.273   0.567  0.4511  0.4020 -0.1298
 4070TIP3    H133625   6.428   2.195   0.541 -0.9498 -1.5436  2.5596
 4070TIP3    H233626   6.432   2.315   0.633  1.1663  1.7775 -1.5185
 4071TIP3   OH233627   5.122   0.723  14.289  0.9199  0.5338 -0.3595
 4071TIP3    H133628   5.191   0.782  14.260  0.3390  1.2969 -0.2069
 4071TIP3    H233629   5.166   0.639  14.302  1.2589  0.0701 -3.5305
 4072TIP3   OH233630   1.858   0.559  15.634  0.7215  0.0994  0.2007
 4072TIP3    H133631   1.908   0.637  15.611  0.4723  0.1082 -0.3358
 4072TIP3    H233632   1.768   0.590  15.644  0.3547 -0.3312 -1.4296
 4073TIP3   OH233633   0.303   0.810  12.314 -0.4617 -0.4201  0.1792
 4073TIP3    H133634   0.273   0.893  12.352 -0.9962 -0.7904  0.5874
 4073TIP3    H233635   0.394   0.826  12.291 -0.3742  0.0831  0.8443
 4074TIP3   OH233636   1.607   2.493   5.186  0.6344 -0.4684  0.0757
 4074TIP3    H133637   1.616   2.573   5.134  0.8426 -1.1259 -0.9289
 4074TIP3    H233638   1.532   2.509   5.242  1.0561  0.6758  0.3486
 4075TIP3   OH233639   0.698   3.216   4.841 -0.1182  0.2843 -0.4616
 4075TIP3    H133640   0.662   3.257   4.763 -1.3603 -1.4554 -0.8433
 4075TIP3    H233641   0.791   3.205   4.822 -0.3641  0.1113 -1.5927
 4076TIP3   OH233642   3.587   6.427   5.256  0.1123  0.4946  0.2276
 4076TIP3    H133643   3.623   6.338   5.263 -2.3500 -0.6515 -0.5277
 4076TIP3    H233644   3.632   6.465   5.181 -0.7386 -1.2038 -1.2338
 4077TIP3   OH233645   2.756   3.375   6.311 -0.2873  0.4669  0.0880
 4077TIP3    H133646   2.710   3.324   6.378 -0.6324 -0.1539 -0.6131
 4077TIP3    H233647   2.799   3.445   6.360  0.0990 -0.4207  1.0620
 4078TIP3   OH233648   1.666   6.558   0.410  0.2662  0.5592  0.2754
 4078TIP3    H133649   1.631   6.608   0.337  1.7619 -0.9913 -1.6099
 4078TIP3    H233650   1.738   6.611   0.444  0.5945  0.5774 -0.4402
 4079TIP3   OH233651   1.986   4.204   6.987  0.4920  0.1253 -0.6998
 4079TIP3    H133652   1.918   4.184   7.050 -0.1895  0.5608 -1.2757
 4079TIP3    H233653   1.992   4.300   6.987 -0.4526  0.2196 -2.2255
 4080TIP3   OH233654   3.251   4.429  14.885  0.4308 -0.0978  0.6079
 4080TIP3    H133655   3.257   4.372  14.962  1.1637 -1.2839 -0.2964
 4080TIP3    H233656   3.336   4.420  14.841  0.3591  1.2656  0.1224
 4081TIP3   OH233657   4.727   4.484   3.555 -0.0533 -0.1132  0.1798
 4081TIP3    H133658   4.807   4.530   3.580 -1.0753  1.7592  0.2269
 4081TIP3    H233659   4.674   4.551   3.512 -1.5206 -1.3533 -0.0222
 4082TIP3   OH233660   2.595   5.005  14.992  0.4870  0.2037 -0.0366
 4082TIP3    H133661   2.568   5.011  14.900 -0.7329  2.7347  0.4168
 4082TIP3    H233662   2.673   4.950  14.990  1.5156  1.5955 -2.8247
 4083TIP3   OH233663   6.402   1.410  16.674 -0.1923  0.2441 -0.4992
 4083TIP3    H133664   6.490   1.391  16.643 -0.6725  0.0804 -1.8574
 4083TIP3    H233665   6.389   1.503  16.653 -0.9508 -0.1637 -1.9543
 4084TIP3   OH233666   5.277   4.252   0.130  0.3386  0.2754  0.7670
 4084TIP3    H133667   5.303   4.214   0.046  2.4141  1.4300  0.8091
 4084TIP3    H233668   5.295   4.183   0.194 -1.8273 -0.8367  0.2810
 4085TIP3   OH233669   4.620   0.203  14.182  0.1227 -0.1304  0.0891
 4085TIP3    H133670   4.701   0.224  14.229  0.0228  1.6796 -0.4730
 4085TIP3    H233671   4.647   0.195  14.090 -0.3174  0.3896 -0.0879
 4086TIP3   OH233672   1.521   4.653  17.168 -0.4937  0.4068 -0.0306
 4086TIP3    H133673   1.443   4.599  17.165 -1.1760  1.3060 -3.4826
 4086TIP3    H233674   1.500   4.723  17.231 -1.4494 -0.6787  0.8938
 4087TIP3   OH233675   2.620   1.336  17.039 -0.0532 -0.4096  0.2243
 4087TIP3    H133676   2.665   1.419  17.058 -1.7684  0.2880  1.4603
 4087TIP3    H233677   2.618   1.291  17.123 -1.1319 -0.6928  0.0512
 4088TIP3   OH233678   0.669   5.203  16.261  0.1367 -0.4569 -0.0376
 4088TIP3    H133679   0.594   5.220  16.318 -0.9409  0.9746 -1.7792
 4088TIP3    H233680   0.633   5.204  16.173  2.2695  0.9598 -0.9831
 4089TIP3   OH233681   3.573   4.310  13.369 -0.6911 -0.1959  0.5029
 4089TIP3    H133682   3.610   4.398  13.370 -1.3582  0.1454 -1.1378
 4089TIP3    H233683   3.528   4.302  13.453 -1.1946  1.2917  0.4047
 4090TIP3   OH233684   1.378   3.941  15.590  0.0933 -0.7370 -0.2429
 4090TIP3    H133685   1.291   3.919  15.625 -0.5946  2.4099  0.3325
 4090TIP3    H233686   1.437   3.927  15.664 -0.7245  1.6596  0.9855
 4091TIP3   OH233687   0.540   2.340  13.531 -0.0684  0.1705  0.3616
 4091TIP3    H133688   0.472   2.407  13.538 -1.7331 -1.3888 -0.2084
 4091TIP3    H233689   0.496   2.259  13.555  2.1706 -0.6308  2.1813
 4092TIP3   OH233690   3.188   2.843  12.511  0.3547  0.1355 -0.4028
 4092TIP3    H133691   3.128   2.772  12.489  1.6706 -0.9192 -0.6713
 4092TIP3    H233692   3.168   2.864  12.602  2.0685 -2.7814  0.7525
 4093TIP3   OH233693   0.534   0.024   1.965 -0.0280  0.1322  0.7312
 4093TIP3    H133694   0.477   0.075   2.024  0.4027 -0.0130  1.2806
 4093TIP3    H233695   0.617   0.017   2.012  1.3012  2.3903 -1.0349
 4094TIP3   OH233696   5.970   6.452  12.586 -0.0455 -0.2364 -0.2918
 4094TIP3    H133697   5.970   6.533  12.535  0.0707  1.2337  1.9122
 4094TIP3    H233698   6.062   6.437  12.607 -0.2732  0.7136  1.6601
 4095TIP3   OH233699   0.483   6.117  16.829  0.6282  0.5728 -0.3694
 4095TIP3    H133700   0.477   6.025  16.856 -0.3592  0.9796  0.8926
 4095TIP3    H233701   0.568   6.124  16.785  1.3137 -0.6438  0.6962
 4096TIP3   OH233702   1.457   6.329   2.235 -0.1987 -0.6699 -0.3108
 4096TIP3    H133703   1.370   6.366   2.217  0.4164  2.0299  1.5270
 4096TIP3    H233704   1.441   6.265   2.304 -0.8957 -1.3651 -1.0983
 4097TIP3   OH233705   3.220   0.630  15.197 -0.6026 -0.0212  0.0515
 4097TIP3    H133706   3.169   0.666  15.125  0.7954  0.7205 -0.6034
 4097TIP3    H233707   3.173   0.656  15.276 -0.8190  1.3528 -0.5074
 4098TIP3   OH233708   5.648   3.026   3.930 -0.3927 -0.1418 -0.0267
 4098TIP3    H133709   5.726   3.052   3.979 -0.8894 -1.7197  1.7425
 4098TIP3    H233710   5.574   3.054   3.985 -0.9668 -1.8978  0.1882
 4099TIP3   OH233711   2.889   0.493   5.054 -0.2317 -0.3128  0.1647
 4099TIP3    H133712   2.824   0.463   4.990 -0.0738 -2.7631  1.0743
 4099TIP3    H233713   2.971   0.454   5.025 -0.1125 -1.2689  1.6713
 4100TIP3   OH233714   1.658   6.451   6.527 -0.1269 -0.1259 -0.0237
 4100TIP3    H133715   1.702   6.378   6.484  2.5282  0.7646  0.9684
 4100TIP3    H233716   1.572   6.417   6.551 -0.3884 -1.7196 -2.8461
 4101TIP3   OH233717   0.972   3.748   1.389  0.2123 -0.2945  0.0818
 4101TIP3    H133718   1.057   3.778   1.419 -0.2376  1.9971 -0.7083
 4101TIP3    H233719   0.979   3.744   1.293 -0.7959  0.8892 -0.0774
 4102TIP3   OH233720   6.306   5.115   4.488 -0.1872 -0.3723  0.3658
 4102TIP3    H133721   6.323   5.036   4.539  1.0311 -0.4128 -0.0682
 4102TIP3    H233722   6.320   5.187   4.549  0.2671 -0.4548  0.3670
 4103TIP3   OH233723   1.414   4.204  16.120  0.5714 -0.1679  0.3802
 4103TIP3    H133724   1.438   4.287  16.160  1.4679  0.1376 -0.7446
 4103TIP3    H233725   1.406   4.223  16.027 -2.0284 -0.7357  0.4130
 4104TIP3   OH233726   1.377   2.403  12.965 -0.4015 -0.6526  0.0547
 4104TIP3    H133727   1.373   2.409  12.869 -0.3441 -2.7609 -0.1392
 4104TIP3    H233728   1.403   2.490  12.994 -0.9890  0.1908 -1.8103
 4105TIP3   OH233729   3.663   1.765   3.576 -0.4145  0.1792  0.4264
 4105TIP3    H133730   3.684   1.849   3.536  2.0311 -0.5892 -0.0630
 4105TIP3    H233731   3.654   1.705   3.502  1.2577 -0.6594  0.8638
 4106TIP3   OH233732   0.155   4.915  12.812 -0.5041  0.9720  0.2125
 4106TIP3    H133733   0.212   4.991  12.796 -1.4431  1.1840 -2.8452
 4106TIP3    H233734   0.119   4.894  12.726 -1.6757 -1.8818  1.2717
 4107TIP3   OH233735   0.499   5.594   0.988 -0.0348 -0.2858 -0.1462
 4107TIP3    H133736   0.522   5.508   1.021 -0.0507 -1.4057 -2.8565
 4107TIP3    H233737   0.554   5.654   1.038  1.5253 -2.0386  0.3434
 4108TIP3   OH233738   1.636   5.046   1.929 -0.2425 -0.3729 -0.2388
 4108TIP3    H133739   1.576   5.046   2.004  0.3400  1.2280  0.2620
 4108TIP3    H233740   1.646   5.138   1.906  0.5551 -0.7534 -1.5211
 4109TIP3   OH233741   4.700   2.673  14.488 -0.2303  0.3909  0.2151
 4109TIP3    H133742   4.765   2.670  14.418  1.6170 -0.8267  1.8896
 4109TIP3    H233743   4.642   2.599  14.470  1.3295 -1.0536  0.9149
 4110TIP3   OH233744   4.263   3.725  14.130  0.6280 -0.1866 -0.4627
 4110TIP3    H133745   4.319   3.795  14.097 -0.3728 -0.8074 -3.8474
 4110TIP3    H233746   4.320   3.675  14.190  2.7833  0.8263 -1.5705
 4111TIP3   OH233747   3.215   1.941  13.254  0.3177 -0.5000  0.5842
 4111TIP3    H133748   3.126   1.974  13.239  0.2733 -0.1657  1.5217
 4111TIP3    H233749   3.249   1.923  13.166 -1.1647 -1.9432  0.2483
 4112TIP3   OH233750   2.821   0.025   2.913 -0.5604 -0.4578 -0.6137
 4112TIP3    H133751   2.784   0.069   2.836  1.1955 -0.9467 -1.7947
 4112TIP3    H233752   2.875   0.092   2.955  2.1660 -1.3252 -2.4484
 4113TIP3   OH233753   0.561   4.955   6.485 -0.4122 -0.2123  0.4154
 4113TIP3    H133754   0.579   4.950   6.579 -1.1564 -0.7115  0.5375
 4113TIP3    H233755   0.647   4.970   6.445 -0.1901  0.7628  1.2271
 4114TIP3   OH233756   5.343   4.685  15.988  0.4974  0.6871 -0.2606
 4114TIP3    H133757   5.296   4.728  15.917  0.0911 -0.9895 -1.0443
 4114TIP3    H233758   5.335   4.746  16.062 -2.4704  0.7414 -0.5082
 4115TIP3   OH233759   6.551   2.290   3.807 -0.3718  0.1636  0.2206
 4115TIP3    H133760   6.639   2.303   3.769 -0.0992  0.8128  1.0400
 4115TIP3    H233761   6.492   2.324   3.740 -0.0891 -1.3455 -0.8407
 4116TIP3   OH233762   1.151   5.308   6.195 -0.2638 -0.3001 -0.2383
 4116TIP3    H133763   1.124   5.394   6.226 -0.9646 -0.8171  0.6449
 4116TIP3    H233764   1.127   5.248   6.266 -0.3048 -1.2962 -1.0678
 4117TIP3   OH233765   6.699   2.209  11.647  0.3831 -0.5038  0.3408
 4117TIP3    H133766   6.622   2.167  11.609  0.9128 -1.3364  0.1620
 4117TIP3    H233767   6.695   2.189  11.740 -0.3177  0.5895  0.5626
 4118TIP3   OH233768   4.908   1.668   1.275 -1.1278 -0.1961 -0.2547
 4118TIP3    H133769   5.000   1.644   1.284 -1.1172 -0.0220  0.1458
 4118TIP3    H233770   4.882   1.696   1.363 -1.0215  1.6820 -0.7925
 4119TIP3   OH233771   2.772   1.955  15.270 -0.2764 -0.0561 -0.3267
 4119TIP3    H133772   2.762   2.003  15.187  1.7004  1.6892  0.3566
 4119TIP3    H233773   2.717   2.003  15.332  1.7567  1.5019  0.3735
 4120TIP3   OH233774   3.966   3.366  12.267  0.3144  0.3930  0.0139
 4120TIP3    H133775   3.948   3.412  12.349  1.6556  2.7051 -0.8736
 4120TIP3    H233776   3.908   3.409  12.203 -1.4934 -2.0792 -0.1425
 4121TIP3   OH233777   0.024   6.183   5.009  0.1623  0.3278 -0.4362
 4121TIP3    H133778   0.097   6.229   5.050 -0.2733 -1.2278  2.3026
 4121TIP3    H233779   0.058   6.097   4.985 -0.6825 -0.4010  0.8313
 4122TIP3   OH233780   0.360   6.278   6.455 -0.1631 -0.6403  0.0328
 4122TIP3    H133781   0.416   6.227   6.514  0.9798  0.2829 -0.2086
 4122TIP3    H233782   0.419   6.343   6.416 -1.0391 -0.7516 -1.5795
 4123TIP3   OH233783   0.377   2.198  12.140 -0.4745  0.3430 -0.0845
 4123TIP3    H133784   0.458   2.218  12.188  0.4014 -1.8348 -0.5326
 4123TIP3    H233785   0.407   2.166  12.055 -1.7495 -1.2332  0.0216
 4124TIP3   OH233786   6.166   0.886   5.372  0.2654 -0.0088  1.1167
 4124TIP3    H133787   6.176   0.893   5.467 -0.7543 -2.6621  1.5033
 4124TIP3    H233788   6.105   0.813   5.359  0.9600 -0.2275 -1.5988
 4125TIP3   OH233789   5.900   6.716   1.207  0.0371  0.0412  0.9849
 4125TIP3    H133790   5.946   6.785   1.159 -0.8614  1.7961  2.4807
 4125TIP3    H233791   5.954   6.638   1.196 -0.3000  0.1611 -3.1331
 4126TIP3   OH233792   0.889   4.331  16.830 -0.3551  0.0060 -0.0267
 4126TIP3    H133793   0.796   4.346  16.814 -0.3007 -0.4202 -0.7805
 4126TIP3    H233794   0.919   4.282  16.754 -0.0261 -1.9249  1.2656
 4127TIP3   OH233795   4.094   6.420  16.558 -0.0578 -0.0590 -0.6671
 4127TIP3    H133796   4.020   6.396  16.502 -1.0467 -0.2091  0.6622
 4127TIP3    H233797   4.108   6.344  16.614  1.8512 -0.4678 -1.6173
 4128TIP3   OH233798   0.994   1.415   2.979 -0.0406  0.2517 -0.0467
 4128TIP3    H133799   1.000   1.329   2.938 -0.4185 -0.3556  1.1170
 4128TIP3    H233800   1.085   1.446   2.985  0.3137 -0.9804  1.3630
 4129TIP3   OH233801   0.749   0.849  16.086 -0.1437  0.3319 -0.4215
 4129TIP3    H133802   0.689   0.903  16.138 -0.6068 -0.8921  0.3759
 4129TIP3    H233803   0.833   0.895  16.091 -1.1032  2.4363 -2.1116
 4130TIP3   OH233804   0.061   4.844   3.095  0.2122  0.1701 -0.0571
 4130TIP3    H133805  -0.010   4.816   3.154  0.7001 -1.4075 -0.1717
 4130TIP3    H233806   0.071   4.938   3.113 -1.2000  0.2165  0.6990
 4131TIP3   OH233807   4.073   2.901  12.921  0.5615 -0.5454  0.4650
 4131TIP3    H133808   4.150   2.935  12.875  1.7507  0.5119  3.0582
 4131TIP3    H233809   4.102   2.818  12.958  0.1913 -0.5178  0.8152
 4132TIP3   OH233810   5.308   1.833  13.558 -1.0649 -0.2895 -0.3833
 4132TIP3    H133811   5.226   1.786  13.577 -1.0471 -0.7095 -1.2840
 4132TIP3    H233812   5.357   1.773  13.502  0.2576 -0.4145  0.8400
 4133TIP3   OH233813   1.268   0.627  14.405  0.4007  0.0877 -0.7097
 4133TIP3    H133814   1.211   0.589  14.337 -3.0888 -1.1072  2.5192
 4133TIP3    H233815   1.258   0.721  14.394  0.7179 -0.0491 -2.4173
 4134TIP3   OH233816   6.054   0.036  16.632  0.1300  0.3084  0.1441
 4134TIP3    H133817   6.004  -0.046  16.636  0.6722 -0.0429 -0.1383
 4134TIP3    H233818   6.091   0.046  16.720  0.9495 -0.3260 -0.1128
 4135TIP3   OH233819   0.708   1.334   3.426  0.2518  0.3500 -0.1517
 4135TIP3    H133820   0.742   1.344   3.337  1.6035  0.4384  0.3390
 4135TIP3    H233821   0.623   1.292   3.415  0.8519 -0.6076 -1.4252
 4136TIP3   OH233822   4.303   2.789   4.241 -0.1500 -0.2633  0.1226
 4136TIP3    H133823   4.227   2.750   4.284  0.9097 -0.6397  1.7323
 4136TIP3    H233824   4.303   2.880   4.270 -0.5343  0.0091 -0.6934
 4137TIP3   OH233825   5.647   6.670   0.860 -0.1242  0.4113  0.2159
 4137TIP3    H133826   5.631   6.576   0.870  1.6002  0.3191  3.1962
 4137TIP3    H233827   5.561   6.708   0.846 -0.8879 -1.5572 -0.7591
 4138TIP3   OH233828   0.537   0.563   1.099  0.3808  0.5047  0.6525
 4138TIP3    H133829   0.530   0.640   1.042  0.6259 -0.1592 -0.3022
 4138TIP3    H233830   0.485   0.496   1.055 -2.8786  1.0660  3.2389
 4139TIP3   OH233831   3.119   4.684  14.860 -0.8162  0.2141  0.1400
 4139TIP3    H133832   3.121   4.632  14.779  1.2425 -0.0890  0.3336
 4139TIP3    H233833   3.130   4.620  14.930  4.2497  0.8252  0.2980
 4140TIP3   OH233834   2.520   0.205   1.772 -0.4263 -0.1584 -0.3608
 4140TIP3    H133835   2.573   0.247   1.705 -0.0793 -0.5491 -0.3409
 4140TIP3    H233836   2.433   0.197   1.733 -1.1206  2.5526  0.4362
 4141TIP3   OH233837   6.715   0.252   6.478 -0.5285 -0.3182 -0.1709
 4141TIP3    H133838   6.779   0.296   6.534 -0.1896 -0.8027 -0.1771
 4141TIP3    H233839   6.659   0.203   6.538 -0.6096 -0.2681 -0.2047
 4142TIP3   OH233840   6.464   6.332  13.691  0.0027  0.3428 -0.1940
 4142TIP3    H133841   6.386   6.380  13.719  0.4430  1.4264 -0.7671
 4142TIP3    H233842   6.446   6.306  13.601  0.2020  0.3573 -0.2376
 4143TIP3   OH233843   4.919   1.190  12.683  0.3181 -0.3043 -0.3761
 4143TIP3    H133844   4.996   1.214  12.734  0.5278  0.3393 -0.9702
 4143TIP3    H233845   4.850   1.177  12.748  1.0277 -1.3310  0.1967
 4144TIP3   OH233846   0.735   5.761   3.065 -0.1835 -0.0502  0.5062
 4144TIP3    H133847   0.699   5.710   3.137 -0.1666 -0.5688  0.1579
 4144TIP3    H233848   0.795   5.700   3.020  0.1486  0.4010  0.3244
 4145TIP3   OH233849   2.049   0.666  13.428 -0.2349 -0.0870  0.2348
 4145TIP3    H133850   2.117   0.675  13.495 -0.6605  0.6165  0.5901
 4145TIP3    H233851   1.994   0.595  13.461  0.5361 -0.9203 -0.2483
 4146TIP3   OH233852   1.004   3.568   3.224 -0.5242 -0.0871 -0.1905
 4146TIP3    H133853   0.972   3.658   3.228 -0.0057  0.0648  1.9561
 4146TIP3    H233854   0.986   3.533   3.311 -0.7002 -2.0798 -0.9863
 4147TIP3   OH233855   5.676   3.002   2.922  0.2659 -0.6471  0.4058
 4147TIP3    H133856   5.638   3.076   2.968  0.5385  1.3291 -2.2752
 4147TIP3    H233857   5.603   2.944   2.904 -0.6209  0.6279 -0.2827
 4148TIP3   OH233858   1.044   6.387   0.465 -0.2598 -0.2805  0.4209
 4148TIP3    H133859   1.138   6.371   0.460 -0.1194  0.0446  1.6953
 4148TIP3    H233860   1.030   6.466   0.413  0.2365 -0.0815  0.5882
 4149TIP3   OH233861   0.345   5.726   4.519  0.3261  0.2840 -0.5984
 4149TIP3    H133862   0.375   5.649   4.568 -1.2008 -1.9674 -2.9259
 4149TIP3    H233863   0.262   5.750   4.560  1.0672  1.1236  0.4791
 4150TIP3   OH233864   4.612   2.318  13.489  0.0195 -0.0628 -0.1218
 4150TIP3    H133865   4.605   2.242  13.431 -0.8094 -0.0894  0.0086
 4150TIP3    H233866   4.645   2.281  13.571  0.3991 -0.1522 -0.3102
 4151TIP3   OH233867   1.832   5.270   0.960  0.4182 -0.3378 -0.4294
 4151TIP3    H133868   1.787   5.253   0.878 -1.9437 -0.3542  0.7841
 4151TIP3    H233869   1.889   5.345   0.942  0.6567 -0.9269 -2.2703
 4152TIP3   OH233870   1.443   5.267   5.817  0.3018 -0.1952 -0.2263
 4152TIP3    H133871   1.440   5.289   5.910 -1.3926 -1.5437  0.0952
 4152TIP3    H233872   1.380   5.326   5.776 -1.6341 -1.8893  0.1051
 4153TIP3   OH233873   2.738   0.326  16.669 -0.7845  0.2540  0.5297
 4153TIP3    H133874   2.751   0.414  16.633  0.4383  0.0904  0.5047
 4153TIP3    H233875   2.654   0.298  16.635 -2.0486  2.0812  1.9436
 4154TIP3   OH233876   0.491   3.526  14.447 -0.3518 -0.3962  0.0252
 4154TIP3    H133877   0.456   3.507  14.360 -0.9980  1.7852 -0.2462
 4154TIP3    H233878   0.426   3.491  14.508 -1.4966  0.8374 -0.4404
 4155TIP3   OH233879   4.171   4.632  17.395 -0.3418 -0.3217 -0.2137
 4155TIP3    H133880   4.253   4.590  17.420  0.6477  0.5675 -1.8211
 4155TIP3    H233881   4.118   4.561  17.360  0.1838 -0.7200 -0.2210
 4156TIP3   OH233882   1.125   4.292   0.256 -0.1960 -0.0084 -0.0295
 4156TIP3    H133883   1.161   4.266   0.170 -1.8776 -0.3092 -0.6689
 4156TIP3    H233884   1.057   4.356   0.235 -1.2316 -0.7317  1.0122
 4157TIP3   OH233885   0.944   2.859  13.774  0.5193 -0.0700 -0.0370
 4157TIP3    H133886   0.989   2.778  13.749  2.0012  0.6410  0.2187
 4157TIP3    H233887   1.004   2.929  13.747  0.1800  0.8746  1.5292
 4158TIP3   OH233888   0.308   5.186  11.681  0.2804  0.3757  0.4460
 4158TIP3    H133889   0.254   5.177  11.602 -0.5266 -1.1600  1.1406
 4158TIP3    H233890   0.386   5.233  11.651  0.4733 -1.0427 -1.5045
 4159TIP3   OH233891   6.176   4.344  16.904  0.0511  0.8665  0.1018
 4159TIP3    H133892   6.203   4.410  16.841  1.5451  0.9021  0.7341
 4159TIP3    H233893   6.258   4.312  16.941 -0.5483 -1.9260 -0.7529
 4160TIP3   OH233894   5.295   4.545  12.783 -0.0138 -0.2603 -0.0914
 4160TIP3    H133895   5.342   4.571  12.704  0.3152 -0.5587  0.0042
 4160TIP3    H233896   5.247   4.465  12.757 -2.6008  1.4437 -0.9684
 4161TIP3   OH233897   2.458   6.564   5.221  0.2135  0.1002 -0.1697
 4161TIP3    H133898   2.549   6.536   5.211  0.4498  1.0489 -0.8491
 4161TIP3    H233899   2.420   6.502   5.283  1.4656  0.0107  0.5408
 4162TIP3   OH233900   6.411   1.369   3.520 -0.3987 -0.1040  0.2964
 4162TIP3    H133901   6.479   1.358   3.587  0.3373 -0.0406 -0.4171
 4162TIP3    H233902   6.354   1.438   3.554  0.1929  0.2041  0.6814
 4163TIP3   OH233903   6.358   4.761  14.212 -0.6417  0.1037  0.3538
 4163TIP3    H133904   6.289   4.722  14.266 -0.6832 -1.2409 -0.6124
 4163TIP3    H233905   6.316   4.835  14.168 -1.5572 -0.8510 -0.4106
 4164TIP3   OH233906   3.262   5.910  17.207  0.5626  0.0742 -0.4616
 4164TIP3    H133907   3.316   5.840  17.245  0.5866  1.0188  1.3359
 4164TIP3    H233908   3.285   5.988  17.257 -1.2252  0.8708 -0.7980
 4165TIP3   OH233909   5.093   5.914   0.375  0.5296 -0.0832 -0.3311
 4165TIP3    H133910   5.077   5.861   0.453 -2.0018  0.4722 -0.3935
 4165TIP3    H233911   5.167   5.970   0.399  1.0692 -1.2881  0.9321
 4166TIP3   OH233912   2.212   4.332   2.848  0.3148  0.5640  0.1236
 4166TIP3    H133913   2.184   4.320   2.939 -1.3570  1.6674 -0.1917
 4166TIP3    H233914   2.253   4.249   2.824 -1.3330 -0.6280  1.1803
 4167TIP3   OH233915   5.449   1.897  12.735 -0.8322 -0.0994 -0.5191
 4167TIP3    H133916   5.483   1.854  12.657 -1.4287 -1.9393  0.1800
 4167TIP3    H233917   5.360   1.862  12.745 -0.9441  0.4678  0.7062
 4168TIP3   OH233918   4.774   3.300  10.711 -0.2905  0.0182 -0.1489
 4168TIP3    H133919   4.863   3.292  10.744 -0.7632 -1.7558  0.8353
 4168TIP3    H233920   4.780   3.362  10.639  1.5554  0.6648  0.5118
 4169TIP3   OH233921   2.635   6.322   0.780 -0.4519 -0.5712 -0.2610
 4169TIP3    H133922   2.616   6.366   0.697  1.3340  1.2049  0.1918
 4169TIP3    H233923   2.616   6.388   0.847  2.3317 -0.3590  0.4397
 4170TIP3   OH233924   3.794   3.624   4.980  0.0054 -0.3964  0.1157
 4170TIP3    H133925   3.827   3.540   5.013  1.6183  0.1813  0.0589
 4170TIP3    H233926   3.868   3.685   4.990 -0.6781  0.6946 -1.1130
 4171TIP3   OH233927   5.495   2.834   2.665 -0.2487  0.6252  1.1861
 4171TIP3    H133928   5.485   2.851   2.759 -0.3741  3.1430  0.7801
 4171TIP3    H233929   5.571   2.886   2.640  0.5357 -0.9860  0.0796
 4172TIP3   OH233930   4.310   4.318  16.233 -0.1217  0.0515  0.1795
 4172TIP3    H133931   4.332   4.245  16.176 -1.4797  0.5229 -1.0261
 4172TIP3    H233932   4.362   4.304  16.313  0.7718 -1.3763 -0.6219
 4173TIP3   OH233933   3.147   0.919   5.421  0.1102 -0.3454  0.5668
 4173TIP3    H133934   3.208   0.845   5.413 -1.6370 -1.7141 -0.7877
 4173TIP3    H233935   3.172   0.978   5.350  0.8783 -0.1043  1.0295
 4174TIP3   OH233936   3.534   5.060  16.138 -0.2513 -0.5994 -0.3033
 4174TIP3    H133937   3.627   5.074  16.156 -0.0039 -0.4149 -1.6247
 4174TIP3    H233938   3.498   5.026  16.220  0.4737  1.6065  1.0136
 4175TIP3   OH233939   5.229   2.595  14.533 -0.1486  0.4358 -0.1604
 4175TIP3    H133940   5.197   2.549  14.456  0.8296 -1.9615  0.7676
 4175TIP3    H233941   5.246   2.526  14.597  0.3703  2.2121  1.7447
 4176TIP3   OH233942   4.101   0.775  16.994 -0.5465  0.7958  0.4649
 4176TIP3    H133943   4.131   0.770  17.084 -0.0952  1.0324  0.3344
 4176TIP3    H233944   4.103   0.684  16.963 -0.7472  0.7086  0.7028
 4177TIP3   OH233945   2.971   0.074  16.359  0.5627 -0.1521  0.2530
 4177TIP3    H133946   3.052   0.023  16.368 -0.5558 -1.9130  0.7483
 4177TIP3    H233947   2.955   0.077  16.265  1.7341  1.1009  0.0743
 4178TIP3   OH233948   5.298   4.695  15.713 -0.1728  0.1118 -0.1457
 4178TIP3    H133949   5.267   4.782  15.686 -1.9681 -0.2377  0.6834
 4178TIP3    H233950   5.295   4.643  15.633 -0.3921  0.4568 -0.3664
 4179TIP3   OH233951   1.526   5.021   0.369 -0.6702  0.4772  0.1386
 4179TIP3    H133952   1.539   4.971   0.449 -0.6206 -0.5307 -0.4902
 4179TIP3    H233953   1.550   5.111   0.393  0.6427 -0.0536  0.8916
 4180TIP3   OH233954   3.326   4.954  11.770 -0.0423 -0.4888  0.2235
 4180TIP3    H133955   3.386   4.933  11.698 -1.4833  0.1642 -1.2004
 4180TIP3    H233956   3.305   4.868  11.808  1.8197 -0.7292  0.8068
 4181TIP3   OH233957   5.558   1.221  15.108 -0.4557  0.1814  0.1655
 4181TIP3    H133958   5.513   1.214  15.192  0.8716  1.0461  0.9977
 4181TIP3    H233959   5.618   1.295  15.120 -0.5692  0.6134 -1.7066
 4182TIP3   OH233960   6.203   5.366  14.276  0.1812 -0.0063 -0.2410
 4182TIP3    H133961   6.222   5.325  14.191 -0.8453  0.0545 -0.5050
 4182TIP3    H233962   6.119   5.410  14.264  1.5473  2.8672 -0.2005
 4183TIP3   OH233963   0.662   0.704   2.539 -0.5267 -0.3845  0.3269
 4183TIP3    H133964   0.667   0.773   2.605 -1.1657 -1.4273  1.5179
 4183TIP3    H233965   0.752   0.692   2.510 -0.3793  0.7646  0.2936
 4184TIP3   OH233966   2.939   5.642   2.610 -0.1014  1.0781  0.6935
 4184TIP3    H133967   3.033   5.651   2.597 -0.3051  1.1458 -0.9609
 4184TIP3    H233968   2.928   5.554   2.646  0.6147  1.2148  1.2700
 4185TIP3   OH233969   6.466   0.510  16.472  0.8609  0.3400  0.0040
 4185TIP3    H133970   6.414   0.558  16.536 -0.8993 -2.9014  1.2253
 4185TIP3    H233971   6.508   0.578  16.419 -1.8144  3.1489  1.2175
 4186TIP3   OH233972   1.899   5.265  15.247  0.1128  0.2387 -0.1405
 4186TIP3    H133973   1.809   5.256  15.278 -0.7651  3.2480 -1.4418
 4186TIP3    H233974   1.951   5.280  15.326 -0.6104 -0.9080  0.5693
 4187TIP3   OH233975   4.997   1.813  15.129 -0.0953  0.0768 -0.1462
 4187TIP3    H133976   4.919   1.758  15.139  0.1489 -0.3479 -0.5319
 4187TIP3    H233977   4.982   1.886  15.189  0.2892 -1.2168  1.6232
 4188TIP3   OH233978   2.157   3.299  15.997 -0.5864  0.5721 -0.5326
 4188TIP3    H133979   2.151   3.326  15.906 -2.1411 -1.4411 -1.1081
 4188TIP3    H233980   2.076   3.331  16.037 -1.0961 -0.6617 -0.5255
 4189TIP3   OH233981   4.128   1.875  16.747  0.2469 -0.2945  0.3804
 4189TIP3    H133982   4.086   1.831  16.821 -2.4118  1.7899  0.2647
 4189TIP3    H233983   4.083   1.841  16.670 -0.4086  1.0351  0.1466
 4190TIP3   OH233984   3.083   0.575   2.816  0.0444  0.5419  0.4553
 4190TIP3    H133985   3.051   0.623   2.740 -0.1600  0.7405  0.6626
 4190TIP3    H233986   3.006   0.528   2.849 -0.0026  0.8800  0.8500
 4191TIP3   OH233987   5.124   3.871  11.765  0.0323 -0.0027 -0.2160
 4191TIP3    H133988   5.206   3.832  11.796  0.4943 -0.0955 -1.5049
 4191TIP3    H233989   5.100   3.933  11.834  0.5488 -0.8236  0.7410
 4192TIP3   OH233990   0.492   4.448   5.516  0.0794 -0.4342 -0.0004
 4192TIP3    H133991   0.522   4.487   5.598  1.3122 -1.6156  0.1429
 4192TIP3    H233992   0.443   4.371   5.542  0.5665 -0.8744 -0.3656
 4193TIP3   OH233993   1.979   1.166  16.110  0.2672  0.3825  0.1537
 4193TIP3    H133994   1.931   1.237  16.152 -0.8177  0.1412 -0.6433
 4193TIP3    H233995   2.032   1.209  16.043 -2.1938  0.2980 -1.9982
 4194TIP3   OH233996   2.156   5.374  17.248  0.3764 -1.0196  0.2925
 4194TIP3    H133997   2.237   5.404  17.288 -0.4432  1.6988  0.0743
 4194TIP3    H233998   2.089   5.391  17.313 -0.1776 -2.5109  0.1623
 4195TIP3   OH233999   1.950   0.056   5.124  0.1009  0.3049 -0.5450
 4195TIP3    H134000   1.925   0.079   5.034 -2.0712  0.4765  0.0514
 4195TIP3    H234001   1.910  -0.030   5.139 -1.6407  1.3169  1.0087
 4196TIP3   OH234002   2.798   0.595   5.991  0.3781  0.2555  0.2632
 4196TIP3    H134003   2.818   0.655   6.063 -0.0932  0.7057  0.0193
 4196TIP3    H234004   2.872   0.534   5.991  0.8547  0.8153  0.5249
 4197TIP3   OH234005   2.895   0.364  15.835  0.2142  0.1478 -0.0384
 4197TIP3    H134006   2.903   0.383  15.741 -0.4292 -2.8671 -0.8077
 4197TIP3    H234007   2.842   0.436  15.869  0.7790  1.5271 -1.8716
 4198TIP3   OH234008   1.669   2.973   4.020 -0.1350  0.2597  0.0010
 4198TIP3    H134009   1.762   2.995   4.034  0.0101  0.1161 -0.7220
 4198TIP3    H234010   1.635   2.961   4.109  0.5238  0.3774  0.2820
 4199TIP3   OH234011   0.320   1.303   3.838  0.2970 -0.0224 -0.1683
 4199TIP3    H134012   0.367   1.237   3.889  0.2657 -2.0840 -2.6398
 4199TIP3    H234013   0.235   1.310   3.882  1.5919  1.2717  2.3521
 4200TIP3   OH234014   2.710   4.941   3.961  0.3078  0.1168  1.0616
 4200TIP3    H134015   2.697   4.911   4.051 -0.6501 -1.0710  0.5564
 4200TIP3    H234016   2.726   4.862   3.911 -1.4518  0.4756 -0.1802
 4201TIP3   OH234017   2.465   0.749   5.715 -0.6988  0.3201 -0.3388
 4201TIP3    H134018   2.425   0.794   5.789 -0.2945  1.7076 -0.9471
 4201TIP3    H234019   2.486   0.662   5.749 -0.4592  0.9561  1.1891
 4202TIP3   OH234020   0.366   4.255   2.934  0.2414  0.5394  0.1712
 4202TIP3    H134021   0.291   4.196   2.945 -0.4645  1.5844  1.4450
 4202TIP3    H234022   0.333   4.324   2.876 -0.0955  1.4066  1.3358
 4203TIP3   OH234023   4.961   6.160   5.713  0.2160 -0.0245 -0.1556
 4203TIP3    H134024   4.911   6.193   5.638  1.2924  0.3863 -0.7121
 4203TIP3    H234025   4.945   6.066   5.714 -0.0780  0.0197 -0.6911
 4204TIP3   OH234026   2.967   3.119   0.976 -0.1666  0.1267 -0.3348
 4204TIP3    H134027   3.060   3.116   0.998  0.1891  0.6878 -1.6815
 4204TIP3    H234028   2.923   3.106   1.060  1.1143 -0.4503  0.2854
 4205TIP3   OH234029   0.998   5.494   4.024 -0.1395  0.4135 -0.0617
 4205TIP3    H134030   1.005   5.472   3.932  0.0553  1.2682 -0.2647
 4205TIP3    H234031   0.913   5.458   4.052  0.2908 -0.7970 -0.2841
 4206TIP3   OH234032   4.626   1.791   0.777 -0.1253 -0.0343  0.2335
 4206TIP3    H134033   4.689   1.844   0.728 -0.6132  0.8922  0.5863
 4206TIP3    H234034   4.659   1.791   0.867  0.5478 -1.3929  0.0107
 4207TIP3   OH234035   6.154   5.566  16.368  0.0670  0.3867 -0.6339
 4207TIP3    H134036   6.113   5.528  16.446  0.9940 -0.5187 -0.5651
 4207TIP3    H234037   6.081   5.577  16.306 -0.8712  2.1237  0.6970
 4208TIP3   OH234038   3.776   4.334  14.731  0.6860 -0.3757  0.1797
 4208TIP3    H134039   3.838   4.407  14.720 -0.3198  0.3909 -0.6867
 4208TIP3    H234040   3.814   4.262  14.681 -0.2964  0.8728 -2.5935
 4209TIP3   OH234041   0.531   2.904   5.744 -0.1113  0.0722 -0.0907
 4209TIP3    H134042   0.531   2.812   5.718  0.7901  0.0780 -0.1290
 4209TIP3    H234043   0.535   2.952   5.662  2.3020  0.0945 -0.0337
 4210TIP3   OH234044   4.819   3.854  14.466 -0.1835 -0.3190 -0.3691
 4210TIP3    H134045   4.911   3.866  14.492 -0.5167  3.2871 -0.3448
 4210TIP3    H234046   4.769   3.876  14.545 -1.0790  0.7201 -1.1962
 4211TIP3   OH234047   0.257   3.450   6.643  0.3316  0.1468  0.2957
 4211TIP3    H134048   0.351   3.463   6.645  0.2383  1.1386 -0.8204
 4211TIP3    H234049   0.224   3.493   6.722  0.7791 -0.0385  0.5873
 4212TIP3   OH234050   5.048   6.660   2.988  0.1878 -0.0599 -0.2249
 4212TIP3    H134051   4.996   6.603   3.046  0.0966 -0.1590 -0.4050
 4212TIP3    H234052   5.138   6.651   3.020 -0.0217  0.7809  0.6450
 4213TIP3   OH234053   1.795   4.746   1.017  0.1603 -0.0672 -0.2901
 4213TIP3    H134054   1.743   4.729   0.939  0.5303 -0.2003 -0.5093
 4213TIP3    H234055   1.731   4.751   1.088 -0.4627  2.3048 -0.9042
 4214TIP3   OH234056   4.891   5.203  16.349 -0.2871  0.3368  0.0749
 4214TIP3    H134057   4.852   5.216  16.263 -0.6760 -0.4089  0.1344
 4214TIP3    H234058   4.890   5.290  16.389 -2.1895  0.3077  0.1941
 4215TIP3   OH234059   3.214   0.477   5.322  0.7097  0.2003  0.4987
 4215TIP3    H134060   3.228   0.434   5.406  0.7379  0.1978  0.4925
 4215TIP3    H234061   3.124   0.455   5.298  0.1424  1.5375  1.2989
 4216TIP3   OH234062   4.136   0.095   1.126 -0.2156 -0.3649  0.0241
 4216TIP3    H134063   4.208   0.124   1.181 -0.5821 -0.2329  0.4390
 4216TIP3    H234064   4.057   0.119   1.175 -0.5916  1.2834 -1.2981
 4217TIP3   OH234065   0.886   2.144  12.609 -0.0559 -0.0368  0.0361
 4217TIP3    H134066   0.828   2.069  12.619 -0.1634  0.1054  0.5070
 4217TIP3    H234067   0.830   2.212  12.570  0.5040 -0.7677 -2.2013
 4218TIP3   OH234068   1.760   5.298  13.639  0.1807 -0.3979 -0.0560
 4218TIP3    H134069   1.830   5.232  13.641  0.3442 -0.2114  0.4269
 4218TIP3    H234070   1.694   5.259  13.582  0.5457 -0.7088 -0.2798
 4219TIP3   OH234071   2.145   5.001  10.812 -0.1972  0.3345 -0.5948
 4219TIP3    H134072   2.091   4.972  10.739 -1.0788  0.6460 -0.0822
 4219TIP3    H234073   2.118   4.946  10.885 -2.3336  2.7414  0.5502
 4220TIP3   OH234074   2.193   0.082  11.197  0.1882 -0.4743 -1.0728
 4220TIP3    H134075   2.248   0.160  11.195  0.4633 -0.6658 -1.1634
 4220TIP3    H234076   2.240   0.021  11.254 -2.1537  0.9440  2.6892
 4221TIP3   OH234077   1.341   6.314  12.797 -0.5517  0.4677 -0.2494
 4221TIP3    H134078   1.436   6.308  12.804 -0.5847  0.9298  0.7265
 4221TIP3    H234079   1.325   6.387  12.738 -0.3084  1.4698  0.9020
 4222TIP3   OH234080   3.351   3.866  13.446  0.4943 -0.1829  0.2311
 4222TIP3    H134081   3.418   3.931  13.425  0.0851  0.1622 -0.0198
 4222TIP3    H234082   3.381   3.786  13.403  0.7217 -0.0201  0.0835
 4223TIP3   OH234083   1.708   4.783  12.511  0.3590  0.0636 -0.0622
 4223TIP3    H134084   1.743   4.694  12.505  1.2196  0.2617  1.5331
 4223TIP3    H234085   1.620   4.777  12.473  0.6682 -1.2996 -0.6160
 4224TIP3   OH234086   3.962   2.195  16.535 -0.3934  0.6646 -0.0136
 4224TIP3    H134087   3.889   2.135  16.524 -0.2919  0.6478 -0.6468
 4224TIP3    H234088   4.040   2.141  16.520 -0.0626  0.0361  3.2540
 4225TIP3   OH234089   3.272   5.494  12.600  0.0955  0.3086 -0.0261
 4225TIP3    H134090   3.356   5.527  12.568 -0.6937  1.2844 -1.1826
 4225TIP3    H234091   3.221   5.477  12.521 -0.6553 -0.7055  0.6471
 4226TIP3   OH234092   0.329   4.633  14.202 -0.8024  0.4688 -0.4922
 4226TIP3    H134093   0.284   4.710  14.234  1.0018  0.7892  1.5442
 4226TIP3    H234094   0.266   4.562  14.212 -1.1579  1.0113  1.5864
 4227TIP3   OH234095   4.766   3.073   0.375 -0.1990  0.0467  0.0758
 4227TIP3    H134096   4.675   3.087   0.348 -0.3323  1.6458  1.2161
 4227TIP3    H234097   4.768   3.101   0.467  1.5824  0.6711 -0.1173
 4228TIP3   OH234098   2.887   5.122  13.565 -0.5869 -0.2748  1.0467
 4228TIP3    H134099   2.912   5.085  13.649  0.4367 -0.5487  0.6449
 4228TIP3    H234100   2.929   5.208  13.563 -0.5048 -0.3188  0.7692
 4229TIP3   OH234101   1.924   3.939  16.810  0.7838  0.8223 -0.4326
 4229TIP3    H134102   1.940   3.876  16.739  1.1641 -0.6740  0.9060
 4229TIP3    H234103   1.974   3.904  16.884 -3.1648 -0.3408  2.0086
 4230TIP3   OH234104   6.292   5.709   4.137 -0.3434 -0.5365 -0.0612
 4230TIP3    H134105   6.280   5.616   4.122  0.6916 -0.5660 -0.8163
 4230TIP3    H234106   6.323   5.744   4.054  2.2958 -0.0926  0.9984
 4231TIP3   OH234107   4.437   4.608   2.131 -0.4661  0.2631 -0.3587
 4231TIP3    H134108   4.375   4.613   2.204  0.8595  0.7869  0.7799
 4231TIP3    H234109   4.444   4.515   2.112  0.9053 -0.1460  1.7880
 4232TIP3   OH234110   0.390   0.754  16.274 -0.0531  0.4268  0.0371
 4232TIP3    H134111   0.404   0.664  16.245 -0.1297 -0.2348  1.9258
 4232TIP3    H234112   0.478   0.792  16.277  0.0300  0.2605 -0.2922
 4233TIP3   OH234113   2.332   4.334  16.242  0.3527  0.2654  0.2412
 4233TIP3    H134114   2.312   4.303  16.154  1.3138 -2.8989  1.0091
 4233TIP3    H234115   2.343   4.254  16.294 -1.6682  1.9736  3.6482
 4234TIP3   OH234116   3.926   4.035  13.379 -0.2800 -0.0933 -0.0278
 4234TIP3    H134117   3.952   4.029  13.471 -0.8445 -1.0443  0.0797
 4234TIP3    H234118   3.936   3.946  13.345 -0.8001  0.0879 -0.6814
 4235TIP3   OH234119   0.193   2.055  12.822  1.0122  0.6293  0.1632
 4235TIP3    H134120   0.238   2.024  12.901  0.9036 -0.4015 -0.1669
 4235TIP3    H234121   0.263   2.092  12.768  1.6832 -1.7767 -0.7445
 4236TIP3   OH234122   6.572   3.863   5.944  0.0071  0.2582  0.9346
 4236TIP3    H134123   6.640   3.800   5.923  0.1018  0.2889  1.1397
 4236TIP3    H234124   6.607   3.911   6.019 -0.7301 -0.5192  1.8056
 4237TIP3   OH234125   3.587   2.693  15.230 -0.0715  0.0855  0.1954
 4237TIP3    H134126   3.522   2.759  15.250  0.5959  1.1694 -1.0274
 4237TIP3    H234127   3.552   2.647  15.154 -0.3694 -0.7409  0.8246
 4238TIP3   OH234128   1.160   6.384  14.945  0.2787 -0.0157  0.2686
 4238TIP3    H134129   1.142   6.434  15.025 -1.4428  0.9994 -0.7064
 4238TIP3    H234130   1.229   6.323  14.971 -0.5342 -0.0354  2.6651
 4239TIP3   OH234131   4.704   4.779   3.260  0.2236 -0.5577 -0.3845
 4239TIP3    H134132   4.718   4.694   3.219 -0.6948 -0.3401 -1.1941
 4239TIP3    H234133   4.613   4.777   3.289  0.1939  0.1374 -0.4104
 4240TIP3   OH234134   1.007   3.325  11.040  0.2743  0.4063  0.2928
 4240TIP3    H134135   0.979   3.257  10.978  2.9401 -0.4109 -0.1158
 4240TIP3    H234136   1.043   3.394  10.985 -0.4221  1.2156  0.8248
 4241TIP3   OH234137   4.397   6.222   2.389 -0.1280  0.4927 -0.0871
 4241TIP3    H134138   4.464   6.165   2.352  0.3093  0.8266  0.1845
 4241TIP3    H234139   4.423   6.236   2.479 -0.1816  1.1877 -0.1696
 4242TIP3   OH234140   5.326   5.710  14.538 -0.5680  0.5563  0.2654
 4242TIP3    H134141   5.284   5.675  14.617 -0.4278 -0.9594 -0.3035
 4242TIP3    H234142   5.344   5.633  14.484  2.2642  1.2069  0.1481
 4243TIP3   OH234143   2.384   0.679   1.440 -0.2736  0.0460  0.1236
 4243TIP3    H134144   2.375   0.743   1.371 -1.1925 -0.7027 -0.4802
 4243TIP3    H234145   2.423   0.727   1.513 -1.4209  1.4235 -0.1242
 4244TIP3   OH234146   2.280   2.414   4.986 -0.1378 -0.5308  0.2503
 4244TIP3    H134147   2.368   2.396   4.952 -0.4857  1.9579 -2.3875
 4244TIP3    H234148   2.269   2.508   4.975 -2.6515 -0.5393  1.8559
 4245TIP3   OH234149   3.246   5.572   4.624  0.0237 -0.6383 -0.5921
 4245TIP3    H134150   3.155   5.601   4.615  0.1775 -0.1993 -0.7342
 4245TIP3    H234151   3.297   5.636   4.574  0.5961  0.1568  0.9657
 4246TIP3   OH234152   0.032   0.145  16.102  0.0816 -0.1294  0.2187
 4246TIP3    H134153  -0.045   0.089  16.107 -0.7889  1.1001  0.9434
 4246TIP3    H234154   0.042   0.165  16.009 -1.5467  1.1254  0.2828
 4247TIP3   OH234155   1.169   3.440  13.779  0.0072  0.8676 -0.2974
 4247TIP3    H134156   1.091   3.386  13.790  0.4706 -0.0590 -1.3593
 4247TIP3    H234157   1.136   3.529  13.777 -1.0544  0.4808 -0.9589
 4248TIP3   OH234158   6.441   5.736  13.329  0.3967 -0.5111 -0.6575
 4248TIP3    H134159   6.358   5.783  13.341 -0.0937 -0.8276 -2.4816
 4248TIP3    H234160   6.416   5.645  13.316  1.2467 -1.0843  1.3698
 4249TIP3   OH234161   4.933   2.675  16.012 -0.2277 -0.7743 -1.0550
 4249TIP3    H134162   4.911   2.645  15.924 -0.0315 -1.4942 -0.8622
 4249TIP3    H234163   4.989   2.606  16.049  0.9165  0.2116 -0.8970
 4250TIP3   OH234164   2.624   0.206   4.518  0.2360 -0.0334 -0.1479
 4250TIP3    H134165   2.648   0.117   4.541  1.5071 -0.0885 -1.5648
 4250TIP3    H234166   2.691   0.261   4.560 -0.8600  0.3382  1.1981
 4251TIP3   OH234167   2.948   3.573   1.747  0.4528 -0.5972  0.8783
 4251TIP3    H134168   2.921   3.652   1.700 -2.2705 -1.0745  1.4626
 4251TIP3    H234169   3.005   3.605   1.817  0.6402  0.6631  0.1826
 4252TIP3   OH234170   3.548   2.238  17.216  0.0242 -0.1672 -0.5842
 4252TIP3    H134171   3.596   2.187  17.150  1.8617  1.2192 -0.4094
 4252TIP3    H234172   3.568   2.194  17.299 -0.1353 -0.3892 -0.6630
 4253TIP3   OH234173   4.391   0.423  11.648  0.2522 -0.1675  0.0228
 4253TIP3    H134174   4.378   0.447  11.557  1.0293  0.8011  0.1458
 4253TIP3    H234175   4.461   0.481  11.678 -0.5626  0.1197  1.4675
 4254TIP3   OH234176   5.768   5.430  13.885 -0.2704 -0.0592 -0.4400
 4254TIP3    H134177   5.718   5.420  13.804 -1.2078 -1.6278  0.2980
 4254TIP3    H234178   5.858   5.410  13.860  0.0429  2.5632 -1.7355
 4255TIP3   OH234179   4.475   2.844   3.398 -0.9120 -0.7345  0.1765
 4255TIP3    H134180   4.510   2.781   3.335 -0.9349 -0.6124  0.0412
 4255TIP3    H234181   4.479   2.799   3.482 -0.7218 -0.8364  0.1136
 4256TIP3   OH234182   1.108   6.173  11.789  0.5517 -1.3482 -0.8486
 4256TIP3    H134183   1.056   6.190  11.710  2.5210  2.0095 -1.6201
 4256TIP3    H234184   1.193   6.143  11.757  0.6844 -2.0825  0.1376
 4257TIP3   OH234185   4.764   5.220   5.679 -0.4834 -0.3459  0.6310
 4257TIP3    H134186   4.678   5.182   5.699 -0.3475 -1.2573 -0.4051
 4257TIP3    H234187   4.794   5.171   5.603  0.9483 -0.0131  0.9636
 4258TIP3   OH234188   4.010   2.864   2.284 -0.1241  0.3068 -0.4739
 4258TIP3    H134189   3.970   2.793   2.234  0.0139 -1.0341  1.2570
 4258TIP3    H234190   4.101   2.839   2.293  0.0760  1.0371 -0.3958
 4259TIP3   OH234191   4.207   4.678   1.010 -0.1328  0.4763 -0.8194
 4259TIP3    H134192   4.218   4.772   0.997 -1.5660  0.8080  0.2078
 4259TIP3    H234193   4.293   4.649   1.042  0.3362  1.4187 -1.1766
 4260TIP3   OH234194   1.335   4.197   1.567 -0.2447 -0.3327  0.1189
 4260TIP3    H134195   1.399   4.130   1.541 -0.4111 -0.4386 -0.0227
 4260TIP3    H234196   1.345   4.266   1.502  2.4527  1.4630  2.2483
 4261TIP3   OH234197   6.523   3.975  16.386 -0.2100 -0.2693 -0.2562
 4261TIP3    H134198   6.481   4.057  16.360  0.4614  0.6109  1.3208
 4261TIP3    H234199   6.450   3.913  16.395 -0.9886  0.7391  0.6474
 4262TIP3   OH234200   3.593   0.620  13.333  0.3542  0.4733 -0.1168
 4262TIP3    H134201   3.685   0.616  13.307  0.3189 -1.0453 -0.0528
 4262TIP3    H234202   3.596   0.639  13.427  0.6540 -0.6894  0.1272
 4263TIP3   OH234203   1.817   6.205   5.090  0.4392 -0.0146  0.2004
 4263TIP3    H134204   1.847   6.123   5.130  1.4378  0.0397 -0.4000
 4263TIP3    H234205   1.874   6.216   5.014 -0.0766  0.9408 -0.0531
 4264TIP3   OH234206   3.555   1.329  11.267  0.1425 -0.5369 -0.5020
 4264TIP3    H134207   3.584   1.389  11.336 -0.9974  0.1498 -0.6060
 4264TIP3    H234208   3.538   1.246  11.314  1.4276 -0.7200 -0.3149
 4265TIP3   OH234209   4.387   3.685  12.703  0.6310  0.0370  0.5741
 4265TIP3    H134210   4.470   3.637  12.702 -0.2583 -1.6088  1.3542
 4265TIP3    H234211   4.412   3.777  12.708  2.4054 -0.3786  0.0187
 4266TIP3   OH234212   5.119   6.078   1.019  0.0973 -0.2000  0.0326
 4266TIP3    H134213   5.172   6.005   0.986  0.2184 -0.1684  0.1528
 4266TIP3    H234214   5.175   6.120   1.084  1.8094  2.6203 -2.9469
 4267TIP3   OH234215   0.235   3.511  15.196 -0.0844 -0.1423  0.2266
 4267TIP3    H134216   0.175   3.585  15.204 -0.0955 -0.3400  2.4949
 4267TIP3    H234217   0.311   3.547  15.151  0.2487  1.5147  1.9921
 4268TIP3   OH234218   5.767   4.101   3.762 -0.2130  0.3725 -0.3168
 4268TIP3    H134219   5.808   4.054   3.835 -1.0771 -1.1478 -0.7521
 4268TIP3    H234220   5.768   4.193   3.788 -1.8955 -0.2448  2.3577
 4269TIP3   OH234221   3.378   6.659   6.211  0.2489 -0.2684 -0.2822
 4269TIP3    H134222   3.286   6.673   6.190  0.3239  2.4240  0.7204
 4269TIP3    H234223   3.378   6.585   6.271 -1.3256 -0.0547  0.0172
 4270TIP3   OH234224   0.872   0.527   5.861  0.0519 -0.2569  0.4382
 4270TIP3    H134225   0.813   0.463   5.899 -0.3285  0.2799  0.7652
 4270TIP3    H234226   0.933   0.475   5.808 -1.7954 -0.6875 -1.3890
 4271TIP3   OH234227   2.092   3.396  15.709  0.5325  0.0557 -0.2508
 4271TIP3    H134228   2.182   3.377  15.681  0.2873  0.5714 -1.4990
 4271TIP3    H234229   2.039   3.377  15.631 -0.2173  1.4772 -0.1263
 4272TIP3   OH234230   2.029   0.762  14.888 -0.2812  0.2334 -0.2603
 4272TIP3    H134231   2.121   0.740  14.877  0.1221  1.7012 -0.0427
 4272TIP3    H234232   2.002   0.794  14.802 -0.7393 -0.6361 -0.4548
 4273TIP3   OH234233   2.127   5.104  17.303 -0.6324  0.4097 -0.3447
 4273TIP3    H134234   2.139   5.194  17.274 -2.4660  1.8672  2.8595
 4273TIP3    H234235   2.038   5.102  17.339 -0.6737 -2.7326 -0.3530
 4274TIP3   OH234236   3.421   4.631   1.142 -0.2722  0.0735 -0.0923
 4274TIP3    H134237   3.513   4.636   1.116 -0.1680 -0.5427  0.1481
 4274TIP3    H234238   3.407   4.539   1.165 -1.7610 -0.5783 -3.1457
 4275TIP3   OH234239   5.773   0.429   4.322 -0.3404 -0.7885  0.1816
 4275TIP3    H134240   5.727   0.348   4.342 -0.8286 -0.7950 -0.9236
 4275TIP3    H234241   5.704   0.493   4.307  0.0246 -0.4996 -0.2803
 4276TIP3   OH234242   1.250   6.297   1.518  0.2366  0.2400 -0.0801
 4276TIP3    H134243   1.258   6.314   1.612 -0.3981  0.3913 -0.0464
 4276TIP3    H234244   1.298   6.368   1.476  2.1334 -0.8567  0.1518
 4277TIP3   OH234245   1.548   5.138   5.601  0.0753  0.1793 -1.0421
 4277TIP3    H134246   1.517   5.182   5.680  0.6689 -0.1241 -0.6322
 4277TIP3    H234247   1.548   5.206   5.534  3.7551  1.6859  0.2269
 4278TIP3   OH234248   5.837   2.815   1.064 -0.0372  0.0017  0.0038
 4278TIP3    H134249   5.830   2.885   0.998 -2.5427 -1.0630 -0.9810
 4278TIP3    H234250   5.808   2.856   1.145  0.1795  0.5391 -0.1827
 4279TIP3   OH234251   3.630   5.735  11.073 -0.5832 -0.1432  0.0390
 4279TIP3    H134252   3.718   5.772  11.074 -1.1267  1.2220  1.4638
 4279TIP3    H234253   3.643   5.642  11.091  0.6300 -0.2160 -1.0853
 4280TIP3   OH234254   6.393   3.550   3.116  0.0021 -0.1267 -0.1342
 4280TIP3    H134255   6.347   3.625   3.077 -0.2837 -0.2677 -0.0683
 4280TIP3    H234256   6.369   3.476   3.061  0.1467 -0.2041 -0.0940
 4281TIP3   OH234257   2.437   2.108   4.864  0.2749 -0.2831  0.4602
 4281TIP3    H134258   2.393   2.076   4.943 -0.0567 -1.2219 -0.0842
 4281TIP3    H234259   2.530   2.108   4.887  0.0727  1.0334  1.3820
 4282TIP3   OH234260   4.608   5.900   4.956 -0.0585 -0.5386  0.0930
 4282TIP3    H134261   4.606   5.833   4.888  1.4983 -1.7694  1.1816
 4282TIP3    H234262   4.587   5.853   5.036 -1.5083  0.8192  0.5484
 4283TIP3   OH234263   0.358   5.411   6.059  0.0188  0.7001  1.0273
 4283TIP3    H134264   0.410   5.354   6.003  2.6143  0.0141  3.8711
 4283TIP3    H234265   0.342   5.360   6.138 -3.1957  1.7217  1.2060
 4284TIP3   OH234266   3.970   3.049  14.088 -0.8764 -0.3359  0.5328
 4284TIP3    H134267   3.911   2.977  14.064 -0.9645 -0.2038  0.3552
 4284TIP3    H234268   3.990   3.093  14.006 -0.2018 -0.6264  0.5294
 4285TIP3   OH234269   1.370   4.977  15.360  0.1311  0.0888 -0.0656
 4285TIP3    H134270   1.327   5.032  15.295  0.9021 -0.5219 -1.1092
 4285TIP3    H234271   1.381   5.035  15.436 -0.2579  0.9755 -0.6635
 4286TIP3   OH234272   4.439   2.500  10.829  0.0192  0.3027 -0.2884
 4286TIP3    H134273   4.487   2.512  10.747 -1.3941 -0.6435 -1.2915
 4286TIP3    H234274   4.505   2.513  10.897  1.3533  0.5400 -1.5754
 4287TIP3   OH234275   5.597   6.183  14.204  0.0231  0.1022  0.2369
 4287TIP3    H134276   5.616   6.276  14.189 -0.1620  0.5315  2.3469
 4287TIP3    H234277   5.682   6.145  14.225  0.2867 -0.5041 -1.6753
 4288TIP3   OH234278   3.812   1.784   0.172  0.4047 -0.0664 -0.1302
 4288TIP3    H134279   3.743   1.770   0.237  0.7159 -0.9171  0.0207
 4288TIP3    H234280   3.766   1.823   0.097 -0.2251 -0.5445 -0.0021
 4289TIP3   OH234281   2.461   3.802   5.547 -0.0716 -0.3320 -0.1649
 4289TIP3    H134282   2.431   3.869   5.609 -0.1571 -0.2855 -0.2562
 4289TIP3    H234283   2.553   3.789   5.569 -0.0646 -0.2111 -0.1222
 4290TIP3   OH234284   4.165   1.760  12.239 -0.2050 -0.2955  0.1570
 4290TIP3    H134285   4.095   1.790  12.297  0.7694  0.2304  1.0821
 4290TIP3    H234286   4.166   1.824  12.168  1.1290  1.3278  1.5552
 4291TIP3   OH234287   3.707   5.696  12.170 -0.4708  0.3209 -0.0831
 4291TIP3    H134288   3.664   5.653  12.096 -0.0823  0.9572 -0.6938
 4291TIP3    H234289   3.787   5.646  12.184 -1.1753 -0.5928  0.7633
 4292TIP3   OH234290   1.811   2.541   3.137  0.2958  0.3905  0.4976
 4292TIP3    H134291   1.845   2.629   3.120 -2.4546  1.3875 -0.3265
 4292TIP3    H234292   1.732   2.556   3.189 -0.8109 -1.5038 -0.5560
 4293TIP3   OH234293   3.667   4.138  12.219  0.1047 -0.1056  0.3458
 4293TIP3    H134294   3.575   4.146  12.195 -0.1960 -1.9207  0.7603
 4293TIP3    H234295   3.714   4.182  12.148 -1.0434 -0.2144 -0.5090
 4294TIP3   OH234296   2.560   4.345   4.059 -0.2891  0.6275 -0.1253
 4294TIP3    H134297   2.541   4.323   4.150  0.3391  1.2386  0.1595
 4294TIP3    H234298   2.474   4.352   4.017 -0.5877  0.6230  0.4850
 4295TIP3   OH234299   5.691   5.120   0.765  0.3088 -0.1310  0.4520
 4295TIP3    H134300   5.771   5.161   0.798  0.7383 -0.3998 -0.2332
 4295TIP3    H234301   5.717   5.030   0.744  0.0402  0.0050 -0.5337
 4296TIP3   OH234302   0.158   3.226   0.191 -0.0358 -0.1123 -0.1471
 4296TIP3    H134303   0.118   3.221   0.278  1.4352 -0.5464  0.5371
 4296TIP3    H234304   0.175   3.319   0.178 -0.0885 -0.0671  0.0977
 4297TIP3   OH234305   0.988   5.915  16.659 -0.0489 -0.4389 -0.2514
 4297TIP3    H134306   0.967   6.009  16.659  2.2489  0.1578  1.0048
 4297TIP3    H234307   0.922   5.876  16.603 -2.1105  1.6876  0.5314
 4298TIP3   OH234308   2.725   6.503   2.419 -0.1045  0.1782  0.1316
 4298TIP3    H134309   2.760   6.428   2.372  1.0843  1.2469 -0.7693
 4298TIP3    H234310   2.632   6.505   2.395  0.5721  1.1291 -2.9384
 4299TIP3   OH234311   2.362   6.173   2.331 -0.3694 -0.2684 -0.4628
 4299TIP3    H134312   2.370   6.100   2.392 -0.5996 -1.7478 -2.1167
 4299TIP3    H234313   2.311   6.239   2.378 -0.4488 -1.3054  0.9538
 4300TIP3   OH234314   2.187   4.940  14.836 -0.1862 -0.1470 -0.2231
 4300TIP3    H134315   2.191   4.997  14.759  0.9658  0.5804  0.3454
 4300TIP3    H234316   2.121   4.980  14.892 -0.0814  0.0761 -0.2586
 4301TIP3   OH234317   2.928   3.019  13.701  0.1726  0.9643 -0.3379
 4301TIP3    H134318   2.920   3.078  13.625 -0.6847 -0.6965 -1.6231
 4301TIP3    H234319   2.867   3.054  13.765 -1.1406  0.9263 -1.5040
 4302TIP3   OH234320   3.271   5.076  15.320 -0.1283  0.7680 -0.1374
 4302TIP3    H134321   3.342   5.136  15.345  0.2311 -0.5111  2.1574
 4302TIP3    H234322   3.191   5.127  15.333  0.2723  1.5593 -0.7164
 4303TIP3   OH234323   2.377   5.509   4.967 -0.4626 -0.0566 -0.2497
 4303TIP3    H134324   2.472   5.509   4.975 -0.3692 -2.1184 -0.7055
 4303TIP3    H234325   2.346   5.546   5.049  0.7236  1.8130 -0.5897
 4304TIP3   OH234326   3.799   1.200  14.235  0.2942 -0.4928 -0.0292
 4304TIP3    H134327   3.762   1.176  14.150  0.8972 -2.9695  0.3237
 4304TIP3    H234328   3.891   1.220  14.216  0.5123 -1.3591  0.0233
 4305TIP3   OH234329   0.274   2.518  16.152  0.2276 -0.3637  0.2932
 4305TIP3    H134330   0.333   2.594  16.145 -1.4326  1.3216  3.0270
 4305TIP3    H234331   0.188   2.552  16.128 -0.3981 -1.6708  0.6188
 4306TIP3   OH234332   0.373   1.902  13.894  0.4645 -0.6034  0.1041
 4306TIP3    H134333   0.284   1.918  13.864  0.7766 -0.5450 -0.8201
 4306TIP3    H234334   0.385   1.807  13.884  0.3643 -0.6757  0.6412
 4307TIP3   OH234335   4.878   2.693  11.975 -0.0180 -0.0047 -0.6410
 4307TIP3    H134336   4.950   2.727  11.922  0.4648  0.6030  0.3699
 4307TIP3    H234337   4.910   2.610  12.009  0.6056  0.7137  0.5830
 4308TIP3   OH234338   1.370   1.141   0.458 -0.2689  0.6586 -0.8311
 4308TIP3    H134339   1.392   1.193   0.534 -1.7904 -0.8299  0.7231
 4308TIP3    H234340   1.453   1.127   0.413  0.6112  1.8673  0.3326
 4309TIP3   OH234341   1.833   0.834  13.020 -0.4200 -0.1737  0.2319
 4309TIP3    H134342   1.840   0.743  12.992 -1.4769  0.3692 -2.0052
 4309TIP3    H234343   1.806   0.828  13.112 -1.9790 -2.1760 -0.2663
 4310TIP3   OH234344   5.348   3.567  13.504  0.4658 -0.1743  0.7812
 4310TIP3    H134345   5.413   3.617  13.454  0.7511 -1.3005 -0.0236
 4310TIP3    H234346   5.396   3.535  13.580  0.3998  0.3948  1.0658
 4311TIP3   OH234347   2.809   1.258  15.423  0.4534 -0.0989 -0.0337
 4311TIP3    H134348   2.869   1.183  15.421  1.0925  0.4210 -0.8261
 4311TIP3    H234349   2.813   1.289  15.513  0.0983 -1.0768  0.3344
 4312TIP3   OH234350   2.640   5.769   2.075 -0.4013  0.1393  0.8767
 4312TIP3    H134351   2.719   5.813   2.108 -0.2303  0.2849  0.2996
 4312TIP3    H234352   2.568   5.811   2.120 -0.1024 -0.6603  2.1491
 4313TIP3   OH234353   0.641   1.683  12.923 -0.1264  0.3072 -0.5196
 4313TIP3    H134354   0.724   1.682  12.875 -0.1172 -1.9320 -0.5486
 4313TIP3    H234355   0.642   1.765  12.972  1.6574  0.7683 -1.2732
 4314TIP3   OH234356   6.144   5.399  15.071 -0.2360  0.2337  0.1181
 4314TIP3    H134357   6.095   5.389  14.989 -1.1887  0.6240  0.6116
 4314TIP3    H234358   6.086   5.453  15.126  0.0731 -0.5893  1.2885
 4315TIP3   OH234359   1.111   1.775   5.946 -0.3520 -0.2249  0.3086
 4315TIP3    H134360   1.180   1.840   5.932 -0.9388  0.2597 -0.3656
 4315TIP3    H234361   1.159   1.693   5.959  0.3670  0.1710  0.2324
 4316TIP3   OH234362   3.998   1.768  15.616 -0.1921 -0.9246  0.5411
 4316TIP3    H134363   4.067   1.714  15.655  2.5078  2.8208  1.5215
 4316TIP3    H234364   3.989   1.734  15.527  1.9631 -2.4375  0.8104
 4317TIP3   OH234365   6.376   6.074  16.358  0.1638  0.3735  0.6289
 4317TIP3    H134366   6.299   6.053  16.306  0.8517  0.6424 -0.5343
 4317TIP3    H234367   6.386   5.999  16.418 -1.0865  0.4245  0.9274
 4318TIP3   OH234368   1.686   3.315  12.243  0.2222  0.3359 -0.2676
 4318TIP3    H134369   1.736   3.254  12.297 -0.6754 -1.5909 -1.4906
 4318TIP3    H234370   1.739   3.395  12.241  2.1072 -0.8383  0.3172
 4319TIP3   OH234371   0.823   1.127   1.584  0.4182 -0.0718  0.2036
 4319TIP3    H134372   0.763   1.159   1.516  0.6046 -1.9182 -0.9049
 4319TIP3    H234373   0.809   1.186   1.658  0.1972  2.0256 -1.4043
 4320TIP3   OH234374   2.595   1.125  11.999 -0.2343 -0.1942 -0.0748
 4320TIP3    H134375   2.599   1.030  12.009 -0.1443  0.0347  3.1417
 4320TIP3    H234376   2.682   1.155  12.026  0.7521  0.7774 -3.7363
 4321TIP3   OH234377   6.384   5.979  12.946 -0.2573 -0.1803 -0.1309
 4321TIP3    H134378   6.452   6.020  12.894  0.4023 -0.2317  0.6709
 4321TIP3    H234379   6.419   5.977  13.035 -1.5150  0.2723  0.4053
 4322TIP3   OH234380   4.221   0.357   3.297 -0.6760 -0.2083  0.4022
 4322TIP3    H134381   4.170   0.431   3.264  2.4339  2.9908  2.0460
 4322TIP3    H234382   4.163   0.313   3.359 -2.1564  1.8758  0.5951
 4323TIP3   OH234383   0.994   0.381   4.938  0.0262 -0.4871 -0.3710
 4323TIP3    H134384   0.912   0.341   4.907 -1.0978  1.1689  0.3382
 4323TIP3    H234385   0.967   0.441   5.007  1.9049 -0.1438  0.1226
 4324TIP3   OH234386   0.018   4.808  10.816 -0.2859  0.5027 -0.0215
 4324TIP3    H134387  -0.008   4.832  10.905  0.8993  0.0473  0.4807
 4324TIP3    H234388  -0.029   4.726  10.799  1.0632 -0.5533  1.0418
 4325TIP3   OH234389   1.463   3.569  14.492  0.3230 -0.2416  0.6615
 4325TIP3    H134390   1.485   3.646  14.545 -1.6781  0.9297 -0.0778
 4325TIP3    H234391   1.460   3.497  14.555  1.4681  0.4185  1.5110
 4326TIP3   OH234392   1.623   5.407   0.150  0.4434  0.2139 -0.2264
 4326TIP3    H134393   1.655   5.489   0.188  0.5031  0.4925 -0.8672
 4326TIP3    H234394   1.529   5.421   0.140  0.1996 -0.3481  1.0139
 4327TIP3   OH234395   2.184   4.377  13.614  0.3706 -0.3616  0.0241
 4327TIP3    H134396   2.155   4.436  13.544  0.0995 -1.3181 -0.6893
 4327TIP3    H234397   2.279   4.370  13.601  0.3469 -0.3877 -0.1377
 4328TIP3   OH234398   5.863   0.850   5.231  0.4408 -0.0566  0.1513
 4328TIP3    H134399   5.916   0.776   5.202 -0.3263 -0.9370  0.9271
 4328TIP3    H234400   5.845   0.833   5.324 -0.5553  0.6034  0.1027
 4329TIP3   OH234401   0.865   2.912   0.337  0.4444  0.2097  0.1722
 4329TIP3    H134402   0.851   2.913   0.243  2.7972  0.6652 -0.2540
 4329TIP3    H234403   0.822   2.833   0.367 -4.2622  2.2080 -0.4630
 4330TIP3   OH234404   0.903   0.698  15.530 -0.0671  0.0740  0.0898
 4330TIP3    H134405   0.899   0.789  15.500  1.0227  0.3464  0.7039
 4330TIP3    H234406   0.871   0.702  15.620  1.2811  0.1032  0.5903
 4331TIP3   OH234407   1.802   2.025   2.417  0.5586 -0.6792  0.1672
 4331TIP3    H134408   1.868   2.090   2.391 -0.0373 -0.7400 -1.6031
 4331TIP3    H234409   1.721   2.075   2.424  0.3894 -0.9750  0.3440
 4332TIP3   OH234410   0.809   0.762   0.094  0.5142 -0.4850  0.9176
 4332TIP3    H134411   0.866   0.838   0.084  1.1014 -1.1125 -0.7777
 4332TIP3    H234412   0.830   0.706   0.020 -1.5981 -1.2125  0.8085
 4333TIP3   OH234413   3.311   0.806   3.821  0.4085  0.0273 -1.2071
 4333TIP3    H134414   3.328   0.768   3.735  1.6102 -0.5840 -0.7266
 4333TIP3    H234415   3.393   0.793   3.869 -0.7132 -1.0079  0.5373
 4334TIP3   OH234416   4.848   6.124  11.739 -0.2125  0.5689  0.5791
 4334TIP3    H134417   4.936   6.154  11.717  0.4513  1.1425  3.5587
 4334TIP3    H234418   4.807   6.198  11.784 -0.4216 -1.1606  3.4901
 4335TIP3   OH234419   0.892   4.844  11.762 -0.0098  0.2976  0.1044
 4335TIP3    H134420   0.806   4.848  11.721  0.4360 -0.4132 -0.9556
 4335TIP3    H234421   0.882   4.783  11.835 -0.7369  1.3188  0.8759
 4336TIP3   OH234422   4.581   4.477  15.048  0.0492 -0.1052  0.1484
 4336TIP3    H134423   4.537   4.560  15.067  0.0175 -0.3515  1.2379
 4336TIP3    H234424   4.563   4.460  14.956  0.3734  1.2860 -0.1857
 4337TIP3   OH234425   4.532   2.849  15.350 -0.2019  0.2622  0.0661
 4337TIP3    H134426   4.527   2.942  15.330 -0.0697  0.0780 -0.8824
 4337TIP3    H234427   4.625   2.827  15.341  0.1304  0.4762  2.4458
 4338TIP3   OH234428   1.180   2.397  11.430 -0.6444 -0.3189  0.6642
 4338TIP3    H134429   1.179   2.486  11.393 -0.6796 -0.5697  0.0494
 4338TIP3    H234430   1.272   2.380  11.449 -0.5263 -0.4637 -0.0045
 4339TIP3   OH234431   0.349   0.725   2.190  0.6253  0.5336 -0.0751
 4339TIP3    H134432   0.441   0.742   2.174  0.0458  2.8103 -1.3836
 4339TIP3    H234433   0.318   0.682   2.110  0.8386 -1.8206  1.0150
 4340TIP3   OH234434   3.873   3.275   2.424 -0.3657  0.3532  0.1319
 4340TIP3    H134435   3.910   3.357   2.392  0.0617 -0.4742 -1.6117
 4340TIP3    H234436   3.890   3.212   2.354  0.6567 -1.6115  2.0332
 4341TIP3   OH234437   1.633   3.082   1.880 -0.0628 -0.7442  0.2879
 4341TIP3    H134438   1.697   3.096   1.951  0.2763  0.4029 -0.2212
 4341TIP3    H234439   1.548   3.092   1.923  0.1279 -0.8656  0.7012
 4342TIP3   OH234440   4.026   2.145  12.013 -0.1703  0.4476  0.1959
 4342TIP3    H134441   4.103   2.105  11.973 -0.3788 -1.4333  1.4975
 4342TIP3    H234442   4.055   2.231  12.041  1.4607 -0.1732  0.5650
 4343TIP3   OH234443   5.344   0.548   5.770 -0.1450 -0.6020 -0.3184
 4343TIP3    H134444   5.255   0.516   5.754 -0.8018 -0.2380  2.1158
 4343TIP3    H234445   5.359   0.530   5.863  0.9635  2.5308  0.2224
 4344TIP3   OH234446   3.254   5.957   2.106 -0.6886 -0.1540 -0.3808
 4344TIP3    H134447   3.346   5.933   2.090 -1.0254 -0.9227 -1.2552
 4344TIP3    H234448   3.241   6.035   2.052 -0.4263  0.2304  0.1052
 4345TIP3   OH234449   3.829   0.473  14.345  0.1457  0.4816  0.0868
 4345TIP3    H134450   3.862   0.440  14.429 -0.0446 -0.8432 -0.3428
 4345TIP3    H234451   3.796   0.396  14.300  4.1930  0.2183 -3.0946
 4346TIP3   OH234452   0.724   4.365  12.627  0.3354  0.1373 -0.2218
 4346TIP3    H134453   0.667   4.441  12.616 -2.5436 -1.6587  1.0419
 4346TIP3    H234454   0.802   4.400  12.669 -1.0259  2.3473  0.6586
 4347TIP3   OH234455   1.472   3.321   3.161 -0.2091  0.2783  0.0630
 4347TIP3    H134456   1.543   3.317   3.224  0.6236  2.5531 -0.6179
 4347TIP3    H234457   1.445   3.413   3.161 -2.7324 -0.3957 -0.1849
 4348TIP3   OH234458   1.363   4.506  15.242  0.2128  1.2958  0.2561
 4348TIP3    H134459   1.287   4.447  15.243 -1.6739  3.5358 -0.4749
 4348TIP3    H234460   1.435   4.452  15.211 -1.1956 -0.8043  0.3951
 4349TIP3   OH234461   0.703   2.358  16.535 -0.0019  0.0286  0.1578
 4349TIP3    H134462   0.778   2.306  16.565  1.5185  1.8874 -0.1729
 4349TIP3    H234463   0.692   2.425  16.604  0.9787  1.9090 -1.3965
 4350TIP3   OH234464   2.978   1.912   5.346 -0.5735  0.3369  0.0756
 4350TIP3    H134465   2.950   1.875   5.429 -0.4990  0.2066  0.0429
 4350TIP3    H234466   3.071   1.931   5.359 -1.0147  2.3098  0.7513
 4351TIP3   OH234467   1.033   1.487   4.084 -0.0505 -0.3127  0.3246
 4351TIP3    H134468   1.074   1.561   4.039  0.9814 -0.8475  0.3601
 4351TIP3    H234469   1.012   1.520   4.171 -0.9747  0.3772 -0.1412
 4352TIP3   OH234470   2.015   3.661  14.410 -0.1779 -0.1632  0.5386
 4352TIP3    H134471   2.078   3.732  14.397  0.3985 -0.8644 -0.6130
 4352TIP3    H234472   1.981   3.675  14.499 -1.4737  2.6533 -0.2777
 4353TIP3   OH234473   3.419   4.902   3.373 -0.4199 -0.2663 -0.1937
 4353TIP3    H134474   3.471   4.961   3.428 -0.9826  0.5428 -0.5262
 4353TIP3    H234475   3.398   4.953   3.295 -3.0734  0.0002  0.6032
 4354TIP3   OH234476   1.622   2.707   0.864  0.1800  0.1548  0.4979
 4354TIP3    H134477   1.665   2.698   0.779  1.5571 -1.3350  1.2825
 4354TIP3    H234478   1.539   2.660   0.855  1.2698 -1.9100  0.5408
 4355TIP3   OH234479   5.936   3.917  11.223 -0.8617 -0.1351 -0.4590
 4355TIP3    H134480   6.031   3.924  11.212 -0.5139  0.2033  2.1688
 4355TIP3    H234481   5.919   3.823  11.225  0.0491 -0.3487  2.8663
 4356TIP3   OH234482   3.061   3.168   3.066 -0.1952  0.0771  0.4072
 4356TIP3    H134483   3.149   3.141   3.093 -0.4851 -0.3938  0.8878
 4356TIP3    H234484   3.052   3.134   2.977 -0.8688 -2.2089  1.2889
 4357TIP3   OH234485   1.369   6.604   1.848 -0.1523  0.2642  0.0787
 4357TIP3    H134486   1.322   6.616   1.930 -0.6087  1.4654 -0.3465
 4357TIP3    H234487   1.416   6.521   1.859 -2.9530 -1.4088  0.2579
 4358TIP3   OH234488   1.327   2.606   2.978  0.1955  0.2155 -0.1048
 4358TIP3    H134489   1.262   2.673   2.958  2.0862  2.0909 -0.2723
 4358TIP3    H234490   1.306   2.534   2.918 -1.8422  0.6314  0.0354
 4359TIP3   OH234491   2.424   5.497  11.263  0.0694  0.5417 -0.1059
 4359TIP3    H134492   2.406   5.410  11.226 -1.3803  0.5155  0.5865
 4359TIP3    H234493   2.430   5.555  11.188  1.2580 -0.1824 -0.5879
 4360TIP3   OH234494   0.854   4.838   3.693  0.1649 -0.5298  0.3105
 4360TIP3    H134495   0.790   4.842   3.763  0.7097 -1.2001  0.8613
 4360TIP3    H234496   0.870   4.745   3.680  0.0474 -0.4193 -0.7332
 4361TIP3   OH234497   5.757   3.489  17.076  0.1071  0.2487  0.3262
 4361TIP3    H134498   5.741   3.499  16.982 -1.4363 -1.1112  0.4031
 4361TIP3    H234499   5.672   3.510  17.117  0.3074 -0.7424  1.2901
 4362TIP3   OH234500   3.347   4.629  12.280  0.2737  0.5240 -0.7415
 4362TIP3    H134501   3.398   4.695  12.232  1.9881 -0.8389 -0.9010
 4362TIP3    H234502   3.364   4.649  12.372  0.8553  0.2870 -0.7905
 4363TIP3   OH234503   4.530   0.295  14.679 -0.3048  0.5344 -0.1181
 4363TIP3    H134504   4.458   0.249  14.636  1.1050 -0.9165 -1.0895
 4363TIP3    H234505   4.527   0.384  14.644 -2.1183  0.7593  0.5420
 4364TIP3   OH234506   6.639   2.384  14.423 -0.5414  0.4225 -0.6075
 4364TIP3    H134507   6.642   2.477  14.443  1.1865  0.2444  0.0962
 4364TIP3    H234508   6.727   2.363  14.393  0.2626 -1.7147  2.7469
 4365TIP3   OH234509   5.610   1.741  16.948  0.8048 -0.0138 -0.4068
 4365TIP3    H134510   5.609   1.834  16.970  2.5777  0.1167 -0.6877
 4365TIP3    H234511   5.575   1.697  17.025  1.4765  0.7896  0.3758
 4366TIP3   OH234512   1.862   0.195   1.558  0.1044 -0.2755  0.4288
 4366TIP3    H134513   1.823   0.199   1.470 -0.2903 -0.3652  0.6008
 4366TIP3    H234514   1.794   0.156   1.613  0.9032 -1.7111  0.4586
 4367TIP3   OH234515   2.503   0.046   0.973 -0.0624 -0.2301 -0.4870
 4367TIP3    H134516   2.461   0.044   0.887 -0.2311 -1.3084 -0.3990
 4367TIP3    H234517   2.571  -0.022   0.967 -0.1172 -0.3557  0.2490
 4368TIP3   OH234518   1.643   6.296  17.190 -0.0651 -0.4064 -0.3996
 4368TIP3    H134519   1.711   6.229  17.179  0.2876 -0.3303  1.0287
 4368TIP3    H234520   1.692   6.375  17.212 -0.4613  0.4180 -2.2672
 4369TIP3   OH234521   1.375   2.707  12.287  0.1532  0.6444  0.9377
 4369TIP3    H134522   1.449   2.663  12.245  0.0541  0.6337  0.7719
 4369TIP3    H234523   1.384   2.799  12.262  0.3962  0.7311  1.3355
 4370TIP3   OH234524   4.915   3.120  15.859  0.1397 -0.2049  0.3965
 4370TIP3    H134525   4.933   3.206  15.821 -0.3211 -0.9356 -1.5724
 4370TIP3    H234526   4.822   3.122  15.878 -0.0235 -0.5229 -0.3539
 4371TIP3   OH234527   1.558   5.713  16.954 -0.1619  0.0113  0.2810
 4371TIP3    H134528   1.545   5.652  16.881  1.1028  0.6436 -0.5139
 4371TIP3    H234529   1.590   5.793  16.912 -2.1858  1.4109  1.2414
 4372TIP3   OH234530   3.084   3.432   6.283 -0.0642  0.0987 -0.8359
 4372TIP3    H134531   3.068   3.338   6.274  0.5245  0.1453 -2.6161
 4372TIP3    H234532   3.145   3.439   6.356 -2.1590 -0.6510  1.1275
 4373TIP3   OH234533   5.983   3.904   4.576 -0.4824 -0.0693 -0.0168
 4373TIP3    H134534   5.960   3.847   4.502  0.9812  0.4869 -0.9605
 4373TIP3    H234535   6.069   3.939   4.553 -1.0276  2.0049  0.8491
 4374TIP3   OH234536   1.672   3.679  15.509  0.6044 -0.3410 -0.2429
 4374TIP3    H134537   1.730   3.750  15.535 -0.5475  0.3821  0.4479
 4374TIP3    H234538   1.683   3.613  15.578  1.8794 -0.9880 -1.0282
 4375TIP3   OH234539   5.739   0.087   2.357  0.4405 -0.4233  0.3873
 4375TIP3    H134540   5.730   0.101   2.451 -2.6952 -1.2489  0.3241
 4375TIP3    H234541   5.827   0.051   2.346  0.7663 -0.6032  3.0115
 4376TIP3   OH234542   3.973   4.639   1.338 -0.1674  0.6684  0.1533
 4376TIP3    H134543   3.939   4.571   1.280  0.1345 -0.8486  1.6669
 4376TIP3    H234544   4.065   4.649   1.312  0.0989 -0.3587  0.6686
 4377TIP3   OH234545   4.978   2.950   1.262 -0.4148  0.2106  0.0559
 4377TIP3    H134546   4.962   2.935   1.169  1.2512 -0.0465 -0.2215
 4377TIP3    H234547   4.959   3.043   1.275  0.9748  0.6683 -0.9454
 4378TIP3   OH234548   3.877   1.305  16.384 -0.3991 -0.4773  0.1766
 4378TIP3    H134549   3.796   1.256  16.399  0.2647 -1.8220 -0.4900
 4378TIP3    H234550   3.944   1.256  16.433  0.5460 -1.0927 -1.6574
 4379TIP3   OH234551   0.843   1.038  15.829  0.5077  0.3415  0.0006
 4379TIP3    H134552   0.845   1.084  15.744  0.4295  0.7408  0.2119
 4379TIP3    H234553   0.823   1.107  15.892  0.8113  0.0874  0.3754
 4380TIP3   OH234554   1.285   5.438  13.163  0.2954 -0.1637 -0.7022
 4380TIP3    H134555   1.205   5.490  13.153  0.1232 -0.1424  0.6065
 4380TIP3    H234556   1.261   5.369  13.225  1.5120  0.3742  0.4193
 4381TIP3   OH234557   4.460   0.342  16.168 -0.2770  0.2319  1.1793
 4381TIP3    H134558   4.450   0.374  16.258 -2.7828 -0.3318  1.1778
 4381TIP3    H234559   4.536   0.283  16.172  1.2122  2.0977  2.3144
 4382TIP3   OH234560   4.974   4.857  16.604 -0.1431  0.0259  0.2888
 4382TIP3    H134561   5.007   4.768  16.616 -1.0685 -0.5973 -1.4878
 4382TIP3    H234562   4.948   4.884  16.693  1.2849 -0.9702  1.0587
 4383TIP3   OH234563   3.151   6.477  12.550  0.0878 -0.3459 -0.1858
 4383TIP3    H134564   3.202   6.473  12.469 -0.1255  0.3224 -0.3595
 4383TIP3    H234565   3.075   6.530  12.527  0.1981  0.1399  0.5490
 4384TIP3   OH234566   5.539   5.574   1.211  0.0887  0.9581 -0.1966
 4384TIP3    H134567   5.599   5.502   1.229 -0.1979  0.4617 -1.2053
 4384TIP3    H234568   5.584   5.651   1.246  1.1344  0.5306 -0.5673
 4385TIP3   OH234569   1.917   3.524   1.369  0.3184 -0.0365 -0.0861
 4385TIP3    H134570   1.939   3.617   1.368  0.6251 -0.1101 -0.5160
 4385TIP3    H234571   1.853   3.516   1.439 -0.1109  0.5907 -0.3922
 4386TIP3   OH234572   4.130   1.563   5.183  0.6887  0.1534  0.5466
 4386TIP3    H134573   4.201   1.540   5.122 -0.9457 -2.5159 -0.5624
 4386TIP3    H234574   4.054   1.573   5.126 -0.6704 -1.3351  2.0181
 4387TIP3   OH234575   4.826   3.235   5.928 -0.2973 -0.2278  0.0255
 4387TIP3    H134576   4.902   3.266   5.977 -1.0545  0.3783  0.8464
 4387TIP3    H234577   4.824   3.141   5.943  0.3468 -0.2696 -0.1012
 4388TIP3   OH234578   6.375   3.333   0.866 -0.4633 -0.0191 -0.0935
 4388TIP3    H134579   6.320   3.382   0.804  0.4918  0.6040 -0.4610
 4388TIP3    H234580   6.430   3.278   0.811 -1.9046 -2.0025  0.3206
 4389TIP3   OH234581   4.388   0.821   1.637 -0.0560  0.3777  0.4679
 4389TIP3    H134582   4.463   0.797   1.582 -0.4032 -2.7019  1.1840
 4389TIP3    H234583   4.316   0.831   1.575  0.6037  2.0912 -0.0881
 4390TIP3   OH234584   6.672   4.555   3.420  0.1386  0.2712 -0.1553
 4390TIP3    H134585   6.682   4.460   3.416 -0.1901  0.2608 -1.2323
 4390TIP3    H234586   6.717   4.587   3.342 -1.4798  0.8151 -0.9189
 4391TIP3   OH234587   2.294   4.966  13.516  0.1058 -0.2067  0.4346
 4391TIP3    H134588   2.321   4.940  13.428  2.1795 -1.1876  1.2924
 4391TIP3    H234589   2.263   5.056  13.506 -2.1512 -1.0923 -1.6944
 4392TIP3   OH234590   2.529   5.546  10.963  0.1019 -0.6216  0.0008
 4392TIP3    H134591   2.478   5.597  10.901  3.0152  1.4098 -0.9421
 4392TIP3    H234592   2.521   5.455  10.933 -0.8920 -0.0414 -1.5740
 4393TIP3   OH234593   2.107   2.038   6.666 -0.3981  0.1026  0.4815
 4393TIP3    H134594   2.068   1.956   6.697 -0.5946 -0.4923 -1.2654
 4393TIP3    H234595   2.148   2.016   6.583 -0.8185  1.8626 -0.2515
 4394TIP3   OH234596   5.869   6.369  15.677 -0.4502 -0.5595 -0.3648
 4394TIP3    H134597   5.851   6.293  15.733  1.0488 -0.4017  0.3802
 4394TIP3    H234598   5.942   6.342  15.622 -0.4878  0.0533 -0.7307
 4395TIP3   OH234599   5.478   3.884   3.423  0.1332 -0.6959 -0.1546
 4395TIP3    H134600   5.498   3.964   3.473 -2.9964 -0.5924  1.1688
 4395TIP3    H234601   5.563   3.853   3.393  1.6515  2.1768  0.7493
 4396TIP3   OH234602   6.477   0.931  14.465 -0.0722  0.0389 -0.1378
 4396TIP3    H134603   6.413   0.961  14.401  0.2958 -0.4672 -0.7551
 4396TIP3    H234604   6.554   0.986  14.450 -0.1576  0.2610  0.2184
 4397TIP3   OH234605   4.951   6.738   1.308  0.0394  0.1252  0.2741
 4397TIP3    H134606   4.875   6.681   1.325  0.1785 -0.2486 -0.3510
 4397TIP3    H234607   5.016   6.680   1.268  0.0164  0.8153 -0.7922
 4398TIP3   OH234608   2.770   4.404   2.612  0.4037  0.0579  0.1543
 4398TIP3    H134609   2.747   4.380   2.522  2.3127  2.5921 -1.1328
 4398TIP3    H234610   2.689   4.441   2.649 -0.8112 -2.3373  0.0829
 4399TIP3   OH234611   5.648   3.384  11.041  0.3883 -0.1642  0.1619
 4399TIP3    H134612   5.695   3.334  10.974  2.4494  0.5807  0.9552
 4399TIP3    H234613   5.611   3.459  10.994  0.3290 -0.5506 -0.4199
 4400TIP3   OH234614   2.578   1.272  12.753  0.2308 -1.0210  0.3073
 4400TIP3    H134615   2.497   1.241  12.713  1.0443 -1.0885 -1.3794
 4400TIP3    H234616   2.622   1.192  12.783  0.5647 -1.1858 -0.5794
 4401TIP3   OH234617   6.299   6.109  15.548  0.0638 -0.1980  0.7278
 4401TIP3    H134618   6.346   6.069  15.475  1.7412 -0.5723  1.9727
 4401TIP3    H234619   6.346   6.081  15.626 -2.5245 -1.0125  2.1224
 4402TIP3   OH234620   4.315   6.174   2.912 -0.1410 -0.6717  0.6383
 4402TIP3    H134621   4.315   6.269   2.895  1.2708 -0.7047  0.3516
 4402TIP3    H234622   4.404   6.154   2.940 -0.1409 -2.0750 -0.2534
 4403TIP3   OH234623   6.194   1.696   0.633 -0.0667  0.1093  0.1988
 4403TIP3    H134624   6.269   1.637   0.641  0.0522  0.1347 -0.6111
 4403TIP3    H234625   6.232   1.784   0.640  0.1997  0.1672 -1.5989
 4404TIP3   OH234626   1.381   5.078  15.639 -0.3259 -0.3661  0.0127
 4404TIP3    H134627   1.330   5.105  15.715  0.9289  3.1951 -0.2576
 4404TIP3    H234628   1.472   5.096  15.663  0.1434  0.4697 -2.1206
 4405TIP3   OH234629   3.976   6.522  12.769  0.2515  0.0190  0.4805
 4405TIP3    H134630   3.928   6.473  12.835  1.5458  0.1003  1.5190
 4405TIP3    H234631   3.937   6.610  12.771 -0.8058 -0.4339 -0.0417
 4406TIP3   OH234632   3.421   4.953  16.364  0.0362  0.1021 -0.7620
 4406TIP3    H134633   3.325   4.954  16.362 -0.0026  2.8551 -3.3759
 4406TIP3    H234634   3.443   4.973  16.455 -1.8657  0.4203 -0.3200
 4407TIP3   OH234635   6.281   4.481   0.324  0.2135  0.2930  1.0213
 4407TIP3    H134636   6.246   4.450   0.240 -0.6795  0.0108  1.4762
 4407TIP3    H234637   6.203   4.490   0.380  1.0001 -2.2056  2.7031
 4408TIP3   OH234638   4.219   3.839  15.949 -0.0054  0.4259  0.9557
 4408TIP3    H134639   4.148   3.904  15.952 -0.2104  0.2499  0.2346
 4408TIP3    H234640   4.256   3.840  16.037 -0.8616  0.5774  1.3327
 4409TIP3   OH234641   3.025   3.477   5.054  0.1176  0.0173 -0.1260
 4409TIP3    H134642   3.092   3.410   5.055  0.0087 -0.1121  1.3553
 4409TIP3    H234643   3.060   3.547   5.109 -0.4235  0.4989 -0.3800
 4410TIP3   OH234644   3.167   2.376  12.396  0.4158  0.1055  0.9764
 4410TIP3    H134645   3.262   2.377  12.381  0.3971 -0.8374  0.6787
 4410TIP3    H234646   3.139   2.292  12.359 -0.4594  0.1531  1.5121
 4411TIP3   OH234647   4.412   5.802  12.611 -0.1934 -0.1131 -0.0004
 4411TIP3    H134648   4.455   5.717  12.614  2.0641  0.8598 -1.8785
 4411TIP3    H234649   4.336   5.789  12.554 -2.3205 -1.7009  2.8896
 4412TIP3   OH234650   5.186   3.575  12.276 -0.0220 -0.5554  0.0398
 4412TIP3    H134651   5.153   3.575  12.365 -0.2293 -1.7929 -0.0174
 4412TIP3    H234652   5.280   3.558  12.285 -0.1754 -1.5015  0.0064
 4413TIP3   OH234653   1.789   2.692  11.216 -0.0859 -0.8251 -0.8428
 4413TIP3    H134654   1.730   2.628  11.176 -1.7542  0.5889 -0.7653
 4413TIP3    H234655   1.814   2.654  11.300 -1.1770 -1.3109 -0.7281
 4414TIP3   OH234656   1.596   2.405  12.386  0.2311 -0.4898  0.2594
 4414TIP3    H134657   1.663   2.363  12.440  0.6333 -1.4492 -0.9410
 4414TIP3    H234658   1.629   2.494  12.372 -0.5635  0.2683  2.7125
 4415TIP3   OH234659   1.986   0.888  16.099  0.7003  0.2550 -0.0381
 4415TIP3    H134660   1.900   0.850  16.117  1.5064 -1.0667  1.2512
 4415TIP3    H234661   1.976   0.981  16.120 -0.0393 -0.1446  1.5405
 4416TIP3   OH234662   5.067   3.338  11.621 -0.1799 -0.2053 -0.0969
 4416TIP3    H134663   5.029   3.344  11.533  1.3239  1.4458 -0.6986
 4416TIP3    H234664   5.023   3.408  11.670  2.6010  2.4434 -1.0940
 4417TIP3   OH234665   4.532   5.901   2.246 -0.0668 -0.1999 -0.1603
 4417TIP3    H134666   4.568   5.838   2.308  3.4232 -0.6711 -2.3796
 4417TIP3    H234667   4.581   5.982   2.262 -1.1773  0.5451 -0.4147
 4418TIP3   OH234668   0.924   0.565   4.313 -0.0169  0.0435 -0.3365
 4418TIP3    H134669   0.941   0.499   4.379 -0.5697  1.3816  1.2120
 4418TIP3    H234670   0.998   0.626   4.321 -0.5714  0.7158 -0.2895
 4419TIP3   OH234671   1.530   1.362   3.724 -0.1909  0.0413  0.1433
 4419TIP3    H134672   1.541   1.322   3.638  0.8308  0.0354  0.2605
 4419TIP3    H234673   1.481   1.442   3.708  0.7487  0.4846 -0.5597
 4420TIP3   OH234674   5.302   5.554   5.611  0.3764 -0.4241 -0.9128
 4420TIP3    H134675   5.239   5.483   5.599  1.7207 -1.9521  0.5614
 4420TIP3    H234676   5.369   5.539   5.544 -0.8810  1.4049 -2.7146
 4421TIP3   OH234677   0.187   3.416  11.295  0.1950  0.3581 -0.1338
 4421TIP3    H134678   0.254   3.483  11.290  0.9505 -0.3684  0.1071
 4421TIP3    H234679   0.225   3.340  11.250  0.0662 -0.4907  1.1349
 4422TIP3   OH234680   4.689   2.092   5.503  0.0293  0.1338  0.1399
 4422TIP3    H134681   4.752   2.143   5.556  0.0912 -0.0247  0.2205
 4422TIP3    H234682   4.744   2.047   5.439 -0.1199  0.9006 -0.5376
 4423TIP3   OH234683   0.818   4.465   2.626 -0.2367 -0.1893  0.6139
 4423TIP3    H134684   0.761   4.457   2.703 -0.8069  0.3630  0.2641
 4423TIP3    H234685   0.866   4.383   2.623 -1.8354 -1.1644  0.2919
 4424TIP3   OH234686   4.741   5.241  12.434  0.5318  0.0074  0.4350
 4424TIP3    H134687   4.713   5.304  12.368  0.4854  1.6222  1.9309
 4424TIP3    H234688   4.802   5.290  12.490  1.8144 -1.7613  0.6861
 4425TIP3   OH234689   4.503   4.450   1.468 -0.3859 -0.1325 -0.5714
 4425TIP3    H134690   4.470   4.382   1.409 -0.7181  1.1159 -1.8616
 4425TIP3    H234691   4.572   4.406   1.518 -1.8514 -1.9186 -0.0474
 4426TIP3   OH234692   2.265   4.745   3.286  0.1202 -0.5152  0.6300
 4426TIP3    H134693   2.268   4.777   3.196 -1.3534  2.3551  1.4697
 4426TIP3    H234694   2.299   4.655   3.281 -0.7674 -0.8082 -2.9042
 4427TIP3   OH234695   2.828   6.236  16.832  0.0389  0.4060  0.1757
 4427TIP3    H134696   2.743   6.207  16.799  0.9783  0.0509 -2.1148
 4427TIP3    H234697   2.851   6.172  16.899 -1.5530  0.6302  0.9826
 4428TIP3   OH234698   3.342   4.852   2.033 -0.1894  0.1560 -0.0598
 4428TIP3    H134699   3.269   4.820   1.980 -0.2487 -0.3839  0.3410
 4428TIP3    H234700   3.315   4.836   2.123 -0.9146  2.7753  0.2967
 4429TIP3   OH234701   3.079   4.048   1.166  0.4276  0.0845 -0.1039
 4429TIP3    H134702   3.027   3.969   1.181  0.4771 -0.1897 -1.2675
 4429TIP3    H234703   3.035   4.116   1.217 -0.3516 -0.4181 -0.0925
 4430TIP3   OH234704   1.149   5.737   6.560  0.0197 -0.3413 -0.4574
 4430TIP3    H134705   1.202   5.803   6.605  0.5780 -1.5417  0.7229
 4430TIP3    H234706   1.077   5.786   6.521 -0.3687  0.8306  1.5585
 4431TIP3   OH234707   2.496   6.363  16.562  0.7018 -0.4264  0.0781
 4431TIP3    H134708   2.518   6.448  16.598  0.7918 -0.4101 -0.0162
 4431TIP3    H234709   2.560   6.303  16.599 -0.4614 -0.7800  1.5798
 4432TIP3   OH234710   1.753   6.270   0.061  0.0898 -0.0262  0.6744
 4432TIP3    H134711   1.677   6.261   0.004 -0.6594 -1.2563  1.8271
 4432TIP3    H234712   1.784   6.360   0.046 -1.8683  0.6614  0.5488
 4433TIP3   OH234713   3.909   0.178   2.200 -0.4435 -0.6370  0.1864
 4433TIP3    H134714   3.957   0.232   2.263 -1.6600  1.2492 -0.4394
 4433TIP3    H234715   3.969   0.169   2.126 -0.1939 -0.2304  0.3342
 4434TIP3   OH234716   6.436   0.848  13.661 -0.0225 -0.2908  0.2494
 4434TIP3    H134717   6.343   0.839  13.637 -0.1787 -1.4585  1.1992
 4434TIP3    H234718   6.434   0.886  13.748  0.3902 -0.5990  0.3909
 4435TIP3   OH234719   0.728   2.481   5.471 -0.8492  0.0200 -0.6980
 4435TIP3    H134720   0.720   2.444   5.383  0.5166  1.7937 -1.6422
 4435TIP3    H234721   0.809   2.533   5.467 -0.9701  0.4422  1.5019
 4436TIP3   OH234722   1.071   3.321  15.483  0.2934 -0.1254 -0.1078
 4436TIP3    H134723   0.979   3.296  15.490 -0.4446  2.1695 -0.8174
 4436TIP3    H234724   1.097   3.295  15.395  0.4704 -1.1250  0.2248
 4437TIP3   OH234725   0.078   3.200   6.697 -0.2770  0.0986 -0.4564
 4437TIP3    H134726   0.154   3.234   6.744  0.0700 -1.2462  0.0086
 4437TIP3    H234727   0.009   3.193   6.764 -0.6558  0.8190 -0.7630
 4438TIP3   OH234728   4.592   1.760   6.191  0.2081  0.4405  0.1446
 4438TIP3    H134729   4.519   1.756   6.130  1.1103  2.8712 -1.2475
 4438TIP3    H234730   4.565   1.824   6.257  0.2073 -0.3425  0.9141
 4439TIP3   OH234731   4.656   1.371  12.115  0.0928  0.1170  0.5830
 4439TIP3    H134732   4.632   1.321  12.037 -0.2814 -1.5229  1.7110
 4439TIP3    H234733   4.601   1.449  12.111 -1.2285 -0.7957  0.1050
 4440TIP3   OH234734   0.890   2.439  12.764  0.1183  0.0434  0.0087
 4440TIP3    H134735   0.815   2.469  12.816  0.1333 -0.6219  0.4392
 4440TIP3    H234736   0.948   2.397  12.828  1.1339  1.0482 -0.2375
 4441TIP3   OH234737   6.350   2.704  10.539  0.1523 -0.2461 -0.9223
 4441TIP3    H134738   6.338   2.793  10.506  1.5592  0.3276  0.0436
 4441TIP3    H234739   6.444   2.695  10.552 -0.1138 -1.3011  0.5540
 4442TIP3   OH234740   2.019   4.454  15.198  0.0608  0.0797  0.1486
 4442TIP3    H134741   2.070   4.436  15.119  1.1953 -0.2109  0.9207
 4442TIP3    H234742   1.964   4.529  15.175 -0.4435 -0.6983 -1.2574
 4443TIP3   OH234743   1.215   3.293  12.474 -0.4374  0.0614  0.5573
 4443TIP3    H134744   1.167   3.375  12.468 -1.5227 -0.6071 -0.0665
 4443TIP3    H234745   1.297   3.310  12.428 -1.6929  0.0597 -1.7901
 4444TIP3   OH234746   0.345   3.503   5.214 -0.0182  0.6514 -0.1148
 4444TIP3    H134747   0.425   3.553   5.198  0.4114 -0.1411 -0.4957
 4444TIP3    H234748   0.325   3.517   5.306  0.8470  0.4605  0.1036
 4445TIP3   OH234749   0.462   5.564  12.721  0.5453  0.0108 -0.5359
 4445TIP3    H134750   0.379   5.530  12.687  0.7360 -0.2607 -0.7311
 4445TIP3    H234751   0.505   5.602  12.644  0.4865  0.3877 -0.3845
 4446TIP3   OH234752   2.374   0.335   0.538  0.0214 -0.4641  0.1166
 4446TIP3    H134753   2.298   0.379   0.576 -0.3970 -0.6560 -0.4844
 4446TIP3    H234754   2.339   0.252   0.504  0.5315 -0.6292 -0.0068
 4447TIP3   OH234755   3.956   2.361   2.687 -0.0258  0.0513  0.2922
 4447TIP3    H134756   3.879   2.304   2.679  1.8446 -2.7692  0.7666
 4447TIP3    H234757   4.029   2.300   2.695  2.4714  2.5720 -1.5604
 4448TIP3   OH234758   6.706   3.958   1.230 -0.1554 -0.0590  0.0535
 4448TIP3    H134759   6.612   3.948   1.240 -0.0626 -1.2105 -0.0428
 4448TIP3    H234760   6.743   3.884   1.278  0.5442 -1.6951 -2.7569
 4449TIP3   OH234761   4.502   2.567  13.916 -0.2453  0.0129  0.0856
 4449TIP3    H134762   4.491   2.510  13.840 -1.1798 -1.9048  1.5744
 4449TIP3    H234763   4.418   2.614  13.923 -0.5352 -0.5513  0.4827
 4450TIP3   OH234764   4.991   2.684  13.712  0.3064 -0.1779 -0.3680
 4450TIP3    H134765   4.952   2.676  13.625 -1.1947 -0.9622  0.3360
 4450TIP3    H234766   4.927   2.642  13.770  0.9703  0.9129  1.2003
 4451TIP3   OH234767   4.797   1.200  14.013 -0.2257  0.3925  0.1088
 4451TIP3    H134768   4.888   1.194  14.041  0.0979  2.5261 -0.3371
 4451TIP3    H234769   4.797   1.168  13.923 -0.2103 -0.9229  0.5508
 4452TIP3   OH234770   2.743   6.565   3.488  0.3626 -0.4536  0.0359
 4452TIP3    H134771   2.690   6.543   3.564  2.7945 -2.2759  1.3636
 4452TIP3    H234772   2.682   6.603   3.426 -1.8320  0.8104  2.7212
 4453TIP3   OH234773   4.317   2.926  12.812  0.1251 -0.1861  0.3390
 4453TIP3    H134774   4.412   2.924  12.815  0.1066  0.3192  1.8418
 4453TIP3    H234775   4.295   3.019  12.802 -0.2125 -0.2817  0.1816
 4454TIP3   OH234776   1.247   6.501  16.313  0.2832 -0.2394  0.1306
 4454TIP3    H134777   1.333   6.461  16.328  1.1819  1.3246 -0.6392
 4454TIP3    H234778   1.213   6.455  16.236 -0.2871 -1.9043  1.3085
 4455TIP3   OH234779   4.716   3.715   0.988  0.3614 -0.1185  0.2375
 4455TIP3    H134780   4.638   3.660   0.973 -1.0696  2.3104 -2.1308
 4455TIP3    H234781   4.740   3.697   1.079 -2.1612 -1.9542  0.6775
 4456TIP3   OH234782   3.526   5.906   0.311 -0.1603 -0.4703 -0.3777
 4456TIP3    H134783   3.443   5.945   0.341  0.7107  1.6574 -0.5289
 4456TIP3    H234784   3.500   5.828   0.264 -2.1597  0.5073 -1.0142
 4457TIP3   OH234785   0.348   5.199  13.046  0.3929  0.1565  0.2408
 4457TIP3    H134786   0.346   5.121  13.101  2.0370  1.1344  1.8174
 4457TIP3    H234787   0.256   5.220  13.031 -0.1779  0.0972  3.0798
 4458TIP3   OH234788   3.631   2.208   5.244 -0.4569  0.0672  0.3989
 4458TIP3    H134789   3.612   2.224   5.337 -1.2958  1.9451 -0.0491
 4458TIP3    H234790   3.714   2.254   5.228 -0.0097 -0.7432  0.3294
 4459TIP3   OH234791   3.199   6.154   0.814  0.1580 -0.0577  0.5665
 4459TIP3    H134792   3.126   6.212   0.791  0.6123 -0.2532 -1.5348
 4459TIP3    H234793   3.269   6.214   0.841 -0.4921  0.1706  1.7909
 4460TIP3   OH234794   3.628   1.599   3.365 -0.4064  0.1700  0.1264
 4460TIP3    H134795   3.537   1.572   3.355 -0.2442 -0.8092  1.0517
 4460TIP3    H234796   3.655   1.628   3.278 -2.3017  2.8800  0.3092
 4461TIP3   OH234797   3.669   4.603   2.753  0.6594 -0.1424 -0.3848
 4461TIP3    H134798   3.705   4.576   2.669  0.5708  1.5026 -0.9990
 4461TIP3    H234799   3.629   4.524   2.789 -0.6905 -0.5591 -2.6293
 4462TIP3   OH234800   1.734   4.138   0.965  0.0857 -0.3442 -0.3863
 4462TIP3    H134801   1.752   4.122   0.872  0.6896 -0.4893 -0.2433
 4462TIP3    H234802   1.644   4.171   0.966  0.0115 -0.5180 -1.0057
 4463TIP3   OH234803   6.251   2.041   2.061 -0.6890  0.4346 -0.0835
 4463TIP3    H134804   6.193   2.117   2.069 -1.2634 -0.0691  0.6906
 4463TIP3    H234805   6.192   1.966   2.057 -0.1935  0.0830 -2.2123
 4464TIP3   OH234806   4.356   4.907  13.390 -0.3769  0.0004  0.3682
 4464TIP3    H134807   4.354   4.911  13.485  0.9821 -0.1899  0.4352
 4464TIP3    H234808   4.446   4.929  13.367 -0.8937  0.8649 -0.9297
 4465TIP3   OH234809   4.068   5.543   3.457  0.0713  0.2235 -0.1076
 4465TIP3    H134810   4.033   5.580   3.376  1.6741  2.1167 -0.0047
 4465TIP3    H234811   4.060   5.614   3.521 -0.5788 -1.0198  1.2679
 4466TIP3   OH234812   2.653   1.113  15.932  0.6557  0.1498 -0.1388
 4466TIP3    H134813   2.729   1.127  15.989 -0.1701 -0.5756  1.1829
 4466TIP3    H234814   2.579   1.147  15.982 -0.1264 -0.7537 -0.6556
 4467TIP3   OH234815   1.861   2.477   1.585  0.6789  0.8470  0.1155
 4467TIP3    H134816   1.819   2.395   1.559  0.3813  1.2033 -0.5435
 4467TIP3    H234817   1.950   2.452   1.607  0.8361  0.4577 -0.8961
 4468TIP3   OH234818   2.909   4.159  16.098  0.1046  0.1805  0.1568
 4468TIP3    H134819   2.924   4.137  16.007  1.3736  1.8557 -0.0891
 4468TIP3    H234820   2.815   4.178  16.104  0.3294  2.0314 -1.2985
 4469TIP3   OH234821   1.922   3.010   1.716  0.0768  0.1001  0.2662
 4469TIP3    H134822   1.875   3.093   1.711 -0.7736 -0.4065 -0.5715
 4469TIP3    H234823   1.909   2.981   1.807 -3.5867 -1.2966 -0.5353
 4470TIP3   OH234824   3.977   6.054  14.117  0.2528  0.0246  0.2514
 4470TIP3    H134825   3.977   6.143  14.155 -0.2276 -0.3129  1.0769
 4470TIP3    H234826   4.067   6.024  14.127  0.1245 -0.0773  1.2109
 4471TIP3   OH234827   4.344   0.347   5.793  0.0086  0.4275 -0.2102
 4471TIP3    H134828   4.260   0.359   5.837  0.2175  1.3250 -0.0449
 4471TIP3    H234829   4.367   0.433   5.759 -0.9200 -0.5218 -3.5732
 4472TIP3   OH234830   0.020   1.605  13.422  0.2705 -0.1026 -0.1326
 4472TIP3    H134831   0.047   1.659  13.497 -0.3096  0.6642 -0.4643
 4472TIP3    H234832  -0.069   1.578  13.443  0.5568 -0.9425  0.0267
 4473TIP3   OH234833   1.974   0.447   4.551  0.5801 -0.4279 -0.1228
 4473TIP3    H134834   2.048   0.505   4.566  2.0170 -2.4635  1.1065
 4473TIP3    H234835   1.961   0.448   4.456  1.4202  0.8430 -0.2391
 4474TIP3   OH234836   5.479   6.220  10.895 -0.1952  0.1122 -0.1306
 4474TIP3    H134837   5.511   6.207  10.806 -1.7031  1.7498 -0.9885
 4474TIP3    H234838   5.385   6.202  10.890 -0.1822 -0.5051  1.3104
 4475TIP3   OH234839   5.965   3.505  11.858 -0.0042 -0.3555 -0.1862
 4475TIP3    H134840   6.047   3.549  11.881 -1.0652  2.2947 -1.0362
 4475TIP3    H234841   5.968   3.497  11.762 -1.4176  1.4233 -0.4352
 4476TIP3   OH234842   1.259   6.639  14.810 -0.0650  0.3282  0.0028
 4476TIP3    H134843   1.307   6.633  14.728 -0.1275  0.4665 -0.0438
 4476TIP3    H234844   1.237   6.549  14.832  0.8282  0.1919  0.3861
 4477TIP3   OH234845   2.344   0.174  15.659  0.2339 -0.2307  0.0247
 4477TIP3    H134846   2.346   0.080  15.643  1.2819 -0.2793  0.3413
 4477TIP3    H234847   2.404   0.210  15.594 -0.0806  0.2100 -0.0239
 4478TIP3   OH234848   3.711   1.833  12.783 -0.0700  0.2208 -0.4370
 4478TIP3    H134849   3.669   1.751  12.811  1.1806 -0.3679 -0.2201
 4478TIP3    H234850   3.643   1.899  12.794 -1.9710 -1.1209 -2.9830
 4479TIP3   OH234851   3.777   4.934  14.336  0.3218  0.2635 -0.1683
 4479TIP3    H134852   3.793   4.896  14.422 -0.4833  0.1769 -0.0483
 4479TIP3    H234853   3.849   4.902  14.282  1.0666  0.6444  0.5646
 4480TIP3   OH234854   5.756   0.539  15.339  0.1121  0.6222  0.4730
 4480TIP3    H134855   5.756   0.635  15.336 -1.4681  0.6489  0.2483
 4480TIP3    H234856   5.770   0.518  15.431 -0.4237  1.1110  0.6750
 4481TIP3   OH234857   6.421   4.693   4.290 -0.4824 -0.1147 -0.3647
 4481TIP3    H134858   6.404   4.613   4.240  0.7075 -0.3625 -0.4099
 4481TIP3    H234859   6.510   4.681   4.324 -0.9474  0.4262  1.1095
 4482TIP3   OH234860   1.909   5.199   3.666  0.2000 -0.2724 -0.3814
 4482TIP3    H134861   1.946   5.277   3.624  1.7838 -1.3377 -1.0535
 4482TIP3    H234862   1.985   5.145   3.686 -0.8538 -1.5427  0.2965
 4483TIP3   OH234863   1.017   4.259   6.406 -0.6453  0.0550 -0.3119
 4483TIP3    H134864   0.942   4.243   6.464 -0.3652 -0.8192 -0.1792
 4483TIP3    H234865   1.093   4.256   6.464 -0.4325  0.0329 -0.5925
 4484TIP3   OH234866   0.038   1.271  15.823 -0.4286  0.0938 -0.1459
 4484TIP3    H134867  -0.057   1.278  15.829 -0.3294  1.2270  0.2736
 4484TIP3    H234868   0.065   1.234  15.907 -0.2688  2.6960  1.0592
 4485TIP3   OH234869   2.883   1.318  14.066 -0.1985  0.0519 -0.1372
 4485TIP3    H134870   2.968   1.301  14.106 -0.4713 -1.5481 -0.1699
 4485TIP3    H234871   2.852   1.232  14.037 -1.7587  0.6126 -0.2521
 4486TIP3   OH234872   1.914   2.924  14.588  0.3621 -0.0209 -0.2660
 4486TIP3    H134873   1.955   2.838  14.578  0.5076 -0.0160  0.2846
 4486TIP3    H234874   1.853   2.913  14.661  0.9995  0.5677  0.3641
 4487TIP3   OH234875   5.511   4.875  12.573  0.2826 -0.0605 -0.2650
 4487TIP3    H134876   5.530   4.863  12.480  0.5054  1.2229 -0.3977
 4487TIP3    H234877   5.512   4.970  12.586 -1.9547 -0.1091  0.5947
 4488TIP3   OH234878   6.243   2.834   4.402  0.0470 -0.3170  0.0373
 4488TIP3    H134879   6.243   2.887   4.322  0.5964 -0.1456  0.1498
 4488TIP3    H234880   6.330   2.795   4.406 -0.7355 -2.2872 -0.7339
 4489TIP3   OH234881   5.284   5.179   1.307  0.4492  0.3177  0.5524
 4489TIP3    H134882   5.287   5.101   1.363 -2.8015  2.4509  4.1497
 4489TIP3    H234883   5.366   5.225   1.325  1.6643 -1.3619 -0.3797
 4490TIP3   OH234884   4.395   0.519  12.052 -0.5165  0.1048  0.0803
 4490TIP3    H134885   4.454   0.569  11.995 -0.5018  0.3023  0.2633
 4490TIP3    H234886   4.325   0.488  11.995  0.5668 -1.4644 -0.4651
 4491TIP3   OH234887   0.058   4.540   2.973  0.4171 -0.2388  0.1457
 4491TIP3    H134888   0.091   4.492   2.897  0.4491 -0.3453  0.2268
 4491TIP3    H234889   0.129   4.537   3.036  0.5354  0.1775  0.0375
 4492TIP3   OH234890   1.597   0.135   3.013  0.2206 -0.1077 -0.5560
 4492TIP3    H134891   1.533   0.199   2.983 -0.6352 -0.7229 -0.0718
 4492TIP3    H234892   1.587   0.134   3.108  2.2683  1.1621 -0.2486
 4493TIP3   OH234893   1.092   1.545  10.830  0.2990 -0.0532  0.5771
 4493TIP3    H134894   1.065   1.475  10.890  0.5512 -0.3710  0.3238
 4493TIP3    H234895   1.136   1.499  10.758  0.9168  0.4036  0.6547
 4494TIP3   OH234896   0.360   4.856   6.134  0.2726  0.0890 -0.7849
 4494TIP3    H134897   0.335   4.793   6.201  1.6623  0.9687  0.6355
 4494TIP3    H234898   0.351   4.808   6.051  1.2129 -1.9554  0.2230
 4495TIP3   OH234899   0.496   6.729  13.052  0.3735 -0.0979 -0.5290
 4495TIP3    H134900   0.540   6.806  13.016  0.1019 -0.2940 -1.3192
 4495TIP3    H234901   0.478   6.674  12.975  1.0678 -1.2136  0.0728
 4496TIP3   OH234902   5.587   0.647  13.484  0.0100  0.3140 -0.6063
 4496TIP3    H134903   5.528   0.689  13.546 -1.2386 -1.1847 -0.7266
 4496TIP3    H234904   5.675   0.663  13.520 -0.5086  1.7651  0.0793
 4497TIP3   OH234905   2.728   1.033  12.821  0.3046  0.4244  0.3231
 4497TIP3    H134906   2.791   0.996  12.883 -1.3727 -0.1177  1.8026
 4497TIP3    H234907   2.693   0.957  12.774  0.0128  0.6033  0.2474
 4498TIP3   OH234908   6.396   4.610   5.861 -0.2303  0.0924  0.4463
 4498TIP3    H134909   6.434   4.547   5.922  0.9086  0.0479 -0.2770
 4498TIP3    H234910   6.338   4.664   5.915  0.1789 -0.4148  1.4119
 4499TIP3   OH234911   5.544   5.216   0.269 -0.1870  0.3623  0.6468
 4499TIP3    H134912   5.587   5.196   0.353  0.7891  1.1581  0.3528
 4499TIP3    H234913   5.462   5.166   0.272  0.3911 -0.5876  1.5604
 4500TIP3   OH234914   3.758   1.938   2.529 -0.0837  0.7913 -0.2408
 4500TIP3    H134915   3.725   1.899   2.610  0.6354 -1.3988 -0.9283
 4500TIP3    H234916   3.689   1.924   2.465  0.7777 -0.8951 -0.8784
 4501TIP3   OH234917   6.730   3.556   0.563  0.4122  0.0880 -0.7312
 4501TIP3    H134918   6.719   3.522   0.652 -1.5628  1.1967 -0.5063
 4501TIP3    H234919   6.800   3.502   0.526  2.9123  0.9871  2.1786
 4502TIP3   OH234920   0.428   2.390   0.209 -0.3300 -0.5704  0.6619
 4502TIP3    H134921   0.343   2.407   0.168 -0.9882 -3.7684  0.3843
 4502TIP3    H234922   0.408   2.331   0.282  1.3687  1.2684  2.7583
 4503TIP3   OH234923   2.758   5.060   2.280 -0.0054 -0.7147 -0.9580
 4503TIP3    H134924   2.810   5.140   2.279 -2.0188  0.6496 -1.8589
 4503TIP3    H234925   2.797   5.006   2.210  0.3899  0.1354 -1.4096
 4504TIP3   OH234926   3.138   4.547   1.575  0.3389  0.0667 -0.0543
 4504TIP3    H134927   3.204   4.583   1.516  0.0605  0.6488 -0.0188
 4504TIP3    H234928   3.135   4.454   1.554  1.4907 -0.0511  0.2641
 4505TIP3   OH234929   2.731   0.961   0.340  0.3233  0.5451 -0.7654
 4505TIP3    H134930   2.745   1.053   0.359  1.0655  0.4800 -0.9728
 4505TIP3    H234931   2.749   0.952   0.247 -2.6175  0.7325 -1.4637
 4506TIP3   OH234932   1.034   5.313   5.848 -0.2249  0.4972  0.3787
 4506TIP3    H134933   1.083   5.297   5.767  0.8151  1.0973  0.8647
 4506TIP3    H234934   1.069   5.249   5.911 -0.5873  0.4472  0.5340
 4507TIP3   OH234935   6.120   0.700  15.435  0.5627  0.1216 -0.5017
 4507TIP3    H134936   6.038   0.750  15.440  1.0408  0.7987  1.3703
 4507TIP3    H234937   6.171   0.746  15.368  0.4147  1.3031  0.1630
 4508TIP3   OH234938   3.898   1.594   0.971  0.3543  0.3767 -0.4548
 4508TIP3    H134939   3.851   1.664   0.925 -1.0278  0.0542  0.4121
 4508TIP3    H234940   3.846   1.515   0.955  1.0670 -0.1661 -0.1680
 4509TIP3   OH234941   1.227   1.274  13.375  0.9201  0.8284  0.4857
 4509TIP3    H134942   1.142   1.301  13.340  1.3175 -1.4628 -2.6118
 4509TIP3    H234943   1.292   1.320  13.322  1.6724  1.2816  1.7335
 4510TIP3   OH234944   0.038   6.669  13.757  0.1372  0.3731  0.4512
 4510TIP3    H134945   0.063   6.580  13.732 -0.8944  0.4626 -1.0885
 4510TIP3    H234946  -0.039   6.688  13.702 -0.3886  1.7789  1.6059
 4511TIP3   OH234947   4.754   4.784  12.118  0.0942  0.5319 -0.5197
 4511TIP3    H134948   4.665   4.763  12.090 -0.8584  1.3297  1.6526
 4511TIP3    H234949   4.779   4.713  12.177 -0.3307  1.7683  1.2222
 4512TIP3   OH234950   0.704   2.972  17.070  0.5772  0.3834  0.2318
 4512TIP3    H134951   0.772   2.931  17.123  0.1365 -0.5048  0.1125
 4512TIP3    H234952   0.736   3.062  17.057  0.0963  1.0790  3.0671
 4513TIP3   OH234953   6.666   0.366  13.949  0.5243  0.3223 -0.0920
 4513TIP3    H134954   6.582   0.409  13.967 -0.1032 -1.2158  0.8379
 4513TIP3    H234955   6.725   0.399  14.016 -0.5767 -1.8877  2.1226
 4514TIP3   OH234956   5.831   3.644  15.799  0.3593  0.1703 -0.2562
 4514TIP3    H134957   5.771   3.697  15.852  0.0487 -2.0088  1.7504
 4514TIP3    H234958   5.915   3.690  15.805 -0.2459  1.2681  0.0671
 4515TIP3   OH234959   0.291   0.888   0.181 -0.5733  0.6013  0.6495
 4515TIP3    H134960   0.380   0.853   0.179 -0.9210 -0.2749  0.0768
 4515TIP3    H234961   0.288   0.947   0.105 -1.1671 -1.1577 -0.7628
 4516TIP3   OH234962   4.583   6.462  14.687 -0.8922 -0.4111 -0.4185
 4516TIP3    H134963   4.668   6.458  14.642 -0.8979  0.0632 -0.4743
 4516TIP3    H234964   4.560   6.555  14.686 -0.1775 -0.1511  1.8899
 4517TIP3   OH234965   1.434   0.708  11.604 -0.2523 -0.1079 -0.9516
 4517TIP3    H134966   1.410   0.775  11.668 -2.0730  0.8012 -2.4733
 4517TIP3    H234967   1.446   0.757  11.522 -0.1610 -1.4772 -1.7748
 4518TIP3   OH234968   0.253   1.629  13.765  0.4244 -0.0436  0.1186
 4518TIP3    H134969   0.159   1.648  13.774  0.4457 -0.6690  2.0188
 4518TIP3    H234970   0.257   1.535  13.748  0.7071 -0.0279  0.0962
 4519TIP3   OH234971   4.745   2.308  13.776  0.1796 -0.1527 -0.2337
 4519TIP3    H134972   4.833   2.273  13.770 -0.1939 -0.9115 -1.7486
 4519TIP3    H234973   4.699   2.248  13.835  0.5320 -0.0357  0.1664
 4520TIP3   OH234974   2.108   1.632   1.615  0.7656 -1.2835  0.0159
 4520TIP3    H134975   2.162   1.627   1.694 -1.0817  1.3349  1.6120
 4520TIP3    H234976   2.040   1.566   1.629 -0.8785  0.6286  1.8824
 4521TIP3   OH234977   0.830   0.800  14.308 -0.2037  0.3232  0.0624
 4521TIP3    H134978   0.893   0.731  14.327 -0.3676  0.4516  1.1284
 4521TIP3    H234979   0.852   0.871  14.368  0.2834  1.4287 -1.3509
 4522TIP3   OH234980   2.002   1.242  10.582 -0.2812 -0.3057  0.6773
 4522TIP3    H134981   1.926   1.212  10.532 -0.6563 -2.7302  2.4771
 4522TIP3    H234982   2.077   1.214  10.530 -0.6303 -0.4544  0.2445
 4523TIP3   OH234983   3.478   4.515   6.032 -0.0639  0.6230  0.1814
 4523TIP3    H134984   3.402   4.574   6.027  0.5325  1.2796 -1.8140
 4523TIP3    H234985   3.547   4.568   6.072  0.1951  1.0065 -0.7491
 4524TIP3   OH234986   3.180   2.879   2.052 -0.0012 -0.2106  0.2412
 4524TIP3    H134987   3.188   2.784   2.041  0.9527 -0.0508 -0.5850
 4524TIP3    H234988   3.155   2.911   1.965 -0.0748  0.3190  0.4540
 4525TIP3   OH234989   6.609   5.609   0.999 -0.4429  0.5872 -0.4896
 4525TIP3    H134990   6.609   5.584   1.091 -2.3761  1.8670 -0.0845
 4525TIP3    H234991   6.661   5.689   0.996 -0.5204  0.6385 -0.4765
 4526TIP3   OH234992   1.785   2.791   2.794  0.2107  0.0486  0.5956
 4526TIP3    H134993   1.730   2.748   2.861 -0.8005  1.0338  0.4317
 4526TIP3    H234994   1.820   2.868   2.838 -0.5522  0.7632 -0.0280
 4527TIP3   OH234995   3.448   1.683   2.005 -0.3069 -0.0567  0.5999
 4527TIP3    H134996   3.457   1.776   2.028 -3.1589  0.3457  0.4886
 4527TIP3    H234997   3.472   1.637   2.085 -0.3707  0.8703  1.1765
 4528TIP3   OH234998   2.797   1.187  15.696  0.5757  0.0158  0.1607
 4528TIP3    H134999   2.802   1.280  15.719 -2.0313  0.2326  0.2311
 4528TIP3    H235000   2.722   1.155  15.747 -0.2575 -1.4475 -1.8509
 4529TIP3   OH235001   0.329   4.024  10.495  0.3245 -0.1619  0.1639
 4529TIP3    H135002   0.259   4.054  10.553  0.6404  0.8291  0.0461
 4529TIP3    H235003   0.402   4.083  10.512  1.5644 -1.8701  1.1232
 4530TIP3   OH235004   0.621   0.233  14.866 -0.1917  0.0493 -0.1593
 4530TIP3    H135005   0.584   0.222  14.954  0.9348 -0.4806  0.2616
 4530TIP3    H235006   0.621   0.145  14.828  1.0856 -0.0525  0.0439
 4531TIP3   OH235007   3.204   0.021   2.612  0.4678 -0.3046 -0.8562
 4531TIP3    H135008   3.147  -0.056   2.609  0.7830 -0.5956  0.4287
 4531TIP3    H235009   3.154   0.089   2.567 -0.2034 -0.9963 -1.1799
 4532TIP3   OH235010   5.486   4.062  15.430 -0.5593  0.5363  0.3226
 4532TIP3    H135011   5.428   4.056  15.505 -1.3613 -1.5258 -0.3931
 4532TIP3    H235012   5.507   4.155  15.423 -4.3294  1.5498  0.2192
 4533TIP3   OH235013   3.265   2.923   0.168  0.5003  0.6009  0.4858
 4533TIP3    H135014   3.291   3.013   0.150  1.7113  0.2801  0.5626
 4533TIP3    H235015   3.333   2.890   0.227  0.8619 -0.8036 -0.6591
 4534TIP3   OH235016   5.017   0.435  15.297 -0.3470  0.2651  0.2628
 4534TIP3    H135017   5.002   0.429  15.391 -0.5840 -1.0732  0.1608
 4534TIP3    H235018   4.993   0.349  15.263  2.0751 -0.1017 -0.7004
 4535TIP3   OH235019   6.512   1.259  15.878  1.0792  0.2384 -0.0487
 4535TIP3    H135020   6.449   1.187  15.871  0.8861  0.4594 -0.6655
 4535TIP3    H235021   6.516   1.295  15.789  0.9798  1.1552  0.3152
 4536TIP3   OH235022   0.374   2.957  17.282 -0.0811 -0.0790  0.2682
 4536TIP3    H135023   0.286   2.960  17.319 -0.1586 -0.4312  0.1247
 4536TIP3    H235024   0.431   2.989  17.351 -0.0627 -1.9737  1.1989
 4537TIP3   OH235025   6.296   2.418   5.724  0.2259 -0.5089  0.5300
 4537TIP3    H135026   6.294   2.326   5.697  0.2270  0.2870 -2.4676
 4537TIP3    H235027   6.330   2.465   5.648 -1.3815  2.1774  1.3462
 4538TIP3   OH235028   2.518   5.569   5.426 -0.2281 -0.0272 -0.3358
 4538TIP3    H135029   2.507   5.544   5.518 -1.1114 -0.7770 -0.6276
 4538TIP3    H235030   2.534   5.663   5.429  0.6237 -0.1776  0.6349
 4539TIP3   OH235031   5.280   3.215   2.603 -0.3799  0.7194  0.2225
 4539TIP3    H135032   5.261   3.308   2.589  0.2155  0.8476  0.2344
 4539TIP3    H235033   5.372   3.213   2.630 -0.9351  0.3100  2.2361
 4540TIP3   OH235034   6.126   2.808   4.835  0.5282  0.6451 -0.3124
 4540TIP3    H135035   6.142   2.748   4.761 -0.2433  0.9335 -0.7202
 4540TIP3    H235036   6.212   2.816   4.877  0.5014 -1.3836  0.2449
 4541TIP3   OH235037   1.340   3.522  12.871  0.8337  0.1113 -0.2287
 4541TIP3    H135038   1.265   3.559  12.825 -0.2658 -0.3590  1.1190
 4541TIP3    H235039   1.319   3.532  12.963  1.5241 -1.7849  0.1840
 4542TIP3   OH235040   2.297   3.969  16.671  0.4955 -0.2122  0.4819
 4542TIP3    H135041   2.321   3.883  16.704 -0.0584 -0.2656  0.7515
 4542TIP3    H235042   2.281   4.021  16.749 -1.1714 -0.4363  0.3287
 4543TIP3   OH235043   1.377   5.455   4.798  0.5045  0.0522  0.3927
 4543TIP3    H135044   1.402   5.372   4.838  0.6408  0.1467  0.5047
 4543TIP3    H235045   1.445   5.472   4.733  1.4163  0.9066  1.5258
 4544TIP3   OH235046   0.584   0.845  12.245  0.2070 -0.4309 -0.1233
 4544TIP3    H135047   0.649   0.786  12.282  0.7801  0.5440  0.4454
 4544TIP3    H235048   0.583   0.921  12.304 -1.5174 -0.4657 -0.0528
 4545TIP3   OH235049   3.948   4.819   2.593 -0.0870 -0.1628  0.0443
 4545TIP3    H135050   4.013   4.870   2.642 -0.5768  0.5114  0.0074
 4545TIP3    H235051   3.867   4.867   2.604 -0.2491 -0.0977 -1.2786
 4546TIP3   OH235052   5.574   3.154  10.882  0.4217  0.2952 -0.0851
 4546TIP3    H135053   5.668   3.139  10.877  0.3735 -0.2462  0.4660
 4546TIP3    H235054   5.562   3.243  10.850  1.3221  1.0067  1.4428
 4547TIP3   OH235055   6.444   5.938  12.477 -0.2775 -0.7387  0.0405
 4547TIP3    H135056   6.456   5.984  12.394  0.4985 -1.8129 -0.4730
 4547TIP3    H235057   6.473   5.848  12.459  0.0423 -0.9591  1.5068
 4548TIP3   OH235058   0.617   1.056   0.222 -0.0493  0.1619  0.4311
 4548TIP3    H135059   0.616   1.152   0.222  1.5705  0.2038  0.0305
 4548TIP3    H235060   0.707   1.033   0.199 -0.0649 -1.4582  1.8294
 4549TIP3   OH235061   0.280   5.778  11.816 -0.0220  0.0753 -0.2387
 4549TIP3    H135062   0.204   5.792  11.873 -0.8698  0.9497 -1.5259
 4549TIP3    H235063   0.305   5.866  11.788  0.7863 -0.2935 -0.6899
 4550TIP3   OH235064   5.722   4.157  12.308  0.7952 -0.7342  0.2893
 4550TIP3    H135065   5.708   4.251  12.316  1.2190 -0.2258 -3.3708
 4550TIP3    H235066   5.636   4.122  12.284  1.3652 -0.5725 -2.3192
 4551TIP3   OH235067   5.684   2.614   3.509 -0.0865 -0.0966 -0.0166
 4551TIP3    H135068   5.632   2.597   3.431 -1.3997  0.8627  0.6091
 4551TIP3    H235069   5.693   2.529   3.551  0.4538 -0.5821 -1.0898
 4552TIP3   OH235070   6.372   0.435   3.656 -0.1511  0.3065  0.1336
 4552TIP3    H135071   6.426   0.394   3.724 -1.2140 -1.0190  0.2258
 4552TIP3    H235072   6.424   0.509   3.626  0.1738  1.2313  2.6966
 4553TIP3   OH235073   4.770   5.529   4.792  0.2010  0.1801  0.0564
 4553TIP3    H135074   4.693   5.587   4.785  0.2632  0.2374 -0.1511
 4553TIP3    H235075   4.737   5.442   4.771  0.3555  0.3267 -0.8219
 4554TIP3   OH235076   2.273   3.667  15.855  0.6901 -0.4547 -0.2397
 4554TIP3    H135077   2.182   3.659  15.824  0.7423 -1.7779 -0.1302
 4554TIP3    H235078   2.266   3.664  15.951  0.9128 -1.7305 -0.2446
 4555TIP3   OH235079   5.629   4.302  11.178 -0.3137  0.7108  0.1534
 4555TIP3    H135080   5.576   4.228  11.149  0.0966  1.3719 -2.5285
 4555TIP3    H235081   5.719   4.274  11.162  0.0163  0.7851  1.7329
 4556TIP3   OH235082   6.368   4.411  12.290  0.0667  0.0723  0.5747
 4556TIP3    H135083   6.343   4.498  12.259  0.0571 -0.2981 -0.5255
 4556TIP3    H235084   6.286   4.361  12.289 -0.0239  0.1756  1.6919
 4557TIP3   OH235085   5.870   3.635   2.317 -0.1077 -0.5719 -0.0297
 4557TIP3    H135086   5.848   3.614   2.408 -0.5882  2.1154  0.5504
 4557TIP3    H235087   5.944   3.695   2.323  1.1790 -1.8948 -1.5650
 4558TIP3   OH235088   3.109   1.532  16.455 -0.0989 -0.2627 -0.3972
 4558TIP3    H135089   3.120   1.458  16.396  1.0590 -0.4432  0.0043
 4558TIP3    H235090   3.157   1.604  16.414  3.8874 -1.3114  1.8421
 4559TIP3   OH235091   0.660   3.310  16.552  0.0081  0.0915  0.1825
 4559TIP3    H135092   0.605   3.233  16.567 -1.6604  1.0678 -0.7054
 4559TIP3    H235093   0.611   3.383  16.589  1.2727  0.8432  0.4408
 4560TIP3   OH235094   5.269   4.022   1.692  0.2481 -0.2568 -0.1952
 4560TIP3    H135095   5.316   4.056   1.767 -0.0771 -2.0631  0.8733
 4560TIP3    H235096   5.177   4.042   1.710  0.0665 -1.5213  0.3842
 4561TIP3   OH235097   4.040   4.022  11.715 -0.0034  0.4702  0.2462
 4561TIP3    H135098   4.117   4.078  11.724  1.5478 -1.6642  1.1879
 4561TIP3    H235099   3.969   4.072  11.756  1.2714  1.7762  0.9722
 4562TIP3   OH235100   4.475   3.406   4.319 -0.1916  0.1863 -0.4331
 4562TIP3    H135101   4.421   3.427   4.243 -0.1295 -1.3497 -0.9197
 4562TIP3    H235102   4.562   3.391   4.283  0.2449  1.1695  0.1730
 4563TIP3   OH235103   3.595   2.155   1.343  0.4138 -0.0398  0.2374
 4563TIP3    H135104   3.643   2.074   1.327 -1.2111 -0.7912 -1.2630
 4563TIP3    H235105   3.513   2.144   1.293 -0.8160  1.6076  1.7613
 4564TIP3   OH235106   1.711   5.346  16.531 -0.1863 -0.4739 -0.0092
 4564TIP3    H135107   1.806   5.351  16.547  0.0981 -2.0480 -1.0262
 4564TIP3    H235108   1.697   5.403  16.456  0.1812 -1.2107 -0.6536
 4565TIP3   OH235109   2.195   5.248  16.866  0.5254 -0.5293  0.1031
 4565TIP3    H135110   2.262   5.185  16.891  0.2154 -0.9015 -0.0015
 4565TIP3    H235111   2.226   5.284  16.782  0.0527 -1.5166 -0.5143
 4566TIP3   OH235112   3.488   1.646  15.926 -0.6713  0.2066  0.4133
 4566TIP3    H135113   3.432   1.654  16.003 -1.0765  0.3427  0.1059
 4566TIP3    H235114   3.560   1.707  15.942 -0.2709 -0.4275  1.0998
 4567TIP3   OH235115   6.713   4.531   3.683  0.1836 -0.0648 -0.2498
 4567TIP3    H135116   6.715   4.607   3.741 -2.5041 -1.2139  1.6044
 4567TIP3    H235117   6.701   4.567   3.596  0.2436  1.6598  0.4149
 4568TIP3   OH235118   0.941   1.929   6.095 -0.0134  0.1882  0.2279
 4568TIP3    H135119   1.025   1.901   6.060 -0.9686 -1.1898 -1.0393
 4568TIP3    H235120   0.961   1.958   6.184  1.8922  0.5279 -0.2720
 4569TIP3   OH235121   1.995   2.819   4.311 -0.4210 -0.9472 -0.6753
 4569TIP3    H135122   1.991   2.740   4.365  1.3971 -0.2096  0.6182
 4569TIP3    H235123   2.030   2.887   4.369  1.7363 -0.1392 -2.7477
 4570TIP3   OH235124   3.319   5.830   4.831 -0.4416 -0.7421 -0.4943
 4570TIP3    H135125   3.245   5.771   4.848 -0.3307 -0.4958  0.9552
 4570TIP3    H235126   3.395   5.771   4.826 -0.6414 -0.9348 -1.3603
 4571TIP3   OH235127   1.532   0.768   5.548  0.6448  0.2219 -0.3812
 4571TIP3    H135128   1.473   0.797   5.618  0.1859 -3.0289  0.7354
 4571TIP3    H235129   1.476   0.719   5.488  1.1905  2.2640 -2.7365
 4572TIP3   OH235130   3.966   1.244  13.184 -0.1755 -0.0600 -0.4750
 4572TIP3    H135131   4.008   1.315  13.136  2.0026 -0.5578  0.5418
 4572TIP3    H235132   4.019   1.167  13.164 -0.2691 -0.6331  1.2607
 4573TIP3   OH235133   0.807   3.781   4.388 -0.2963  0.0667  0.4980
 4573TIP3    H135134   0.846   3.827   4.313 -0.8790 -0.7138 -0.3107
 4573TIP3    H235135   0.798   3.691   4.357 -0.9682 -0.1643  1.3582
 4574TIP3   OH235136   1.046   2.165  15.969  0.0560  0.4507  0.1136
 4574TIP3    H135137   1.105   2.152  16.043  0.0463  0.6428  0.1549
 4574TIP3    H235138   0.995   2.243  15.992  0.7417  1.1039 -0.5547
 4575TIP3   OH235139   2.989   0.671  13.710  0.0030 -0.3638  0.1140
 4575TIP3    H135140   2.904   0.635  13.736 -1.0053  0.5615 -1.6874
 4575TIP3    H235141   3.014   0.620  13.633  0.6430 -0.0087  0.0754
 4576TIP3   OH235142   4.463   1.890  16.643 -0.2650  0.4408 -0.3993
 4576TIP3    H135143   4.440   1.833  16.570  0.3552 -0.3801  0.0322
 4576TIP3    H235144   4.422   1.848  16.719 -1.6043  1.7265 -0.3764
 4577TIP3   OH235145   4.012   2.018   0.398 -0.1459  0.4337  0.1128
 4577TIP3    H135146   4.064   2.081   0.349 -0.1517 -0.4340 -1.0550
 4577TIP3    H235147   3.921   2.043   0.380 -0.1697 -0.4867 -1.2010
 4578TIP3   OH235148   4.856   0.592   4.605  0.1273  0.3190  0.0343
 4578TIP3    H135149   4.902   0.669   4.639 -0.2474  0.2781  0.6531
 4578TIP3    H235150   4.920   0.521   4.609 -0.1233  0.1425  1.3820
 4579TIP3   OH235151   6.748   2.141  14.255  0.2213 -0.2227 -0.5509
 4579TIP3    H135152   6.663   2.168  14.221  0.3065  0.6442 -0.0791
 4579TIP3    H235153   6.809   2.207  14.224  0.8829 -1.2462 -1.5433
 4580TIP3   OH235154   5.935   4.728   2.088  0.7276  0.1476 -0.2881
 4580TIP3    H135155   5.968   4.687   2.008  0.9449 -0.4757  0.1168
 4580TIP3    H235156   5.977   4.680   2.159  0.7111  0.8446  0.2043
 4581TIP3   OH235157   2.592   2.340   0.735  0.2206  0.2271  0.1063
 4581TIP3    H135158   2.559   2.364   0.648 -0.7519  0.3443  0.4874
 4581TIP3    H235159   2.521   2.365   0.794  0.5673 -0.5362  0.8570
 4582TIP3   OH235160   3.702   1.054   3.504  0.3890 -0.0680 -0.1689
 4582TIP3    H135161   3.674   1.146   3.500  0.9352  0.1691  0.8661
 4582TIP3    H235162   3.622   1.005   3.523  0.2924  0.3452  0.5299
 4583TIP3   OH235163   1.546   6.184   1.316  0.0530 -0.0802  0.1486
 4583TIP3    H135164   1.559   6.106   1.370 -0.4140  1.5151  2.7149
 4583TIP3    H235165   1.515   6.251   1.377 -1.4729  1.6044 -2.2983
 4584TIP3   OH235166   3.561   2.784  10.564  0.5432  0.0813 -0.2976
 4584TIP3    H135167   3.586   2.782  10.472  1.6359  0.6719 -0.0396
 4584TIP3    H235168   3.467   2.802  10.564  0.3918 -0.6803 -1.3033
 4585TIP3   OH235169   5.312   0.278  12.310 -0.3478  0.6982 -0.1572
 4585TIP3    H135170   5.297   0.320  12.226  2.3446  1.6231 -0.2736
 4585TIP3    H235171   5.224   0.257  12.343 -1.4980  0.9439 -2.8278
 4586TIP3   OH235172   0.071   3.526   3.133 -0.2461  0.3747 -0.0263
 4586TIP3    H135173   0.067   3.527   3.229  0.4869 -2.1837  0.1037
 4586TIP3    H235174   0.141   3.587   3.111  0.9536 -0.5154  1.2210
 4587TIP3   OH235175   2.273   0.402   1.352 -0.5788  0.1045  0.0036
 4587TIP3    H135176   2.307   0.337   1.414 -0.7976 -0.8214 -0.8228
 4587TIP3    H235177   2.287   0.486   1.396  0.7690 -0.4043  0.6102
 4588TIP3   OH235178   4.029   4.799   1.794 -0.3551 -0.2086  0.1666
 4588TIP3    H135179   3.943   4.814   1.834  0.2893  2.4290  0.7916
 4588TIP3    H235180   4.079   4.754   1.862 -1.0138 -1.1694  0.0388
 4589TIP3   OH235181   2.867   5.716  12.372  0.3447 -1.0885  0.2586
 4589TIP3    H135182   2.875   5.626  12.402 -2.7187 -2.1244 -1.5609
 4589TIP3    H235183   2.863   5.710  12.277  3.4853  1.4196 -0.2029
 4590TIP3   OH235184   3.047   6.381   2.464 -0.2286 -0.3507  0.0607
 4590TIP3    H135185   3.058   6.429   2.381 -0.9155  0.3050  0.3339
 4590TIP3    H235186   3.120   6.320   2.466  1.6450  1.7420  0.4194
 4591TIP3   OH235187   5.972   0.498   2.022 -0.0568  0.0171 -0.6895
 4591TIP3    H135188   6.024   0.494   2.102  0.5408 -2.0900 -1.1257
 4591TIP3    H235189   6.035   0.525   1.955  0.5375 -2.3124 -1.1741
 4592TIP3   OH235190   4.805   6.395  11.830 -0.1895 -0.4820  0.3051
 4592TIP3    H135191   4.875   6.459  11.820 -1.0491  0.3962 -0.2955
 4592TIP3    H235192   4.798   6.382  11.925  0.0008  0.3175  0.4322
 4593TIP3   OH235193   4.346   0.372   1.998 -0.2931  0.1719 -0.2267
 4593TIP3    H135194   4.384   0.370   2.086  0.3204  1.0086 -0.4629
 4593TIP3    H235195   4.277   0.439   2.004  0.2948  0.8230 -0.5847
 4594TIP3   OH235196   4.533   0.601   4.208  0.1352 -0.1405  0.8883
 4594TIP3    H135197   4.535   0.552   4.290 -2.8515 -0.8949  0.6259
 4594TIP3    H235198   4.457   0.659   4.217  0.6267  0.8302 -0.7847
 4595TIP3   OH235199   0.978   6.347   2.852 -0.0895 -0.5635  0.2440
 4595TIP3    H135200   0.956   6.423   2.799  0.0694 -1.1795 -0.7254
 4595TIP3    H235201   1.063   6.318   2.819  0.4983 -0.3646  1.5215
 4596TIP3   OH235202   0.162   5.241   4.517  0.7252  0.2661  0.1842
 4596TIP3    H135203   0.110   5.277   4.589  0.5807  0.4389 -0.0047
 4596TIP3    H235204   0.171   5.313   4.455  1.4977  0.3435  0.3755
 4597TIP3   OH235205   0.969   1.891   5.642 -0.3050  0.1003 -0.2448
 4597TIP3    H135206   0.989   1.799   5.660 -1.1112  0.1335  0.9425
 4597TIP3    H235207   1.045   1.939   5.673 -0.1955 -0.1151 -0.1794
 4598TIP3   OH235208   6.436   3.334  15.676  0.6479 -0.0714 -0.0168
 4598TIP3    H135209   6.402   3.307  15.591  0.5013 -0.6961  0.2359
 4598TIP3    H235210   6.531   3.325  15.668  0.6876  0.5729 -0.3465
 4599TIP3   OH235211   5.610   4.730   0.688  0.5241  0.1069  0.5113
 4599TIP3    H135212   5.539   4.776   0.733  0.2706 -0.7419  1.0175
 4599TIP3    H235213   5.688   4.753   0.738  0.8945  2.2605 -0.9453
 4600TIP3   OH235214   5.438   6.146   1.850 -0.2443  0.6128 -0.1612
 4600TIP3    H135215   5.390   6.199   1.786  0.0067  1.0485  0.0117
 4600TIP3    H235216   5.483   6.209   1.905 -0.4049  0.2374  0.4136
 4601TIP3   OH235217   2.968   5.494   4.073 -0.1727 -0.5519 -0.2097
 4601TIP3    H135218   3.059   5.471   4.053 -0.0034  0.2646 -0.4217
 4601TIP3    H235219   2.919   5.412   4.060  0.7904 -1.5116  1.8096
 4602TIP3   OH235220   2.495   1.267   0.459 -0.5126  1.0480 -0.2859
 4602TIP3    H135221   2.485   1.279   0.554  0.1793  0.2649 -0.1052
 4602TIP3    H235222   2.463   1.179   0.442  3.6309 -0.7179 -0.0116
 4603TIP3   OH235223   4.650   3.447   0.353  0.4686  0.5311  0.7808
 4603TIP3    H135224   4.626   3.452   0.445  0.9736 -1.4720  1.0784
 4603TIP3    H235225   4.643   3.354   0.331  0.3229  0.9631 -1.2236
 4604TIP3   OH235226   6.420   3.271   3.949  0.2611  0.0526  0.1683
 4604TIP3    H135227   6.436   3.363   3.968  2.8915 -0.5611  1.4127
 4604TIP3    H235228   6.476   3.224   4.011 -0.0698 -2.3543 -1.2354
 4605TIP3   OH235229   2.562   1.129  14.256  0.0502  0.2760 -0.0214
 4605TIP3    H135230   2.532   1.051  14.209  0.0838  1.1522 -1.5811
 4605TIP3    H235231   2.592   1.097  14.341  0.6138 -1.5022 -0.8494
 4606TIP3   OH235232   5.860   4.130   2.567  0.3182 -0.2113 -0.0918
 4606TIP3    H135233   5.900   4.065   2.625 -0.9019 -0.5682  0.3954
 4606TIP3    H235234   5.930   4.193   2.549  0.5491  0.3677  2.4515
 4607TIP3   OH235235   0.229   3.776   3.381 -0.7824 -0.0607 -0.4777
 4607TIP3    H135236   0.163   3.708   3.396 -0.6072 -0.3029 -0.7762
 4607TIP3    H235237   0.308   3.727   3.358 -0.7008  0.2465 -0.8741
 4608TIP3   OH235238   3.956   1.691   2.078 -0.0885 -0.0727  0.2076
 4608TIP3    H135239   3.886   1.655   2.024 -1.6359 -1.1564  2.7292
 4608TIP3    H235240   3.958   1.784   2.057 -0.6376 -0.4329 -1.6127
 4609TIP3   OH235241   5.528   3.012  14.424 -0.6133  0.2773  0.4497
 4609TIP3    H135242   5.482   3.065  14.489 -0.7789  2.0145 -1.0119
 4609TIP3    H235243   5.510   2.922  14.450 -0.8290  0.9080  2.6818
 4610TIP3   OH235244   6.011   4.276   5.501  0.2029  0.1915  0.3936
 4610TIP3    H135245   5.961   4.261   5.581  1.9198  0.1314  1.5019
 4610TIP3    H235246   6.024   4.371   5.499  0.0316  0.2101  0.0918
 4611TIP3   OH235247   1.952   5.740   4.859  0.2039 -0.0944 -0.9793
 4611TIP3    H135248   1.912   5.779   4.781 -1.1923  0.6070  0.0375
 4611TIP3    H235249   1.890   5.673   4.887  0.9689 -0.7349 -0.7900
 4612TIP3   OH235250   6.083   4.345  15.953 -0.6634  0.2216  0.2690
 4612TIP3    H135251   6.145   4.401  16.000 -1.4673  0.2727  1.3098
 4612TIP3    H235252   6.138   4.277  15.912  0.0946  0.3529  1.0413
 4613TIP3   OH235253   4.707   1.135  16.988  0.2196  0.0102 -0.2650
 4613TIP3    H135254   4.742   1.073  16.924  0.6557  0.0537 -0.0692
 4613TIP3    H235255   4.764   1.126  17.064 -0.9979 -0.9062  0.5813
 4614TIP3   OH235256   5.981   6.121  12.655  0.3106 -0.5716  0.4554
 4614TIP3    H135257   5.905   6.133  12.712  0.1106 -0.9900  0.2837
 4614TIP3    H235258   6.054   6.160  12.703  0.0749 -0.6018  0.8383
 4615TIP3   OH235259   5.247   4.948  15.903 -0.7213 -0.5788 -0.2600
 4615TIP3    H135260   5.335   4.961  15.867 -0.2853  0.8792  1.2138
 4615TIP3    H235261   5.191   4.935  15.826  0.7268 -1.2848 -1.2412
 4616TIP3   OH235262   4.051   4.476  17.189  0.6192  0.4272 -0.0622
 4616TIP3    H135263   3.995   4.543  17.150 -0.1934  0.3249  0.8848
 4616TIP3    H235264   3.990   4.408  17.217  1.4304 -0.7447 -1.0360
 4617TIP3   OH235265   4.732   4.558   1.253 -0.3921  0.0509 -0.4845
 4617TIP3    H135266   4.799   4.602   1.199 -0.9332  1.2314 -0.2285
 4617TIP3    H235267   4.766   4.562   1.342  0.0345 -0.9943 -0.5945
 4618TIP3   OH235268   4.971   4.789   2.301  0.5842 -0.2551 -0.1625
 4618TIP3    H135269   4.927   4.705   2.313 -1.4450  0.9411  1.6388
 4618TIP3    H235270   5.036   4.793   2.371  1.8120 -0.9299 -1.2226
 4619TIP3   OH235271   4.977   0.982  12.993  0.0223 -0.0636 -0.4159
 4619TIP3    H135272   5.036   0.907  12.986  0.1327 -0.0284  0.1250
 4619TIP3    H235273   5.034   1.054  13.019  0.0545  0.3986 -1.6785
 4620TIP3   OH235274   6.746   4.974   4.104  0.1331  0.0649 -0.6500
 4620TIP3    H135275   6.770   5.027   4.180  0.2118 -0.3294 -0.3978
 4620TIP3    H235276   6.738   5.037   4.033 -1.0044  0.5982 -0.0788
 4621TIP3   OH235277   0.491   6.115   2.786  0.3914 -0.0580  0.8596
 4621TIP3    H135278   0.458   6.110   2.876  0.6110 -0.7698  0.9009
 4621TIP3    H235279   0.542   6.196   2.785 -0.0291  0.2221  1.2304
 4622TIP3   OH235280   1.629   6.165   5.661 -0.1187 -0.1955  0.2718
 4622TIP3    H135281   1.540   6.132   5.674  0.4911 -1.6480  1.0685
 4622TIP3    H235282   1.684   6.107   5.714  1.5681 -0.8016 -1.9764
 4623TIP3   OH235283   0.181   3.259  13.688 -0.3031  0.1008  0.3847
 4623TIP3    H135284   0.113   3.280  13.624 -2.6751 -0.6262  2.4555
 4623TIP3    H235285   0.167   3.323  13.759  1.0312 -0.2253  0.9666
 4624TIP3   OH235286   1.818   3.589  11.144 -0.1741 -0.6539  0.1291
 4624TIP3    H135287   1.834   3.613  11.052  4.0851  0.1124  0.8552
 4624TIP3    H235288   1.777   3.667  11.182  0.8427  0.2279 -0.5156
 4625TIP3   OH235289   5.073   3.467   4.210  0.2847 -0.0017  0.3518
 4625TIP3    H135290   4.981   3.445   4.200  0.6426 -1.3782 -0.1841
 4625TIP3    H235291   5.082   3.554   4.171 -0.6658 -0.1378 -0.1783
 4626TIP3   OH235292   4.536   3.131  11.372  0.3405 -0.5345 -0.0205
 4626TIP3    H135293   4.568   3.061  11.428 -0.0317  0.9698  2.2160
 4626TIP3    H235294   4.492   3.087  11.300 -0.5894 -2.6143  1.7114
 4627TIP3   OH235295   2.308   4.323  16.770  0.3946  0.2336  0.2723
 4627TIP3    H135296   2.242   4.297  16.834  0.0870  0.8902  0.2252
 4627TIP3    H235297   2.316   4.246  16.712  0.3060 -0.1673  0.7855
 4628TIP3   OH235298   0.272   2.011   5.173 -0.5529  0.1928 -0.1459
 4628TIP3    H135299   0.232   1.985   5.257  0.2150  0.5304  0.3390
 4628TIP3    H235300   0.363   2.027   5.195 -0.7583  2.2806 -0.6403
 4629TIP3   OH235301   2.987   4.471  11.340  0.5685  0.1477  0.5655
 4629TIP3    H135302   3.076   4.490  11.309  1.2090  1.1314  2.7980
 4629TIP3    H235303   2.994   4.386  11.383  0.2166 -0.1599  0.0248
 4630TIP3   OH235304   2.582   0.765  14.824  0.3535  0.3838 -0.2012
 4630TIP3    H135305   2.653   0.707  14.853  0.0227  0.1637  0.1733
 4630TIP3    H235306   2.606   0.789  14.734  0.7862  0.1268 -0.1566
 4631TIP3   OH235307   1.406   5.132  11.138 -1.2072 -0.0973 -0.1104
 4631TIP3    H135308   1.478   5.189  11.167 -1.4040  0.9451 -1.5673
 4631TIP3    H235309   1.327   5.174  11.171 -1.2544 -0.4704  0.2649
 4632TIP3   OH235310   0.476   4.098   6.717 -0.4019  0.2473 -0.3104
 4632TIP3    H135311   0.540   4.028   6.734 -1.1934 -0.0630  1.7289
 4632TIP3    H235312   0.400   4.052   6.682 -0.6944  0.1379  0.4407
 4633TIP3   OH235313   2.844   0.123   0.839 -0.1037  0.2010 -0.2816
 4633TIP3    H135314   2.931   0.142   0.874  0.2614 -2.3411  0.4547
 4633TIP3    H235315   2.783   0.162   0.901  0.5155  0.9343 -0.1251
 4634TIP3   OH235316   4.794   5.942  13.250 -0.0153  0.2208  0.9309
 4634TIP3    H135317   4.784   5.989  13.167 -1.0262  1.1208  1.5379
 4634TIP3    H235318   4.839   5.861  13.226 -1.5508 -0.2063 -0.7546
 4635TIP3   OH235319   5.087   1.290  14.048  0.0126  0.6597  0.4852
 4635TIP3    H135320   5.125   1.206  14.070 -0.5651  0.9316  2.7967
 4635TIP3    H235321   5.152   1.355  14.077 -0.0366  1.0345 -0.2202
 4636TIP3   OH235322   0.689   1.113   2.458  0.3617  0.2312 -0.0587
 4636TIP3    H135323   0.610   1.059   2.449  0.4196  0.2074 -0.4755
 4636TIP3    H235324   0.730   1.109   2.371  1.5492 -0.8710  0.5214
 4637TIP3   OH235325   4.023   2.864   3.359  0.2889  0.0780 -0.2809
 4637TIP3    H135326   3.949   2.840   3.304  1.0159 -2.1196 -0.3737
 4637TIP3    H235327   4.100   2.842   3.307  1.0128 -2.4690  1.6721
 4638TIP3   OH235328   0.276   4.650  17.016  0.1894  0.2739 -0.0779
 4638TIP3    H135329   0.218   4.580  16.987  2.7333 -1.5345 -1.1993
 4638TIP3    H235330   0.315   4.617  17.097  0.8144  0.7594 -0.1733
 4639TIP3   OH235331   5.861   0.405  14.774  0.5472 -0.0386  0.0648
 4639TIP3    H135332   5.856   0.336  14.841  0.3432 -0.1374 -0.0514
 4639TIP3    H235333   5.916   0.472  14.813 -2.5205  1.6412  1.9097
 4640TIP3   OH235334   0.634   6.148  16.284 -0.5887  0.0467  0.3798
 4640TIP3    H135335   0.633   6.241  16.305  1.4130 -0.6345  4.3767
 4640TIP3    H235336   0.697   6.140  16.213 -0.4049  1.6748  0.3366
 4641TIP3   OH235337   4.697   4.975  15.149 -0.0483  0.1010  0.3217
 4641TIP3    H135338   4.733   4.923  15.222  0.4341  0.1926  0.1542
 4641TIP3    H235339   4.636   5.035  15.191 -1.7553 -1.5762  0.3649
 4642TIP3   OH235340   1.758   0.611  15.948  0.3164  0.3113 -0.6085
 4642TIP3    H135341   1.716   0.545  15.892  2.5113  0.3950 -2.4510
 4642TIP3    H235342   1.699   0.687  15.944  0.1328  0.1060 -2.3283
 4643TIP3   OH235343   3.739   3.350   1.918  0.2072  0.0937 -0.4708
 4643TIP3    H135344   3.824   3.331   1.881 -0.3668 -1.3516 -1.1100
 4643TIP3    H235345   3.723   3.280   1.982 -0.1330  0.8336  0.2821
 4644TIP3   OH235346   3.174   5.209   6.502 -0.0287 -0.7603  0.1824
 4644TIP3    H135347   3.259   5.242   6.474  0.4715 -1.3560  0.9535
 4644TIP3    H235348   3.119   5.287   6.508  0.2646 -0.4477 -0.9589
 4645TIP3   OH235349   1.426   4.744   4.943 -0.3151 -0.1801  0.1233
 4645TIP3    H135350   1.437   4.654   4.972  0.0223 -0.2242 -0.1329
 4645TIP3    H235351   1.506   4.763   4.893 -0.3365  0.2898  0.2605
 4646TIP3   OH235352   4.071   5.764  16.876 -0.1065 -0.5917  0.3603
 4646TIP3    H135353   4.091   5.671  16.891 -1.6790 -1.0526 -0.2037
 4646TIP3    H235354   4.001   5.763  16.812 -0.3562  0.9965  0.5741
 4647TIP3   OH235355   4.602   4.943   4.676 -0.0105 -0.3206 -0.3923
 4647TIP3    H135356   4.506   4.946   4.683 -0.2777 -0.4362 -3.0776
 4647TIP3    H235357   4.625   5.020   4.625  1.6350  0.9027  1.9993
 4648TIP3   OH235358   5.466   2.208   0.964 -0.1776 -0.0426 -0.0703
 4648TIP3    H135359   5.553   2.194   1.002  0.4819  0.5292 -1.3010
 4648TIP3    H235360   5.477   2.287   0.911 -1.3169 -0.2817 -0.6687
 4649TIP3   OH235361   0.108   0.639   0.647 -0.0595 -0.2637  0.0826
 4649TIP3    H135362   0.063   0.688   0.578  0.5783 -0.2919 -0.3543
 4649TIP3    H235363   0.077   0.549   0.636  0.3838 -0.3560 -0.4598
 4650TIP3   OH235364   4.924   2.562   5.847  0.2932  0.4923  0.0791
 4650TIP3    H135365   5.000   2.616   5.868  0.9564 -1.4305  3.2725
 4650TIP3    H235366   4.961   2.477   5.822 -0.7669  0.9689 -3.8176
 4651TIP3   OH235367   2.240   2.253   5.246 -0.4110 -0.3904 -0.2770
 4651TIP3    H135368   2.223   2.315   5.175 -2.7322 -2.0232 -1.2701
 4651TIP3    H235369   2.286   2.180   5.204 -0.8751 -0.9076  0.0858
 4652TIP3   OH235370   4.410   2.711  15.695  0.2925 -0.0172 -0.4227
 4652TIP3    H135371   4.465   2.641  15.731 -1.7602 -2.0112 -0.9847
 4652TIP3    H235372   4.471   2.784  15.683  2.3539 -1.3747  1.0204
 4653TIP3   OH235373   5.706   6.012   1.865 -0.0954  0.0725 -0.3789
 4653TIP3    H135374   5.624   6.060   1.855 -0.4794 -0.3011  0.7885
 4653TIP3    H235375   5.683   5.921   1.848  0.2381  0.0580 -0.7706
 4654TIP3   OH235376   4.729   0.693   6.040 -0.0275  0.1854  0.2418
 4654TIP3    H135377   4.805   0.635   6.044  2.3542  3.1252  0.4537
 4654TIP3    H235378   4.698   0.699   6.130 -0.5999 -1.0436  0.1504
 4655TIP3   OH235379   1.700   5.968  12.627  0.3790 -0.4202  0.0330
 4655TIP3    H135380   1.715   5.986  12.534  0.8469 -1.3387 -0.0745
 4655TIP3    H235381   1.689   6.055  12.666 -1.6850 -0.0813 -1.1725
 4656TIP3   OH235382   5.148   6.088   6.372 -0.6022 -0.2856  0.1980
 4656TIP3    H135383   5.202   6.047   6.304 -2.6641 -3.7429  0.3699
 4656TIP3    H235384   5.120   6.171   6.333  2.7122  0.5015 -0.8345
 4657TIP3   OH235385   4.926   4.067   0.670 -0.1053 -0.5968  0.0654
 4657TIP3    H135386   4.922   3.982   0.628  1.9148 -0.8090  0.2143
 4657TIP3    H235387   4.905   4.050   0.762  0.1153 -0.9092  0.0583
 4658TIP3   OH235388   5.914   0.650  13.174  0.0135  0.4697 -0.0646
 4658TIP3    H135389   5.830   0.696  13.181  1.2600  2.8510  0.3874
 4658TIP3    H235390   5.950   0.681  13.091  1.0455  0.5908  0.4215
 4659TIP3   OH235391   4.791   1.363   4.750 -0.2127  0.5081  0.3223
 4659TIP3    H135392   4.860   1.299   4.736 -2.5418 -1.6392 -2.9651
 4659TIP3    H235393   4.757   1.381   4.662 -4.2119  0.8452  1.7299
 4660TIP3   OH235394   6.585   4.632  12.748  0.1987 -0.0853  0.0217
 4660TIP3    H135395   6.565   4.641  12.841  1.4559  1.6879  0.1672
 4660TIP3    H235396   6.678   4.654  12.742  0.4066 -1.2342 -1.5316
 4661TIP3   OH235397   6.140   3.122   5.992  0.1388  0.0135  0.4733
 4661TIP3    H135398   6.083   3.150   6.063  0.3909  0.8761  0.3399
 4661TIP3    H235399   6.126   3.027   5.987  1.0090 -0.2856  2.4675
 4662TIP3   OH235400   5.657   2.512   3.186  0.5199 -0.0447 -0.3747
 4662TIP3    H135401   5.620   2.442   3.133 -1.9963  1.4447 -0.7391
 4662TIP3    H235402   5.683   2.468   3.267 -1.7980 -1.3336 -0.2204
 4663TIP3   OH235403   3.012   5.320   6.040  0.2205 -0.3624  0.2576
 4663TIP3    H135404   2.956   5.294   6.114 -0.9770  1.1508 -0.0714
 4663TIP3    H235405   3.081   5.372   6.080 -1.2962  1.8163  0.2488
 4664TIP3   OH235406   3.797   5.161   6.605  0.0027 -0.2519 -0.1481
 4664TIP3    H135407   3.760   5.085   6.651 -1.1166  1.6801  2.4548
 4664TIP3    H235408   3.721   5.206   6.568  0.5438  0.0848 -0.8762
 4665TIP3   OH235409   4.452   5.266   4.514  0.0247 -0.4050  0.1714
 4665TIP3    H135410   4.389   5.257   4.442 -1.0756 -0.2528  1.0708
 4665TIP3    H235411   4.403   5.238   4.592  0.9543  0.1091  0.9662
 4666TIP3   OH235412   2.718   2.004   5.343 -0.4167 -0.6405  0.8975
 4666TIP3    H135413   2.710   1.945   5.268  0.6453  0.0911  0.1723
 4666TIP3    H235414   2.804   1.984   5.380 -0.0922  0.3571  0.7067
 4667TIP3   OH235415   2.661   3.110  12.176 -0.1708 -0.3368 -0.2045
 4667TIP3    H135416   2.641   3.156  12.094  2.1418 -0.9337 -1.1797
 4667TIP3    H235417   2.674   3.180  12.240 -3.7025  0.1197  0.2207
 4668TIP3   OH235418   6.144   5.491   6.416 -0.2112 -0.2450  0.2883
 4668TIP3    H135419   6.226   5.464   6.458 -0.2650  0.2916  0.7428
 4668TIP3    H235420   6.087   5.516   6.489 -0.0819  1.3291 -0.1269
 4669TIP3   OH235421   2.230   2.948   1.665  0.4525 -0.2950  0.1651
 4669TIP3    H135422   2.135   2.957   1.673  0.4312 -0.7565  0.4781
 4669TIP3    H235423   2.244   2.861   1.627  0.7097  0.3129 -1.1634
 4670TIP3   OH235424   2.249   5.771  12.038 -0.1459  0.1602  0.1388
 4670TIP3    H135425   2.344   5.773  12.023 -0.2943 -0.1602 -0.9096
 4670TIP3    H235426   2.236   5.828  12.114  1.2144 -2.2209  2.2902
 4671TIP3   OH235427   2.439   0.516   4.277 -0.2768  0.3324 -0.1191
 4671TIP3    H135428   2.532   0.514   4.255 -0.3384  2.1939 -0.6893
 4671TIP3    H235429   2.432   0.463   4.357  1.2865  0.3086  0.0278
 4672TIP3   OH235430   0.475   6.360  13.183 -0.1298 -0.0843  0.0892
 4672TIP3    H135431   0.550   6.381  13.127  0.7135 -1.9057  0.4551
 4672TIP3    H235432   0.399   6.373  13.127  0.6452 -1.0738 -1.2630
 4673TIP3   OH235433   2.401   4.543   0.560 -0.3700  0.7991 -0.3897
 4673TIP3    H135434   2.360   4.605   0.500 -1.1687 -1.3293 -2.1698
 4673TIP3    H235435   2.336   4.531   0.630 -0.4951  1.4529 -0.3909
 4674TIP3   OH235436   1.540   0.142  15.977 -0.5189 -0.3561 -0.3796
 4674TIP3    H135437   1.531   0.058  16.022 -0.6740 -0.1508 -0.0170
 4674TIP3    H235438   1.628   0.172  15.998 -0.6301 -0.2085 -0.1164
 4675TIP3   OH235439   1.081   4.236  16.075 -0.2975  0.0959  0.8363
 4675TIP3    H135440   1.089   4.308  16.137 -4.1950  0.0611  1.6355
 4675TIP3    H235441   1.112   4.159  16.124  3.5143  0.9689  0.1044
 4676TIP3   OH235442   0.349   3.622   3.815 -0.2012  0.2953  0.6894
 4676TIP3    H135443   0.423   3.579   3.859 -0.4610  0.1565  0.9997
 4676TIP3    H235444   0.386   3.657   3.734 -0.2673 -1.7155 -0.2761
 4677TIP3   OH235445   0.977   4.184   4.535 -0.3280 -0.0417  0.2350
 4677TIP3    H135446   1.033   4.191   4.458 -0.2552  0.4077  0.3238
 4677TIP3    H235447   1.012   4.249   4.596 -0.3542 -0.4265  0.6680
 4678TIP3   OH235448   5.185   1.334   5.529  0.2193 -0.2862 -0.0238
 4678TIP3    H135449   5.134   1.384   5.592 -1.7372 -0.3791 -1.4315
 4678TIP3    H235450   5.214   1.399   5.464 -3.1774 -0.8560 -2.4161
 4679TIP3   OH235451   5.452   4.302  16.246 -0.0329  0.5972  0.2710
 4679TIP3    H135452   5.478   4.382  16.199 -0.9138  0.3829 -0.6185
 4679TIP3    H235453   5.375   4.329  16.297  0.7751  0.7685  1.4541
 4680TIP3   OH235454   0.831   5.442   0.195  0.7574 -0.4059  0.3278
 4680TIP3    H135455   0.927   5.442   0.195  0.8157  1.3079  1.6192
 4680TIP3    H235456   0.807   5.435   0.288 -0.3476 -0.2673  0.0673
 4681TIP3   OH235457   2.212   1.766  13.833 -0.3414 -0.0800 -0.4265
 4681TIP3    H135458   2.224   1.764  13.928  1.6704  0.0936 -0.6378
 4681TIP3    H235459   2.175   1.852  13.815  0.6013  0.4495  0.0974
 4682TIP3   OH235460   3.350   1.677  13.733 -0.3016 -0.7644 -0.1162
 4682TIP3    H135461   3.406   1.745  13.696 -0.9055 -0.5021 -0.5715
 4682TIP3    H235462   3.407   1.629  13.794  0.1813  0.0232  0.0649
 4683TIP3   OH235463   0.120   0.797   4.477  0.4534  0.0544  0.7142
 4683TIP3    H135464   0.112   0.707   4.445 -2.9984  0.6748 -0.6472
 4683TIP3    H235465   0.204   0.827   4.443  0.3714 -1.7701 -1.3283
 4684TIP3   OH235466   4.806   3.309  14.652 -0.4285  0.5934  0.1832
 4684TIP3    H135467   4.871   3.240  14.667  1.6391  2.1454 -1.1012
 4684TIP3    H235468   4.777   3.295  14.562 -1.2439  0.4685  0.4495
 4685TIP3   OH235469   1.677   6.700  14.837 -0.0383 -0.2102 -0.3701
 4685TIP3    H135470   1.746   6.766  14.833 -0.1512 -0.0210  0.7015
 4685TIP3    H235471   1.696   6.650  14.916 -2.5460  1.4446  1.4198
 4686TIP3   OH235472   5.465   5.391  11.750 -0.4534 -0.3437 -0.0094
 4686TIP3    H135473   5.508   5.307  11.735 -1.6230 -0.9660  0.0676
 4686TIP3    H235474   5.537   5.454  11.755  0.4307 -1.3283 -0.1085
 4687TIP3   OH235475   0.412   5.035   0.670  0.0683 -0.7252  0.1254
 4687TIP3    H135476   0.360   5.020   0.591 -0.8198  0.3275  0.4729
 4687TIP3    H235477   0.355   5.006   0.741  0.7327 -1.3599  0.4090
 4688TIP3   OH235478   1.166   1.025  16.951 -0.2916  0.2517 -0.1942
 4688TIP3    H135479   1.222   1.101  16.962 -0.6055  0.6156 -1.0382
 4688TIP3    H235480   1.181   0.972  17.030  1.2461  0.3293 -0.4045
 4689TIP3   OH235481   2.996   3.620  12.189  0.4585  0.1146 -0.5573
 4689TIP3    H135482   3.082   3.586  12.164  0.7563  0.8790 -0.6071
 4689TIP3    H235483   3.015   3.704  12.231 -0.1010 -0.6473  1.3171
 4690TIP3   OH235484   4.386   4.647  11.915  0.9777 -0.5942  0.0585
 4690TIP3    H135485   4.454   4.714  11.903  0.3067  0.1977  0.5613
 4690TIP3    H235486   4.335   4.678  11.989 -0.0808 -1.0568 -0.4576
 4691TIP3   OH235487   1.120   3.007   0.313  0.1179 -0.0107  0.6379
 4691TIP3    H135488   1.169   2.933   0.348 -0.2859 -1.1651 -1.0922
 4691TIP3    H235489   1.029   2.979   0.316 -0.0182  0.3044 -0.2616
 4692TIP3   OH235490   5.109   6.397   0.362  0.1692  0.5151 -0.3534
 4692TIP3    H135491   5.147   6.338   0.296 -0.5583 -0.4022  0.0139
 4692TIP3    H235492   5.059   6.460   0.312 -1.1305 -0.7254 -0.6762
 4693TIP3   OH235493   3.106   2.719   3.734 -0.8261 -0.0683  0.0673
 4693TIP3    H135494   3.058   2.645   3.698  1.7219 -2.0450  0.4567
 4693TIP3    H235495   3.088   2.791   3.673 -2.4424 -1.2712 -0.9783
 4694TIP3   OH235496   4.691   0.675   5.757  1.1807 -0.1550  0.0342
 4694TIP3    H135497   4.704   0.687   5.851  1.2391 -1.4703  0.2060
 4694TIP3    H235498   4.615   0.730   5.737 -0.2763 -1.6078  1.3004
 4695TIP3   OH235499   0.825   6.099  16.077 -0.8717 -0.2008 -0.9226
 4695TIP3    H135500   0.889   6.135  16.138  0.4576  0.8452 -2.8335
 4695TIP3    H235501   0.835   6.004  16.085  0.0451 -0.0693 -0.3172
 4696TIP3   OH235502   0.669   6.073   2.295  0.5395 -0.3455  0.0541
 4696TIP3    H135503   0.598   6.027   2.340  0.3105  1.4480  1.6844
 4696TIP3    H235504   0.626   6.119   2.223  0.2624 -0.3435  0.2193
 4697TIP3   OH235505   0.621   0.614   3.509 -0.1085  0.3019 -0.0471
 4697TIP3    H135506   0.602   0.531   3.552 -1.1261 -0.2852 -1.5348
 4697TIP3    H235507   0.705   0.642   3.546  0.3444 -1.4664  0.3451
 4698TIP3   OH235508   5.252   3.971   5.477  0.5134  0.1160  0.3063
 4698TIP3    H135509   5.314   4.008   5.414 -0.2456  0.7968 -0.0410
 4698TIP3    H235510   5.308   3.928   5.542  1.3065 -1.9449 -1.5976
 4699TIP3   OH235511   2.324   6.549   3.802  0.2643 -0.0441  0.3897
 4699TIP3    H135512   2.253   6.526   3.742  0.0233  2.2888 -0.3446
 4699TIP3    H235513   2.281   6.564   3.886  0.5476 -2.9180  1.1352
 4700TIP3   OH235514   2.346   1.888   4.432 -0.3098  0.4719 -0.0474
 4700TIP3    H135515   2.366   1.977   4.460  0.0682  0.1192  0.8228
 4700TIP3    H235516   2.253   1.877   4.452  0.0850  0.0226  1.6911
 4701TIP3   OH235517   0.923   5.686  16.434  0.4222 -0.4197 -0.9669
 4701TIP3    H135518   0.978   5.688  16.355  1.7856  1.7720 -0.0554
 4701TIP3    H235519   0.833   5.685  16.400  0.9137  2.1466 -2.6665
 4702TIP3   OH235520   2.742   6.198   2.746 -0.4923  0.2241 -1.2032
 4702TIP3    H135521   2.830   6.181   2.713 -0.3524 -0.2260 -0.5925
 4702TIP3    H235522   2.733   6.294   2.742 -0.7451  0.1772 -3.2191
 4703TIP3   OH235523   2.014   5.443  17.016 -0.3331 -0.8601  0.1530
 4703TIP3    H135524   2.077   5.396  16.962 -1.8238 -0.3066 -2.2026
 4703TIP3    H235525   2.038   5.419  17.106  1.5854 -2.6954 -0.7422
 4704TIP3   OH235526   5.441   5.990   2.095 -0.5928  0.3579 -0.1029
 4704TIP3    H135527   5.387   6.027   2.165  3.1973  0.5204  3.0786
 4704TIP3    H235528   5.423   6.046   2.019 -2.6132  2.1791  1.5716
 4705TIP3   OH235529   1.851   5.058  12.069 -0.3169  0.4646  0.9012
 4705TIP3    H135530   1.872   5.143  12.107 -0.2095  0.5688  0.6171
 4705TIP3    H235531   1.825   5.003  12.143 -0.2674  0.7096  1.0999
 4706TIP3   OH235532   5.020   3.405  16.310  0.6089 -0.0985 -0.6557
 4706TIP3    H135533   5.023   3.310  16.297  0.7657  0.0674 -1.9236
 4706TIP3    H235534   4.928   3.427  16.302  0.5540 -0.1449 -0.2184
 4707TIP3   OH235535   6.523   3.080  13.413 -0.5946 -0.1508 -0.6913
 4707TIP3    H135536   6.443   3.045  13.376 -2.0861  2.7099 -0.4362
 4707TIP3    H235537   6.495   3.155  13.466  2.1028  0.0281  0.7070
 4708TIP3   OH235538   6.129   5.208  12.550 -0.1126  0.6483  0.3946
 4708TIP3    H135539   6.209   5.260  12.549 -1.0069  2.1548 -2.1835
 4708TIP3    H235540   6.156   5.122  12.518  0.4897  1.1953 -0.6288
 4709TIP3   OH235541   6.433   2.185   3.139 -0.6514  0.7090 -0.3150
 4709TIP3    H135542   6.520   2.206   3.173  0.1285  0.0572 -1.7837
 4709TIP3    H235543   6.432   2.225   3.051 -1.6781  0.3440 -0.4836
 4710TIP3   OH235544   2.926   0.268   2.975 -0.0020  0.0974 -0.2562
 4710TIP3    H135545   3.014   0.274   2.938 -0.6963 -1.1268 -2.2202
 4710TIP3    H235546   2.880   0.346   2.944  0.1201  0.3034  0.0701
 4711TIP3   OH235547   3.536   4.689   6.673 -0.7197  0.9427  0.0872
 4711TIP3    H135548   3.494   4.612   6.712 -0.4748  1.6776  1.9178
 4711TIP3    H235549   3.525   4.678   6.579  0.3526 -1.9461  0.1923
 4712TIP3   OH235550   1.652   3.726   5.810 -0.4312  0.1928  0.7206
 4712TIP3    H135551   1.594   3.685   5.874 -1.7091 -0.4138 -0.7903
 4712TIP3    H235552   1.731   3.671   5.811 -0.9546 -0.5767  0.8538
 4713TIP3   OH235553   6.288   3.092   5.682 -0.4538 -0.0168 -0.0885
 4713TIP3    H135554   6.296   3.147   5.603 -0.9008  1.0716  0.6015
 4713TIP3    H235555   6.204   3.118   5.720  0.8829  1.3639  2.1244
 4714TIP3   OH235556   2.064   2.043   5.358 -0.3715  0.1568  0.8254
 4714TIP3    H135557   1.989   2.099   5.381 -0.1212  0.8508 -0.0077
 4714TIP3    H235558   2.139   2.102   5.356 -0.2089 -0.0644 -0.7220
 4715TIP3   OH235559   1.721   6.180   6.462  0.4080  0.1812  0.6005
 4715TIP3    H135560   1.810   6.174   6.497  0.9221 -1.6395 -0.8618
 4715TIP3    H235561   1.669   6.125   6.521  0.8623 -1.1598 -0.2098
 4716TIP3   OH235562   0.056   5.343   4.769 -0.1085  0.0998  0.5375
 4716TIP3    H135563   0.120   5.322   4.836 -0.8600 -2.8124  0.4678
 4716TIP3    H235564  -0.023   5.366   4.818 -0.1137 -0.1035  0.6220
 4717TIP3   OH235565   1.609   0.288  13.513 -0.2977  0.1025  0.0891
 4717TIP3    H135566   1.673   0.344  13.469 -0.5969 -0.1208 -0.6436
 4717TIP3    H235567   1.642   0.199  13.500  0.2135  0.0882  1.3115
 4718TIP3   OH235568   3.565   2.952   0.872  0.3384 -0.0629 -0.0099
 4718TIP3    H135569   3.629   2.953   0.943  1.0137 -0.6382 -0.5853
 4718TIP3    H235570   3.523   3.038   0.876  1.0487  0.2737  0.4747
 4719TIP3   OH235571   5.469   4.936  15.725  0.0627  0.1952 -0.1969
 4719TIP3    H135572   5.430   4.939  15.638 -0.5637 -1.0569  0.0142
 4719TIP3    H235573   5.518   4.854  15.727 -0.3385 -0.0429  0.7820
 4720TIP3   OH235574   6.198   3.970  13.686  0.1809 -0.3770 -1.0883
 4720TIP3    H135575   6.281   3.926  13.705  0.0111 -0.2710 -0.0704
 4720TIP3    H235576   6.199   4.048  13.740 -1.3769 -1.3132  0.4030
 4721TIP3   OH235577   1.676   1.566  14.169  0.0242  0.4086  0.6496
 4721TIP3    H135578   1.596   1.551  14.220  0.2264 -1.6411  0.4481
 4721TIP3    H235579   1.735   1.610  14.230 -0.2775 -0.6390  1.7384
 4722TIP3   OH235580   2.740   4.418  16.848  0.0984 -0.3630  0.0894
 4722TIP3    H135581   2.832   4.397  16.835 -0.6145 -3.4925 -0.6038
 4722TIP3    H235582   2.707   4.440  16.761  0.0352  0.2052  0.2497
 4723TIP3   OH235583   1.480   4.748   0.064  0.0188  0.0564 -0.1979
 4723TIP3    H135584   1.496   4.662   0.103 -0.7383  0.2671  0.5969
 4723TIP3    H235585   1.389   4.744   0.034  0.3449  0.1735 -1.2349
 4724TIP3   OH235586   1.193   2.991   3.692  0.4490 -0.4770  0.0005
 4724TIP3    H135587   1.257   2.991   3.621 -0.2134  0.7256 -0.6243
 4724TIP3    H235588   1.245   2.982   3.772  1.2805 -0.7610 -0.5640
 4725TIP3   OH235589   2.652   5.856  11.402  0.2377 -0.5671  0.4135
 4725TIP3    H135590   2.740   5.862  11.365  0.3701 -4.2082 -0.1428
 4725TIP3    H235591   2.593   5.862  11.327  0.2723 -2.6029  0.1807
 4726TIP3   OH235592   1.995   1.793  13.584  0.0361  0.3161  0.8362
 4726TIP3    H135593   2.052   1.827  13.653  0.4005 -0.0100  0.7025
 4726TIP3    H235594   1.929   1.861  13.571 -0.2182  0.2478  1.7173
 4727TIP3   OH235595   4.880   2.552   3.264  0.4007 -0.0774  0.6411
 4727TIP3    H135596   4.929   2.497   3.202 -0.8128 -2.4992  1.6725
 4727TIP3    H235597   4.788   2.530   3.248 -0.0213  0.3616  2.2693
 4728TIP3   OH235598   1.427   3.123   5.014 -0.6363 -0.1025  0.3594
 4728TIP3    H135599   1.410   3.032   5.041 -0.2741  0.1450  1.5043
 4728TIP3    H235600   1.502   3.150   5.067  2.5566 -0.6744 -3.4020
 4729TIP3   OH235601   1.919   0.030   2.149  0.2415 -0.0882  0.3895
 4729TIP3    H135602   1.906   0.005   2.241 -0.0961  2.0015  0.9439
 4729TIP3    H235603   2.005   0.072   2.148 -0.0821  0.5712 -0.0942
 4730TIP3   OH235604   6.607   4.992  14.048 -0.0410  0.4687  0.1584
 4730TIP3    H135605   6.567   5.056  13.990  0.8311 -0.3391 -1.4099
 4730TIP3    H235606   6.694   5.028  14.067  0.6058 -0.3675 -1.0491
 4731TIP3   OH235607   0.888   1.810   3.523  0.2493 -0.3927 -0.4832
 4731TIP3    H135608   0.846   1.881   3.474 -0.0210 -0.7079 -0.7173
 4731TIP3    H235609   0.938   1.762   3.457  1.0587  0.0283 -0.1927
 4732TIP3   OH235610   4.407   1.097  16.751  0.1743  0.1908  1.0617
 4732TIP3    H135611   4.374   1.138  16.670 -0.8056 -2.2575  0.1229
 4732TIP3    H235612   4.496   1.070  16.729  0.2244  0.3235  1.1011
 4733TIP3   OH235613   3.450   3.449   5.349 -0.4049  0.3201 -0.6467
 4733TIP3    H135614   3.489   3.362   5.340 -0.7604  0.0746  0.0881
 4733TIP3    H235615   3.499   3.504   5.288  1.7594  0.2616  0.9248
 4734TIP3   OH235616   6.109   4.349   3.024  0.0827  0.4974  0.0260
 4734TIP3    H135617   6.089   4.430   2.978  0.6664  0.3253 -0.5359
 4734TIP3    H235618   6.205   4.342   3.020 -0.0294 -0.7042 -0.7528
 4735TIP3   OH235619   5.725   1.003   0.484 -0.4559  0.4069 -0.7313
 4735TIP3    H135620   5.740   0.911   0.463 -1.3424  0.2254 -0.6052
 4735TIP3    H235621   5.631   1.009   0.502 -0.0378  0.8524  1.6142
 4736TIP3   OH235622   3.465   2.221  15.977  0.6395 -0.4949 -0.8170
 4736TIP3    H135623   3.451   2.150  16.041 -0.8467 -1.5206 -2.2061
 4736TIP3    H235624   3.477   2.176  15.894  1.3846  0.8619 -1.4707
 4737TIP3   OH235625   6.277   3.916   0.229  0.6632  0.0189  0.1371
 4737TIP3    H135626   6.324   3.891   0.308  0.0285  1.8568  1.1674
 4737TIP3    H235627   6.229   3.837   0.202  2.0087 -1.0293  0.7362
 4738TIP3   OH235628   0.327   3.369  11.664 -0.1450  0.4891  0.0779
 4738TIP3    H135629   0.417   3.338  11.656 -0.5808 -0.4050 -2.0347
 4738TIP3    H235630   0.278   3.320  11.597 -2.1552  1.1448  0.9755
 4739TIP3   OH235631   6.588   5.066   1.400 -0.4535 -0.0131  0.1514
 4739TIP3    H135632   6.509   5.107   1.435  0.0268  1.0572  0.0219
 4739TIP3    H235633   6.576   5.068   1.305 -0.5831 -0.5132  0.1528
 4740TIP3   OH235634   4.268   6.566  13.086 -0.4200  0.4145 -0.4001
 4740TIP3    H135635   4.321   6.646  13.088  0.0539  0.2849 -3.5051
 4740TIP3    H235636   4.186   6.591  13.129 -0.6766  2.9353 -2.1120
 4741TIP3   OH235637   2.826   6.283   2.250 -0.1868 -0.0161  0.4029
 4741TIP3    H135638   2.898   6.244   2.300  0.1401 -0.9931 -0.7833
 4741TIP3    H235639   2.766   6.211   2.234  0.0054  0.1234 -1.1056
 4742TIP3   OH235640   4.258   3.621   4.510 -0.8733 -0.1124 -0.2614
 4742TIP3    H135641   4.200   3.582   4.445 -0.3202 -0.3876 -0.5925
 4742TIP3    H235642   4.308   3.548   4.546 -0.4200  0.1736 -0.2908
 4743TIP3   OH235643   6.085   1.767  17.088  0.1388 -0.7206  0.7210
 4743TIP3    H135644   5.998   1.740  17.058 -0.2800  0.6827  0.6433
 4743TIP3    H235645   6.070   1.839  17.148  1.2645 -0.3194  0.5524
 4744TIP3   OH235646   6.514   1.115   0.998  1.0619  0.5172  0.0625
 4744TIP3    H135647   6.501   1.050   1.068  0.6841 -0.5096 -0.9262
 4744TIP3    H235648   6.426   1.134   0.966  1.2748  0.4049 -0.6174
 4745TIP3   OH235649   6.185   5.175  10.777  0.0999 -0.1093 -0.2506
 4745TIP3    H135650   6.130   5.137  10.845  0.6093 -0.2596  0.0791
 4745TIP3    H235651   6.275   5.157  10.805  0.5248  3.8270  1.4156
 4746TIP3   OH235652   3.099   6.137   3.277  0.1604  0.1525 -0.2741
 4746TIP3    H135653   3.056   6.078   3.216 -4.7610  0.4853  2.3930
 4746TIP3    H235654   3.055   6.221   3.265  0.9694  0.9577  1.8362
 4747TIP3   OH235655   4.379   5.862  14.469  0.0681  0.0400 -0.4547
 4747TIP3    H135656   4.369   5.901  14.557  2.5332  2.1046 -0.9774
 4747TIP3    H235657   4.401   5.936  14.413  0.0211 -1.4751 -2.5733
 4748TIP3   OH235658   4.992   0.756   2.778  0.0096 -0.1784  0.2101
 4748TIP3    H135659   4.973   0.723   2.690  0.7145 -2.1911  0.7742
 4748TIP3    H235660   4.906   0.783   2.813 -0.4488 -0.5587 -0.6099
 4749TIP3   OH235661   4.580   5.660  12.852 -0.5609  0.1822  0.3591
 4749TIP3    H135662   4.623   5.732  12.897  0.6980  0.3291 -0.9910
 4749TIP3    H235663   4.652   5.604  12.823 -1.3315 -0.0466 -1.1978
 4750TIP3   OH235664   6.070   5.604  12.861  0.4091 -0.3163  0.3867
 4750TIP3    H135665   6.062   5.695  12.835  1.9363 -1.0525 -3.3588
 4750TIP3    H235666   6.160   5.596  12.893  0.7798 -0.7508 -0.7197
 4751TIP3   OH235667   0.112   1.111   0.082 -0.5585 -0.8334  0.5612
 4751TIP3    H135668   0.064   1.033   0.113 -1.5386 -0.4934 -0.0566
 4751TIP3    H235669   0.044   1.168   0.047  0.1634  0.2860  0.9445
 4752TIP3   OH235670   3.898   3.014  16.928  0.3745 -0.0578  0.1309
 4752TIP3    H135671   3.990   2.985  16.927 -0.0991 -1.6792 -1.2862
 4752TIP3    H235672   3.889   3.067  16.849  0.0042 -0.1316  0.1252
 4753TIP3   OH235673   3.303   5.760  11.733  0.7253 -0.2869  0.0799
 4753TIP3    H135674   3.281   5.793  11.820 -0.7174  2.0008 -1.0263
 4753TIP3    H235675   3.378   5.813  11.706  0.5731 -0.3205 -0.4182
 4754TIP3   OH235676   2.594   2.120  14.480 -0.0812  1.1773  1.1029
 4754TIP3    H135677   2.659   2.100  14.547 -0.3062 -1.4815  0.6418
 4754TIP3    H235678   2.517   2.150  14.529 -0.0537 -0.1688  2.0110
 4755TIP3   OH235679   6.503   0.711  14.029  0.2637 -0.7193  0.2406
 4755TIP3    H135680   6.553   0.661  14.094  0.2787 -1.8860 -0.6459
 4755TIP3    H235681   6.550   0.794  14.022  0.8742 -0.9878  0.9494
 4756TIP3   OH235682   3.506   6.604   0.603  0.0001 -0.1408 -0.2288
 4756TIP3    H135683   3.568   6.646   0.542  0.0317 -0.9903 -0.8111
 4756TIP3    H235684   3.482   6.522   0.559  0.3030 -0.9598  1.0726
 4757TIP3   OH235685   3.546   5.577   1.546 -0.1533 -0.1800  0.2158
 4757TIP3    H135686   3.497   5.658   1.528 -1.0934 -0.2277  2.2467
 4757TIP3    H235687   3.539   5.527   1.465 -1.1714  0.9748 -0.4559
 4758TIP3   OH235688   3.707   2.361  14.171 -0.3511  0.7943  0.2516
 4758TIP3    H135689   3.780   2.396  14.120 -0.5568  0.8936  0.0252
 4758TIP3    H235690   3.635   2.423  14.156 -0.0995  1.4335  1.5252
 4759TIP3   OH235691   1.361   3.647  16.869  0.1434 -0.1265  0.0361
 4759TIP3    H135692   1.291   3.700  16.909 -0.7547 -0.1492 -1.4179
 4759TIP3    H235693   1.435   3.655  16.929 -1.3518 -0.7844  2.0637
 4760TIP3   OH235694   2.344   6.382  15.487 -0.0835  0.2515  0.1163
 4760TIP3    H135695   2.417   6.363  15.428 -0.4074  1.6099 -0.7716
 4760TIP3    H235696   2.386   6.401  15.572  0.5851  0.6838 -0.2971
 4761TIP3   OH235697   0.120   1.687  14.603 -0.7121  0.3402  0.0373
 4761TIP3    H135698   0.164   1.758  14.557 -2.3770  0.8867 -0.7842
 4761TIP3    H235699   0.183   1.615  14.602  0.0984  1.0326 -1.2388
 4762TIP3   OH235700   3.620   0.578   2.227  0.0816  0.2034  0.1246
 4762TIP3    H135701   3.643   0.566   2.319 -0.8450 -0.3164  0.3044
 4762TIP3    H235702   3.649   0.497   2.185  0.2539  0.3254  0.0081
 4763TIP3   OH235703   3.964   5.109   1.906  0.2370 -0.1073  0.5063
 4763TIP3    H135704   4.033   5.131   1.844  0.0772 -0.4158  0.2172
 4763TIP3    H235705   3.953   5.014   1.898 -0.4873 -0.0125  0.2598
 4764TIP3   OH235706   1.990   5.755  15.308  0.4461  0.1475  0.7445
 4764TIP3    H135707   2.079   5.777  15.279  0.5719 -1.6049 -0.3678
 4764TIP3    H235708   1.975   5.667  15.275 -1.1679 -0.1981  2.2228
 4765TIP3   OH235709   1.067   3.366   4.302 -0.8343 -0.9833 -0.5051
 4765TIP3    H135710   1.111   3.332   4.224  1.2383 -3.4187  1.5176
 4765TIP3    H235711   1.119   3.442   4.327  0.0809 -1.6959 -0.1581
 4766TIP3   OH235712   2.114   0.761   4.833  0.2828  0.2232 -0.0246
 4766TIP3    H135713   2.167   0.736   4.758  0.0432  0.4114 -0.2578
 4766TIP3    H235714   2.174   0.755   4.908 -0.2766 -3.3337  0.3345
 4767TIP3   OH235715   2.092   2.033  12.492  0.4309 -0.0867 -0.3491
 4767TIP3    H135716   2.133   2.013  12.408  0.2320 -1.0808 -0.2188
 4767TIP3    H235717   2.037   1.958  12.511  0.1558  0.3066  0.4811
 4768TIP3   OH235718   4.536   2.121  15.371  0.4737 -0.2738 -0.0704
 4768TIP3    H135719   4.523   2.216  15.360  1.1160 -0.2699 -0.8600
 4768TIP3    H235720   4.624   2.113  15.407 -0.1448 -0.5067  1.4229
 4769TIP3   OH235721   6.537   4.918   3.749 -0.0256 -0.0211  0.1951
 4769TIP3    H135722   6.549   4.912   3.654  1.2121 -1.4578  0.3906
 4769TIP3    H235723   6.479   4.845   3.771 -1.8977  1.4455  0.3632
 4770TIP3   OH235724   4.870   0.347  13.101 -0.0166  0.1126  0.2419
 4770TIP3    H135725   4.867   0.254  13.126 -0.1361 -0.0600 -0.4030
 4770TIP3    H235726   4.936   0.351  13.032 -0.4266  0.4139 -0.1370
 4771TIP3   OH235727   1.254   5.527  15.961  0.2642 -0.1968  0.2519
 4771TIP3    H135728   1.224   5.618  15.961 -0.1135 -0.3207 -0.1609
 4771TIP3    H235729   1.266   5.505  15.869  0.0326 -0.6688  0.3317
 4772TIP3   OH235730   3.171   3.080   2.665 -0.2874  0.2719  0.3915
 4772TIP3    H135731   3.127   3.030   2.596  0.1253 -0.1362  0.4112
 4772TIP3    H235732   3.258   3.040   2.670  0.0237  0.9534  0.4637
 4773TIP3   OH235733   3.422   3.440   1.811  0.3116 -0.2545 -0.0260
 4773TIP3    H135734   3.371   3.366   1.844  0.7260 -0.6948 -0.3584
 4773TIP3    H235735   3.512   3.409   1.811  0.4036 -0.0005 -0.8508
 4774TIP3   OH235736   5.274   5.684   6.338  0.2254 -1.0018  0.3206
 4774TIP3    H135737   5.261   5.744   6.412 -0.3127  0.4177 -0.8794
 4774TIP3    H235738   5.271   5.597   6.378  1.3583 -0.2557  2.1742
 4775TIP3   OH235739   3.511   6.581   1.165  0.1627 -0.2566  0.5089
 4775TIP3    H135740   3.421   6.615   1.160 -0.4639 -1.6704  1.6585
 4775TIP3    H235741   3.546   6.594   1.076 -1.1726  0.3085  0.0401
 4776TIP3   OH235742   4.333   0.004  16.206 -0.0700  0.4765  0.0398
 4776TIP3    H135743   4.383   0.023  16.286 -1.1339 -0.2683  0.9145
 4776TIP3    H235744   4.309  -0.089  16.214 -1.3322  0.7334 -0.4718
 4777TIP3   OH235745   4.880   0.748  14.849  0.4717 -0.4219  0.0641
 4777TIP3    H135746   4.911   0.828  14.806  0.1236 -0.5097 -0.3555
 4777TIP3    H235747   4.950   0.725  14.909  0.1345  0.7879  0.9639
 4778TIP3   OH235748   1.570   1.807  13.815  0.2791 -0.6657  0.0469
 4778TIP3    H135749   1.598   1.892  13.849 -0.0829 -0.1271 -0.9334
 4778TIP3    H235750   1.647   1.751  13.823  0.5295 -0.2368  0.6813
 4779TIP3   OH235751   2.812   4.790   2.897 -0.2180  0.0978  0.3304
 4779TIP3    H135752   2.789   4.721   2.960 -0.2619  1.2929  1.6687
 4779TIP3    H235753   2.730   4.838   2.885 -0.1314  0.0596 -0.4237
 4780TIP3   OH235754   5.942   4.555   0.702  0.0497 -0.1777  0.4012
 4780TIP3    H135755   5.855   4.531   0.735 -0.1998  0.4764  0.2245
 4780TIP3    H235756   5.992   4.578   0.781 -0.1052 -0.0201  0.4537
 4781TIP3   OH235757   5.947   5.738   2.589 -0.3668  0.0535 -0.5251
 4781TIP3    H135758   5.891   5.815   2.576 -2.0338 -0.8753  0.8093
 4781TIP3    H235759   5.957   5.732   2.684  1.2002 -0.4114 -0.6942
 4782TIP3   OH235760   4.247   0.777  14.079 -0.0577 -0.3198  0.4548
 4782TIP3    H135761   4.206   0.694  14.056 -0.2069  0.0959 -0.8461
 4782TIP3    H235762   4.333   0.752  14.114  0.0177 -1.0136 -0.2029
 4783TIP3   OH235763   2.863   5.398   3.727  0.7256 -0.3313 -0.1664
 4783TIP3    H135764   2.943   5.367   3.770  0.9954  1.2575  0.5550
 4783TIP3    H235765   2.895   5.459   3.660  0.1464 -0.4195 -0.5288
 4784TIP3   OH235766   4.752   4.962   5.242  0.1048 -0.0616  0.5296
 4784TIP3    H135767   4.703   4.921   5.313  0.2172  0.4458  0.9045
 4784TIP3    H235768   4.833   4.912   5.236 -0.9592 -1.7278 -0.9459
 4785TIP3   OH235769   3.201   3.438   3.647 -0.1197 -0.6460 -0.8975
 4785TIP3    H135770   3.293   3.465   3.644 -0.3438  0.0330 -2.1661
 4785TIP3    H235771   3.153   3.512   3.609 -1.4941  0.1501  2.0260
 4786TIP3   OH235772   5.621   1.462   0.623 -0.0270  0.9494  0.3739
 4786TIP3    H135773   5.538   1.425   0.651 -0.7028  2.0653 -0.0488
 4786TIP3    H235774   5.664   1.488   0.704 -0.9405  2.0649  0.5323
 4787TIP3   OH235775   1.101   0.877  15.198 -0.2042  0.3214  0.1491
 4787TIP3    H135776   1.180   0.930  15.206  0.0252  0.2231 -1.2060
 4787TIP3    H235777   1.046   0.905  15.270  0.0482  2.1717 -0.3250
 4788TIP3   OH235778   1.725   4.222  16.995  0.2658 -0.7262 -0.4718
 4788TIP3    H135779   1.737   4.196  16.903 -0.5444  0.3025 -0.8884
 4788TIP3    H235780   1.682   4.307  16.990 -1.9954 -1.7143  0.8922
 4789TIP3   OH235781   6.649   6.617   4.656  0.1848 -0.9447 -0.0405
 4789TIP3    H135782   6.682   6.598   4.743  2.7367  0.6373 -0.5553
 4789TIP3    H235783   6.690   6.700   4.632 -1.9462 -0.3441 -2.0270
 4790TIP3   OH235784   3.739   5.871  16.088  0.2713  0.3246  0.2583
 4790TIP3    H135785   3.654   5.843  16.054  0.0769 -1.1098  1.7844
 4790TIP3    H235786   3.718   5.948  16.141 -0.0580  0.1137  0.4414
 4791TIP3   OH235787   5.894   1.074  16.615  0.1405  0.1720  0.3674
 4791TIP3    H135788   5.953   1.001  16.634 -0.0215 -0.0331  0.0991
 4791TIP3    H235789   5.951   1.149  16.605  0.4761 -0.2159 -0.9160
 4792TIP3   OH235790   0.465   6.511   4.275 -0.6788 -0.1109  0.0860
 4792TIP3    H135791   0.399   6.547   4.334 -1.8957 -0.1161 -1.2388
 4792TIP3    H235792   0.420   6.442   4.227  0.0348  0.4564 -1.4480
 4793TIP3   OH235793   0.737   0.070   1.511  0.1606 -0.4132 -0.2449
 4793TIP3    H135794   0.699   0.156   1.488 -0.0611 -0.7402 -1.1266
 4793TIP3    H235795   0.676   0.035   1.577  1.3669  0.9804  1.7278
 4794TIP3   OH235796   3.898   1.595   2.779  0.6693 -0.2018  0.1710
 4794TIP3    H135797   3.966   1.577   2.715  3.2127 -1.8792  3.0474
 4794TIP3    H235798   3.853   1.511   2.792  0.5847 -0.0517  0.9454
 4795TIP3   OH235799   0.589   4.345  15.517  0.4305 -0.1159 -0.0658
 4795TIP3    H135800   0.674   4.300  15.524 -0.4980 -1.8772  0.6243
 4795TIP3    H235801   0.611   4.433  15.485  2.3937 -0.9443 -1.2335
 4796TIP3   OH235802   1.043   1.048   1.368  0.0342  0.1883  0.0442
 4796TIP3    H135803   0.979   1.066   1.438 -0.8265 -0.3202 -0.6042
 4796TIP3    H235804   1.008   1.094   1.292  0.7805  0.4301 -0.1563
 4797TIP3   OH235805   0.944   1.498   4.667  0.1862  0.7109  0.0092
 4797TIP3    H135806   0.895   1.508   4.749  0.5882 -0.1159  0.3648
 4797TIP3    H235807   0.966   1.405   4.664 -0.8997  0.4672 -1.6833
 4798TIP3   OH235808   4.572   4.903   3.002 -0.1326 -0.4873 -0.3173
 4798TIP3    H135809   4.609   4.848   3.071  1.7086  0.1916 -0.6888
 4798TIP3    H235810   4.511   4.846   2.956  1.7236 -2.3016 -0.7135
 4799TIP3   OH235811   6.178   1.174  12.499  0.4282 -0.3112  0.3855
 4799TIP3    H135812   6.232   1.180  12.578  0.7236 -2.6707  0.4274
 4799TIP3    H235813   6.096   1.134  12.529  0.1229 -0.2245 -0.3224
 4800TIP3   OH235814   5.544   5.672   3.075 -0.0951  0.9374 -0.1660
 4800TIP3    H135815   5.580   5.584   3.082  2.8546  2.0502  0.1741
 4800TIP3    H235816   5.449   5.660   3.081  0.2664 -2.0456  1.4547
 4801TIP3   OH235817   2.989   1.577  15.451 -0.7758 -0.1906 -0.3024
 4801TIP3    H135818   2.963   1.652  15.397  0.7199 -0.6113 -1.6985
 4801TIP3    H235819   3.005   1.507  15.387 -0.3296 -1.1519  0.8270
 4802TIP3   OH235820   5.176   6.739  14.077  0.4041  0.1034  0.0327
 4802TIP3    H135821   5.193   6.728  13.984 -2.5139  2.8442 -0.9938
 4802TIP3    H235822   5.090   6.699  14.091 -0.5311  2.2117  0.8145
 4803TIP3   OH235823   2.420   6.418  10.580  0.3844 -0.8554 -0.1256
 4803TIP3    H135824   2.445   6.451  10.494 -1.2464  1.3306  0.1374
 4803TIP3    H235825   2.479   6.463  10.641 -1.1774  0.9739  0.1520
 4804TIP3   OH235826   6.114   5.891   5.078  0.2956  0.2847  0.1166
 4804TIP3    H135827   6.133   5.956   5.010 -1.6187  0.0596 -0.6937
 4804TIP3    H235828   6.091   5.944   5.155  0.2556  0.5634 -0.0829
 4805TIP3   OH235829   3.225   6.410  13.075 -0.9842 -0.2569 -0.3840
 4805TIP3    H135830   3.173   6.421  13.155 -0.2878 -0.4822  0.1083
 4805TIP3    H235831   3.192   6.479  13.016  0.0746  1.4613  0.9364
 4806TIP3   OH235832   5.572   1.817  12.036 -0.1539 -0.2053  0.2379
 4806TIP3    H135833   5.611   1.855  11.957 -0.5703  1.3103  0.7157
 4806TIP3    H235834   5.645   1.780  12.084  0.3864  0.5996  0.0547
 4807TIP3   OH235835   1.013   3.470  13.137  0.1053  0.5520  0.0412
 4807TIP3    H135836   0.934   3.480  13.083 -2.3529 -0.6705  3.1210
 4807TIP3    H235837   1.031   3.376  13.135  2.4286  0.9512 -1.6776
 4808TIP3   OH235838   3.173   4.351  13.065  0.3776 -0.2648 -0.3614
 4808TIP3    H135839   3.140   4.299  13.138 -0.6281 -0.1748 -0.7405
 4808TIP3    H235840   3.252   4.306  13.037  0.5513 -0.5240  0.5233
 4809TIP3   OH235841   4.247   4.405  12.653 -0.4248  0.2048  0.3957
 4809TIP3    H135842   4.173   4.366  12.700 -0.8238 -1.3892 -1.4137
 4809TIP3    H235843   4.245   4.497  12.678 -1.9087 -0.1462  1.7955
 4810TIP3   OH235844   4.651   3.479  14.110  0.2240  0.5360  0.9776
 4810TIP3    H135845   4.704   3.509  14.036 -0.3379  1.1501  0.8105
 4810TIP3    H235846   4.568   3.454  14.071  0.3321 -0.2822  1.2583
 4811TIP3   OH235847   5.302   5.086   4.641  0.1735 -0.1949 -0.5458
 4811TIP3    H135848   5.338   5.120   4.723  0.5866 -0.2877 -0.6873
 4811TIP3    H235849   5.339   4.998   4.633 -1.5173 -1.0244  0.2288
 4812TIP3   OH235850   0.453   1.474   1.590 -0.0516  0.0048  0.5196
 4812TIP3    H135851   0.401   1.478   1.671 -0.1432 -1.0942  0.5290
 4812TIP3    H235852   0.387   1.469   1.520  0.0321 -0.3109  0.4622
 4813TIP3   OH235853   0.148   3.038   4.797 -0.3682  0.3520 -0.3488
 4813TIP3    H135854   0.224   2.995   4.835  0.8124  0.6763 -2.1899
 4813TIP3    H235855   0.143   3.123   4.840  0.0743  0.1704  0.0626
 4814TIP3   OH235856   5.515   3.381   0.616  0.3529 -0.2970 -0.1514
 4814TIP3    H135857   5.586   3.353   0.559  0.8473  0.2968  0.1622
 4814TIP3    H235858   5.440   3.393   0.557  0.6793 -0.3328 -0.5772
 4815TIP3   OH235859   1.838   3.613  10.871 -0.2196  0.0621  0.3369
 4815TIP3    H135860   1.882   3.671  10.810 -2.0771 -0.4644 -1.6188
 4815TIP3    H235861   1.889   3.532  10.869  1.1240  0.8473  1.4170
 4816TIP3   OH235862   3.055   6.347  16.694 -0.7954  0.0763  0.9415
 4816TIP3    H135863   3.128   6.364  16.753 -0.9370  0.5236  0.9898
 4816TIP3    H235864   2.987   6.311  16.751 -1.1823  1.1590  1.1881
 4817TIP3   OH235865   2.362   3.750   2.554 -0.4322 -0.2914  0.1581
 4817TIP3    H135866   2.278   3.710   2.534 -0.1081 -1.7943  1.5650
 4817TIP3    H235867   2.377   3.729   2.646  0.3624  2.0624  0.6195
 4818TIP3   OH235868   5.420   2.878   6.479  0.4400 -0.1250  0.3528
 4818TIP3    H135869   5.376   2.960   6.500  0.7316  0.0163  0.4195
 4818TIP3    H235870   5.363   2.810   6.514 -0.7491 -0.0525 -1.2997
 4819TIP3   OH235871   2.373   6.351  13.491 -0.4636 -0.0346 -0.0038
 4819TIP3    H135872   2.442   6.415  13.509 -0.5469 -0.2589  1.1646
 4819TIP3    H235873   2.303   6.372  13.553 -0.1817 -1.7226  0.9438
 4820TIP3   OH235874   1.475   0.613   4.130  0.4202  0.1608 -0.1058
 4820TIP3    H135875   1.444   0.687   4.078  1.6322 -1.2432 -3.1130
 4820TIP3    H235876   1.407   0.547   4.122  0.3876  0.1012  0.5807
 4821TIP3   OH235877   4.486   4.559   0.511  0.4165  0.1199  0.1507
 4821TIP3    H135878   4.576   4.549   0.480  0.4519  0.7612  0.0340
 4821TIP3    H235879   4.494   4.608   0.593  0.2113 -0.3007  0.4264
 4822TIP3   OH235880   3.599   0.388  16.373  0.0951 -0.0320 -0.1344
 4822TIP3    H135881   3.608   0.341  16.290 -0.2457 -2.5115  1.1355
 4822TIP3    H235882   3.681   0.371  16.419 -0.0403  0.6349  0.3690
 4823TIP3   OH235883   6.399   0.279   0.637  0.0523 -0.5699  0.3960
 4823TIP3    H135884   6.338   0.335   0.589  0.1023 -1.4084 -0.6802
 4823TIP3    H235885   6.345   0.203   0.663  0.1898 -0.4358  1.0916
 4824TIP3   OH235886   5.169   1.964  14.042 -0.1766  0.3833  0.1504
 4824TIP3    H135887   5.158   1.904  14.116  2.0658  0.9266  1.0126
 4824TIP3    H235888   5.245   1.930  13.995 -1.5731  0.0320 -2.0056
 4825TIP3   OH235889   2.441   2.735   1.136 -0.2530 -0.0660  0.4179
 4825TIP3    H135890   2.486   2.801   1.189  2.0207 -0.5638 -0.7475
 4825TIP3    H235891   2.406   2.674   1.201 -0.6289  1.1876  1.4412
 4826TIP3   OH235892   5.499   6.448  13.065 -0.1239  0.0997  0.0012
 4826TIP3    H135893   5.544   6.443  13.149  0.7990 -3.0707 -0.5550
 4826TIP3    H235894   5.406   6.441  13.086  0.1392 -1.6178  0.7649
 4827TIP3   OH235895   0.492   4.603   3.258 -0.2697 -0.2198 -0.0152
 4827TIP3    H135896   0.405   4.588   3.221 -0.0147  0.4483 -0.9283
 4827TIP3    H235897   0.528   4.673   3.204  0.4418  0.2086  1.0025
 4828TIP3   OH235898   2.505   5.564  12.973 -0.5635 -0.2271  0.1136
 4828TIP3    H135899   2.588   5.545  13.018 -0.6531 -2.3051 -0.4635
 4828TIP3    H235900   2.532   5.609  12.893 -0.0812  0.0958  0.4506
 4829TIP3   OH235901   1.722   3.329   3.294 -0.7137  0.0655  0.1695
 4829TIP3    H135902   1.817   3.318   3.286 -0.4368  0.5931  2.2529
 4829TIP3    H235903   1.701   3.295   3.381 -2.2495  1.0735  0.2320
 4830TIP3   OH235904   2.934   3.633   3.007  0.0067  0.3899  0.0389
 4830TIP3    H135905   2.920   3.554   2.955  1.2389  0.8789 -1.0847
 4830TIP3    H235906   2.953   3.701   2.942 -0.1213  1.4150  1.0417
 4831TIP3   OH235907   3.861   5.258  13.250  0.3756 -0.7206  0.6351
 4831TIP3    H135908   3.941   5.207  13.244 -0.4517 -2.0939  0.8098
 4831TIP3    H235909   3.826   5.258  13.161  1.9283  2.3027 -0.1254
 4832TIP3   OH235910   4.876   1.702   3.719  0.0330 -0.5895 -0.9586
 4832TIP3    H135911   4.854   1.741   3.804 -0.7912 -1.8746 -0.5493
 4832TIP3    H235912   4.951   1.752   3.688  0.0739  0.1897  0.3317
 4833TIP3   OH235913   2.069   5.211   5.754 -0.2692 -0.4414  0.1500
 4833TIP3    H135914   2.092   5.299   5.723  0.0147 -0.7805 -0.6139
 4833TIP3    H235915   1.979   5.220   5.787 -0.8543 -0.2273 -1.4433
 4834TIP3   OH235916   5.177   4.935  15.602  0.5692  0.5621 -0.2567
 4834TIP3    H135917   5.233   4.962  15.529 -0.4905 -0.1617 -1.3813
 4834TIP3    H235918   5.088   4.941  15.567  0.0945 -0.6712  0.6875
 4835TIP3   OH235919   5.211   6.755   6.385  0.2239 -0.1432 -0.2641
 4835TIP3    H135920   5.160   6.674   6.383 -1.5750  0.9078  1.0191
 4835TIP3    H235921   5.273   6.743   6.456 -0.0806 -0.3686 -0.0362
 4836TIP3   OH235922   3.988   5.052   4.021 -0.2380  0.0162  0.6446
 4836TIP3    H135923   3.971   4.971   3.972 -0.6846  0.7852 -0.5358
 4836TIP3    H235924   4.074   5.081   3.990 -0.7794  0.8144 -0.1665
 4837TIP3   OH235925   0.323   1.763   4.753  0.0977 -0.0643  0.1042
 4837TIP3    H135926   0.326   1.837   4.814  3.0692 -0.6834  0.8820
 4837TIP3    H235927   0.314   1.804   4.667  1.1934  1.2312  0.5576
 4838TIP3   OH235928   1.947   1.136   6.387  0.3556  0.1642  0.1964
 4838TIP3    H135929   1.985   1.097   6.309 -1.2529  0.4229 -0.7777
 4838TIP3    H235930   2.010   1.203   6.414  1.0588 -0.0995 -0.7455
 4839TIP3   OH235931   0.574   3.259  11.707 -0.3668  0.9822  0.2748
 4839TIP3    H135932   0.640   3.199  11.673 -0.2190  1.9667 -1.2544
 4839TIP3    H235933   0.598   3.271  11.799  0.0288 -0.6813  0.4300
 4840TIP3   OH235934   5.107   3.700  14.370  0.2821  0.9798 -0.0471
 4840TIP3    H135935   5.191   3.695  14.324  0.0996  3.1534 -0.7186
 4840TIP3    H235936   5.126   3.670  14.459  1.4732  0.2679 -0.5232
 4841TIP3   OH235937   2.483   1.974  11.044 -0.4625  0.2509  0.4757
 4841TIP3    H135938   2.469   1.886  11.079 -0.2259 -0.3171 -0.7691
 4841TIP3    H235939   2.418   1.982  10.974  0.7350  0.3071 -0.6758
 4842TIP3   OH235940   3.936   2.981   5.937 -0.1682 -0.2468  0.3711
 4842TIP3    H135941   3.934   3.059   5.882 -1.0485 -0.0357  0.6795
 4842TIP3    H235942   3.872   2.999   6.006 -0.3706 -1.2261  0.4505
 4843TIP3   OH235943   3.146   4.428   2.571  0.1272  0.0421  0.4811
 4843TIP3    H135944   3.141   4.514   2.528 -0.6290 -0.6724 -0.9471
 4843TIP3    H235945   3.071   4.426   2.630 -1.0932 -0.3827 -1.0140
 4844TIP3   OH235946   2.731   2.541   0.373 -0.1535  0.6020  0.0052
 4844TIP3    H135947   2.701   2.582   0.292  1.5482  2.2606  0.1575
 4844TIP3    H235948   2.784   2.467   0.345 -0.9998  0.0975 -0.3230
 4845TIP3   OH235949   1.784   4.660  15.201  0.2573  0.3546 -0.3764
 4845TIP3    H135950   1.712   4.704  15.247  1.2062  0.9544  0.5893
 4845TIP3    H235951   1.796   4.712  15.121  1.3732  1.9430  0.7563
 4846TIP3   OH235952   3.913   4.219  11.178 -0.6857 -0.1623 -0.1134
 4846TIP3    H135953   3.855   4.153  11.140  0.3342 -0.5756 -0.9987
 4846TIP3    H235954   3.854   4.290  11.204 -1.5121 -0.2193 -1.7276
 4847TIP3   OH235955   5.669   2.146   2.189 -0.0154  0.5487 -0.4849
 4847TIP3    H135956   5.673   2.102   2.274  1.5851 -0.8119 -1.2003
 4847TIP3    H235957   5.619   2.085   2.134  1.8962 -0.2577 -1.3905
 4848TIP3   OH235958   5.993   4.650  13.105  0.6528 -0.0455 -0.1848
 4848TIP3    H135959   5.933   4.714  13.067  0.1168 -0.6068 -0.3054
 4848TIP3    H235960   6.005   4.680  13.195 -1.0817 -0.7743  0.3328
 4849TIP3   OH235961   1.848   3.742  14.145 -0.0353  0.0097 -0.0180
 4849TIP3    H135962   1.795   3.663  14.154  0.8509 -0.6930 -0.6495
 4849TIP3    H235963   1.931   3.710  14.109  0.9735  1.0109  1.3346
 4850TIP3   OH235964   3.216   2.615   1.668 -0.9973  0.0094 -0.8250
 4850TIP3    H135965   3.237   2.651   1.755 -0.8764  0.2804 -0.9651
 4850TIP3    H235966   3.196   2.691   1.615  1.0814  0.0611 -1.6325
 4851TIP3   OH235967   0.935   3.888   4.616  0.0996 -0.9017  0.8740
 4851TIP3    H135968   0.975   3.958   4.565 -2.0990  0.1637  0.5054
 4851TIP3    H235969   0.884   3.837   4.553  0.6342 -2.0802  1.3525
 4852TIP3   OH235970   4.937   1.730  10.644 -0.4777  0.2302 -0.7992
 4852TIP3    H135971   4.877   1.676  10.696  3.3724 -1.3818  2.5267
 4852TIP3    H235972   4.933   1.817  10.684  2.0132 -0.8529  2.1549
 4853TIP3   OH235973   5.025   0.432  10.538  0.0290 -0.0149 -0.2885
 4853TIP3    H135974   5.110   0.476  10.542  0.4557 -0.9358  1.7793
 4853TIP3    H235975   5.039   0.357  10.480  1.4804 -1.7467  2.1274
 4854TIP3   OH235976   6.714   5.412   5.746  0.4886 -0.3038 -0.2843
 4854TIP3    H135977   6.631   5.454   5.724  0.1230 -1.8510 -2.0646
 4854TIP3    H235978   6.757   5.397   5.662  2.2946 -0.1550  0.5546
 4855TIP3   OH235979   2.702   3.112   5.086  0.6455 -0.1913  0.0788
 4855TIP3    H135980   2.608   3.132   5.085  0.6519 -0.1510  0.2934
 4855TIP3    H235981   2.711   3.037   5.144  0.8282  0.2287  0.6037
 4856TIP3   OH235982   2.676   3.970  12.943  0.2404  0.0794  0.2215
 4856TIP3    H135983   2.752   3.978  12.886 -0.0332  0.5548 -0.0865
 4856TIP3    H235984   2.635   4.057  12.941 -0.6426 -0.3277 -0.0831
 4857TIP3   OH235985   2.009   5.399   3.535 -0.1708 -0.0047 -0.3776
 4857TIP3    H135986   2.070   5.472   3.525 -0.5961  0.4714  0.4298
 4857TIP3    H235987   1.953   5.405   3.457 -0.1887  0.5320 -0.3330
 4858TIP3   OH235988   2.884   5.617  12.129  0.4810  0.1157  0.5404
 4858TIP3    H135989   2.910   5.625  12.037 -0.2574  0.9818  0.4002
 4858TIP3    H235990   2.885   5.522  12.145 -0.3534 -0.1328 -0.6620
 4859TIP3   OH235991   3.364   1.852  12.681  0.8336 -0.1652  0.3626
 4859TIP3    H135992   3.380   1.772  12.632  3.2891 -0.7845  1.9696
 4859TIP3    H235993   3.291   1.831  12.739  2.5499 -1.9874  2.0373
 4860TIP3   OH235994   0.738   1.519   4.837  0.0018  0.4322  0.0989
 4860TIP3    H135995   0.733   1.606   4.875 -0.6215  0.2128  0.5330
 4860TIP3    H235996   0.733   1.459   4.912  0.8114  0.0187 -0.1566
 4861TIP3   OH235997   1.048   1.526  11.855  1.6559  0.0056  0.1218
 4861TIP3    H135998   1.009   1.450  11.899  0.8843  0.6675  0.6200
 4861TIP3    H235999   1.093   1.490  11.779  2.5532 -1.1162  1.1446
 4862TIP3   OH236000   0.863   4.065  11.911  0.5699  0.3646  0.1571
 4862TIP3    H136001   0.834   3.975  11.921 -0.8034  1.0141  3.3846
 4862TIP3    H236002   0.801   4.104  11.850 -0.2917 -0.3078  0.5911
 4863TIP3   OH236003   4.245   1.714   1.934 -0.2975  0.3694  0.4991
 4863TIP3    H136004   4.267   1.722   1.841  0.1122 -0.3068  0.5283
 4863TIP3    H236005   4.154   1.743   1.940 -0.7970 -0.9269 -0.3543
 4864TIP3   OH236006   1.535   2.192   5.574  0.4124 -0.3834 -0.0410
 4864TIP3    H136007   1.450   2.236   5.576  1.1668  1.1560  0.2185
 4864TIP3    H236008   1.548   2.171   5.482  1.0793  2.2474 -0.6514
 4865TIP3   OH236009   4.677   2.994  14.059 -0.1490 -0.1810 -0.3103
 4865TIP3    H136010   4.658   3.057  13.990 -1.2053  2.5830  2.2375
 4865TIP3    H236011   4.591   2.963  14.088 -0.3042  2.4548  2.7378
 4866TIP3   OH236012   6.425   4.570   0.648 -0.0994 -0.0513  0.5966
 4866TIP3    H136013   6.502   4.513   0.639 -0.6452 -0.6431 -0.5813
 4866TIP3    H236014   6.405   4.597   0.559 -1.7363 -0.5592  0.7845
 4867TIP3   OH236015   6.309   0.820   0.960 -0.4222  0.5743 -0.1880
 4867TIP3    H136016   6.313   0.913   0.937 -0.6945  0.8496  0.8424
 4867TIP3    H236017   6.232   0.813   1.017  2.2691  0.6731  3.8316
 4868TIP3   OH236018   1.813   4.524   2.834  0.0058 -0.2083 -0.6902
 4868TIP3    H136019   1.868   4.462   2.785  1.7836 -1.0199  2.0753
 4868TIP3    H236020   1.772   4.472   2.902 -0.9991  1.1335 -0.2157
 4869TIP3   OH236021   5.815   5.811   1.629 -0.4213  0.0610  0.3130
 4869TIP3    H136022   5.805   5.906   1.623 -1.7789  0.1306  2.4192
 4869TIP3    H236023   5.725   5.778   1.638  0.0404 -1.4152 -0.1908
 4870TIP3   OH236024   6.643   3.652  12.228  0.3162 -0.1265  0.2507
 4870TIP3    H136025   6.721   3.621  12.182  1.0955  0.7523  0.9331
 4870TIP3    H236026   6.621   3.735  12.185  1.5793  1.1695  1.9225
 4871TIP3   OH236027   0.707   4.252   2.777 -0.7828 -0.0875 -0.2297
 4871TIP3    H136028   0.757   4.196   2.836 -3.0049 -1.5809  0.3723
 4871TIP3    H236029   0.683   4.328   2.831  1.0191  0.7892 -0.6169
 4872TIP3   OH236030   4.860   1.977  12.771 -0.4587 -0.7982 -0.4187
 4872TIP3    H136031   4.892   2.008  12.856  0.8242 -1.9588 -0.4435
 4872TIP3    H236032   4.919   2.017  12.708 -1.4170  0.0681 -0.8039
 4873TIP3   OH236033   2.962   6.137   3.986  0.2566 -0.0272  0.2617
 4873TIP3    H136034   2.936   6.168   4.073  0.6824  1.3337 -0.0700
 4873TIP3    H236035   2.943   6.211   3.928  0.2473 -0.8149 -0.7666
 4874TIP3   OH236036   2.647   0.355   1.201 -1.0139 -0.0347 -0.0769
 4874TIP3    H136037   2.683   0.444   1.202 -0.8527 -0.1004  0.8693
 4874TIP3    H236038   2.721   0.298   1.220 -0.4998 -0.6659 -3.3382
 4875TIP3   OH236039   3.983   0.167  12.672 -0.3579  0.6910 -0.3830
 4875TIP3    H136040   4.061   0.215  12.697 -0.8371  0.8898  0.8047
 4875TIP3    H236041   3.953   0.125  12.753 -1.5569  0.7430 -0.7733
 4876TIP3   OH236042   2.612   0.842   2.164 -0.6928 -0.0787  0.2147
 4876TIP3    H136043   2.671   0.826   2.090 -0.5886  0.4881  0.1704
 4876TIP3    H236044   2.528   0.805   2.136 -0.2688 -1.2821  0.4506
 4877TIP3   OH236045   3.304   5.972  16.610  0.3648 -0.1881  0.0849
 4877TIP3    H136046   3.356   5.979  16.529 -0.1090  0.0648 -0.1961
 4877TIP3    H236047   3.250   6.051  16.611 -1.8115 -1.5933 -0.8741
 4878TIP3   OH236048   2.315   3.698  13.022 -0.4941 -0.1084 -0.1326
 4878TIP3    H136049   2.252   3.656  13.080  0.3608 -0.6923  0.4032
 4878TIP3    H236050   2.292   3.668  12.934 -0.5970 -0.7862  0.1226
 4879TIP3   OH236051   6.322   4.247   3.912 -0.4377 -0.3729  0.4996
 4879TIP3    H136052   6.408   4.284   3.931 -0.9483  1.7385 -0.8862
 4879TIP3    H236053   6.331   4.205   3.827 -0.7415 -0.2301  0.3923
 4880TIP3   OH236054   1.951   0.834   3.310 -0.1166  0.1923 -0.2389
 4880TIP3    H136055   1.987   0.923   3.301 -2.8372  1.2937 -1.4412
 4880TIP3    H236056   1.982   0.804   3.396  1.6300  1.9109 -0.2007
 4881TIP3   OH236057   3.249   6.575  11.997  0.0791  0.1920 -0.2371
 4881TIP3    H136058   3.175   6.608  11.946 -0.1682 -0.9808 -0.6668
 4881TIP3    H236059   3.227   6.598  12.088 -0.6783  0.1088 -0.3899
 4882TIP3   OH236060   3.671   1.250  15.653  0.2592 -0.1620 -0.6832
 4882TIP3    H136061   3.664   1.273  15.745  0.4657  1.9172 -1.1313
 4882TIP3    H236062   3.763   1.267  15.631  0.6055 -2.1313 -0.9415
 4883TIP3   OH236063   5.385   6.577  14.918 -0.2727  0.2863 -0.7119
 4883TIP3    H136064   5.438   6.556  14.996 -1.0302  0.7838 -0.0525
 4883TIP3    H236065   5.360   6.491  14.883 -0.3928  0.0554 -0.0774
 4884TIP3   OH236066   3.260   1.251  12.955 -0.0604 -0.4099  0.7997
 4884TIP3    H136067   3.314   1.176  12.929  1.2152  0.7534 -0.1134
 4884TIP3    H236068   3.321   1.325  12.954 -1.5371  0.8546  0.3952
 4885TIP3   OH236069   4.516   3.131  13.160  0.0079 -0.0558  0.3134
 4885TIP3    H136070   4.431   3.132  13.117 -0.1013  1.4555  0.5133
 4885TIP3    H236071   4.546   3.041  13.152 -0.1335  0.0678 -2.6715
 4886TIP3   OH236072   3.596   6.131  11.997  0.4923 -0.2824  0.2859
 4886TIP3    H136073   3.649   6.165  12.070  1.4901  0.6309 -0.8282
 4886TIP3    H236074   3.577   6.041  12.022 -0.7559  0.5013  2.5280
 4887TIP3   OH236075   0.233   1.188   4.479 -0.5031  0.5557  0.4371
 4887TIP3    H136076   0.311   1.241   4.458  0.2763 -0.2319  1.2725
 4887TIP3    H236077   0.265   1.121   4.540 -1.0747 -2.0094 -1.9079
 4888TIP3   OH236078   4.167   3.758   0.274  0.1760  0.8888 -0.0644
 4888TIP3    H136079   4.171   3.853   0.276 -0.0468  0.8910  0.6549
 4888TIP3    H236080   4.084   3.738   0.230  0.9477  0.9966 -1.6307
 4889TIP3   OH236081   6.141   0.067   6.349 -0.1149 -0.2828 -0.4969
 4889TIP3    H136082   6.224   0.100   6.385 -0.0657 -0.4854 -0.4264
 4889TIP3    H236083   6.120   0.128   6.278  0.4748 -0.6528 -0.9979
 4890TIP3   OH236084   1.779   3.573   2.618  0.2009  0.2551  0.5425
 4890TIP3    H136085   1.751   3.654   2.659 -0.0108  1.1865 -1.3206
 4890TIP3    H236086   1.860   3.596   2.572 -0.4008 -0.2915 -0.8614
 4891TIP3   OH236087   1.346   1.871  13.963  0.5485 -0.4747  0.4921
 4891TIP3    H136088   1.419   1.847  13.906  1.7872  1.2294  1.2788
 4891TIP3    H236089   1.324   1.790  14.009  1.6144 -1.1367 -0.1235
 4892TIP3   OH236090   4.914   1.055  14.553  0.4037 -0.1056 -0.4411
 4892TIP3    H136091   4.930   1.102  14.471  0.7895  0.7680  0.1170
 4892TIP3    H236092   4.953   0.969  14.540  0.5238  0.0537 -1.1456
 4893TIP3   OH236093   0.212   3.556  14.793 -0.0822  0.2252 -0.0435
 4893TIP3    H136094   0.282   3.551  14.858 -0.2856  0.7703  0.2154
 4893TIP3    H236095   0.131   3.545  14.843 -0.3083  1.7805 -0.0326
 4894TIP3   OH236096   6.127   2.744   3.386 -0.2903 -0.5394  0.4944
 4894TIP3    H136097   6.062   2.806   3.353  0.4180  0.1275  0.3195
 4894TIP3    H236098   6.136   2.765   3.479  0.5199  0.1698  0.2742
 4895TIP3   OH236099   5.847   0.325   5.791  0.0406 -0.3227  0.0282
 4895TIP3    H136100   5.811   0.238   5.770  0.6672 -0.5199 -0.2478
 4895TIP3    H236101   5.778   0.367   5.842  0.2372 -1.4515  1.2739
 4896TIP3   OH236102   4.885   2.757   0.225  0.7012  0.1907 -0.4472
 4896TIP3    H136103   4.818   2.816   0.191 -0.3657  0.0508  1.3019
 4896TIP3    H236104   4.939   2.812   0.281  1.2379  0.0162 -0.7865
 4897TIP3   OH236105   3.528   1.361   4.657 -0.6194 -0.1497 -0.1615
 4897TIP3    H136106   3.591   1.429   4.678  1.6632 -2.2710  0.3908
 4897TIP3    H236107   3.446   1.407   4.642  1.2240  2.8878 -1.8632
 4898TIP3   OH236108   2.025   3.220  17.028 -0.2866 -0.0005  0.1410
 4898TIP3    H136109   1.936   3.191  17.047  0.3924 -1.8406  0.6927
 4898TIP3    H236110   2.022   3.250  16.937 -1.4749  0.0053  0.1748
 4899TIP3   OH236111   2.422   3.951   2.995 -0.0738 -0.1358 -0.5103
 4899TIP3    H136112   2.348   3.967   2.936 -2.4689 -0.4236  2.1727
 4899TIP3    H236113   2.384   3.960   3.083  3.8346  3.3224  1.1532
 4900TIP3   OH236114   6.406   0.470  13.851  0.0940 -0.0770 -0.3777
 4900TIP3    H136115   6.394   0.546  13.908 -0.5972 -0.3564 -0.1450
 4900TIP3    H236116   6.323   0.462  13.804  1.1777  1.2025 -2.7499
 4901TIP3   OH236117   2.129   1.235  13.356  0.8109  0.0674  0.2475
 4901TIP3    H136118   2.048   1.214  13.403  0.3467 -0.8440 -0.9238
 4901TIP3    H236119   2.101   1.253  13.267  1.7282  1.4764  0.2255
 4902TIP3   OH236120   0.854   2.410   2.459 -0.2021 -0.2642  0.0481
 4902TIP3    H136121   0.848   2.366   2.374 -0.7573  0.1397 -0.1291
 4902TIP3    H236122   0.879   2.500   2.438 -0.9582  0.0028  0.2577
 4903TIP3   OH236123   4.623   6.129  17.062 -0.3617  0.4617 -0.1283
 4903TIP3    H136124   4.629   6.199  17.127  1.6419  1.2803 -1.0940
 4903TIP3    H236125   4.659   6.052  17.106  0.1268  0.7756  0.0255
 4904TIP3   OH236126   5.224   5.358  15.255 -0.2380  0.2280  0.1296
 4904TIP3    H136127   5.247   5.450  15.240 -0.2683 -0.1550 -2.8419
 4904TIP3    H236128   5.265   5.337  15.339 -0.1923  2.9006  0.8940
 4905TIP3   OH236129   1.248   5.374   3.502  0.6649 -0.3022 -0.0608
 4905TIP3    H136130   1.247   5.470   3.508 -0.7147 -0.2737 -0.4369
 4905TIP3    H236131   1.260   5.345   3.592  1.5321  0.2144  0.0040
 4906TIP3   OH236132   2.725   4.804   3.670  0.2874 -0.2936  0.0274
 4906TIP3    H136133   2.677   4.881   3.639  0.1617 -0.3440  0.0953
 4906TIP3    H236134   2.663   4.732   3.662 -0.6342  0.0728  2.6629
 4907TIP3   OH236135   4.988   4.003   1.192  0.6679  0.3370  0.1935
 4907TIP3    H136136   5.044   4.080   1.190  0.9781  0.1499  1.2924
 4907TIP3    H236137   4.921   4.023   1.257  0.3626 -0.0682  0.0102
 4908TIP3   OH236138   5.298   5.782   3.714 -0.4213  0.0138  0.0374
 4908TIP3    H136139   5.216   5.734   3.701  0.2276 -0.8022 -1.2977
 4908TIP3    H236140   5.284   5.866   3.669 -0.4993 -0.1551 -0.2554
 4909TIP3   OH236141   2.552   6.674   3.323 -0.0448  0.6549  0.1232
 4909TIP3    H136142   2.469   6.658   3.277  0.9314 -0.1493 -1.4268
 4909TIP3    H236143   2.596   6.741   3.271  0.1545  1.3285  1.1296
 4910TIP3   OH236144   3.933   2.675  13.397  0.3048  0.5066  0.1339
 4910TIP3    H136145   3.929   2.736  13.471  0.4871  0.1748  0.4226
 4910TIP3    H236146   4.008   2.704  13.346  0.6655  0.2495  0.5172
 4911TIP3   OH236147   6.499   2.219  13.726 -0.3086 -0.1345 -0.7221
 4911TIP3    H136148   6.436   2.216  13.798 -0.3944 -1.2648 -0.8236
 4911TIP3    H236149   6.559   2.147  13.745  0.2842  0.2221 -1.2336
 4912TIP3   OH236150   3.193   3.933  11.635 -0.4030 -0.1576  0.9591
 4912TIP3    H136151   3.230   3.916  11.721  0.0145  1.8058  1.2092
 4912TIP3    H236152   3.201   3.849  11.588 -2.2463 -1.7920  3.3325
 4913TIP3   OH236153   4.082   3.917  17.392 -0.4643  0.7018  1.0681
 4913TIP3    H136154   4.100   3.831  17.353 -1.0299  0.9040  0.3346
 4913TIP3    H236155   4.162   3.967  17.377 -0.7623  0.8584 -0.1017
 4914TIP3   OH236156   3.669   0.198   2.483 -0.0085  0.2465  0.1100
 4914TIP3    H136157   3.684   0.114   2.441  2.9514  1.5328 -1.7645
 4914TIP3    H236158   3.582   0.225   2.455 -0.0231 -1.1147 -1.2275
 4915TIP3   OH236159   5.002   2.399   3.052 -0.2086  0.0770 -0.6192
 4915TIP3    H136160   5.020   2.335   2.982  2.6392 -0.1054  0.1523
 4915TIP3    H236161   5.003   2.484   3.008 -1.3344 -0.1838 -1.2083
 4916TIP3   OH236162   0.356   1.023  13.942  0.5826  0.3868 -0.4634
 4916TIP3    H136163   0.429   0.971  13.910  0.5436  0.0952 -0.0834
 4916TIP3    H236164   0.376   1.040  14.034  0.8401  1.4731 -0.7061
 4917TIP3   OH236165   1.290   0.547   4.859  0.1616 -0.3043 -0.1437
 4917TIP3    H136166   1.263   0.462   4.825  0.6904  0.0772 -1.5676
 4917TIP3    H236167   1.232   0.563   4.934  0.9617 -2.5409  1.0490
 4918TIP3   OH236168   4.449   3.065   0.871 -0.2641 -0.1447  0.3117
 4918TIP3    H136169   4.362   3.029   0.855  0.2834 -1.1425 -0.6185
 4918TIP3    H236170   4.463   3.125   0.798  0.3477 -1.0304 -0.3196
 4919TIP3   OH236171   1.695   0.581  15.008  0.6105 -0.4223  0.1732
 4919TIP3    H136172   1.749   0.651  15.046 -0.1007 -0.0145  0.4445
 4919TIP3    H236173   1.759   0.521  14.969  1.3612 -0.6196  1.6073
 4920TIP3   OH236174   5.698   2.908   6.480 -0.1897  0.8916 -0.0161
 4920TIP3    H136175   5.687   2.979   6.416 -1.1488  0.2927 -0.5357
 4920TIP3    H236176   5.608   2.879   6.499  0.2336 -1.3031 -1.0759
 4921TIP3   OH236177   5.968   2.043   2.698  0.0886  0.2059  0.0691
 4921TIP3    H136178   5.923   2.082   2.773  0.5272  0.2830  0.2909
 4921TIP3    H236179   5.925   1.958   2.687 -0.5618  0.5489 -0.1343
 4922TIP3   OH236180   4.594   1.354   3.137  0.3655 -0.3867 -0.5654
 4922TIP3    H136181   4.647   1.409   3.196  0.9055 -0.6144 -0.8280
 4922TIP3    H236182   4.523   1.321   3.192  1.6924 -1.8198  0.3897
 4923TIP3   OH236183   0.745   0.318   1.088  0.5035 -0.1217 -0.0173
 4923TIP3    H136184   0.708   0.354   1.008 -0.4439 -0.8731  0.0693
 4923TIP3    H236185   0.774   0.394   1.137  1.1003  0.3468 -1.0697
 4924TIP3   OH236186   6.109   2.688  12.554 -0.2404  0.0635  0.4197
 4924TIP3    H136187   6.115   2.610  12.609  0.3449  0.6780  1.2668
 4924TIP3    H236188   6.058   2.750  12.606  0.6806  0.8007  0.4729
 4925TIP3   OH236189   1.317   0.268  14.999 -0.4136 -0.2962  0.1655
 4925TIP3    H136190   1.380   0.307  15.060  0.1335 -0.6603 -0.1594
 4925TIP3    H236191   1.296   0.339  14.937 -1.9486  0.4696  1.4957
 4926TIP3   OH236192   5.467   5.654  13.448 -0.2212 -0.1318  0.2847
 4926TIP3    H136193   5.500   5.573  13.410 -0.3673  0.2585 -0.7100
 4926TIP3    H236194   5.536   5.719  13.430 -0.1805  0.0013  0.9160
 4927TIP3   OH236195   5.447   2.865   1.226  0.5383 -0.0766 -0.3084
 4927TIP3    H136196   5.433   2.778   1.189 -1.0634  0.2435 -0.5373
 4927TIP3    H236197   5.495   2.849   1.308  0.2683 -1.1600 -0.3477
 4928TIP3   OH236198   5.371   0.758  13.264  0.8471  0.1029 -0.4019
 4928TIP3    H136199   5.388   0.674  13.222 -0.5331 -0.8288  0.8049
 4928TIP3    H236200   5.327   0.736  13.346  0.3378  2.0086 -0.1079
 4929TIP3   OH236201   2.125   1.031   1.264 -0.0230 -0.6643 -0.2771
 4929TIP3    H136202   2.086   1.038   1.351 -2.1062 -0.1926 -1.1949
 4929TIP3    H236203   2.099   0.944   1.233  2.0798 -1.4989  0.1525
 4930TIP3   OH236204   2.860   2.849  14.131 -0.0544 -0.1380 -0.6236
 4930TIP3    H136205   2.791   2.862  14.066 -0.9046  1.0224  0.4537
 4930TIP3    H236206   2.846   2.760  14.164  0.2058 -0.6268 -1.7918
 4931TIP3   OH236207   6.506   5.884   5.422  0.0669 -0.2829 -0.4585
 4931TIP3    H136208   6.536   5.881   5.513  1.0545 -3.6638 -0.7626
 4931TIP3    H236209   6.430   5.827   5.420 -0.0638 -0.0837 -1.7325
 4932TIP3   OH236210   5.009   0.137   5.202 -0.0806  0.2629 -0.6339
 4932TIP3    H136211   4.965   0.111   5.283 -1.2061  1.3891 -0.8645
 4932TIP3    H236212   5.092   0.090   5.205 -0.0485  0.3387  1.2166
 4933TIP3   OH236213   4.747   4.733   4.768  0.4786 -0.2868  0.1225
 4933TIP3    H136214   4.698   4.799   4.719  1.3664  0.3340  0.0359
 4933TIP3    H236215   4.701   4.727   4.852  0.5540  0.6736  0.2498
 4934TIP3   OH236216   3.006   1.961  16.675 -0.4552 -0.6132  0.0658
 4934TIP3    H136217   2.922   1.932  16.711 -2.0031  0.7727 -2.1974
 4934TIP3    H236218   2.985   2.039  16.625  1.7968 -1.4428 -2.4091
 4935TIP3   OH236219   2.770   2.722   0.991 -0.8598  0.0634  0.0749
 4935TIP3    H136220   2.830   2.774   1.045  0.0446 -0.3260 -0.5308
 4935TIP3    H236221   2.733   2.658   1.051 -1.0114  0.5917  0.5540
 4936TIP3   OH236222   4.191   1.535  12.701 -0.3360  0.1075  0.5114
 4936TIP3    H136223   4.120   1.578  12.652 -0.1681 -1.4598 -1.2080
 4936TIP3    H236224   4.242   1.608  12.738 -2.2056  1.2916  0.9197
 4937TIP3   OH236225   5.007   0.671   5.455 -0.1232 -0.0113 -0.7910
 4937TIP3    H136226   4.971   0.732   5.520 -2.3213 -0.4305 -1.5480
 4937TIP3    H236227   5.083   0.718   5.419  1.5832  0.0005  2.4093
 4938TIP3   OH236228   1.359   2.993  15.774 -0.4503 -0.1448 -0.2677
 4938TIP3    H136229   1.276   2.982  15.820  0.8278 -1.1736  1.9502
 4938TIP3    H236230   1.353   3.081  15.736 -2.3740 -0.0454  0.1457
 4939TIP3   OH236231   6.043   0.427  13.964 -0.7512  0.5377 -0.0819
 4939TIP3    H136232   6.007   0.354  14.013 -1.5662  1.5930  0.9619
 4939TIP3    H236233   6.109   0.465  14.022 -1.7775  1.8476  0.2983
 4940TIP3   OH236234   6.664   2.604  14.927  0.0168 -0.1123  0.6807
 4940TIP3    H136235   6.636   2.570  15.012 -0.0998 -2.2488 -0.1481
 4940TIP3    H236236   6.748   2.562  14.911  0.1565  0.4655 -0.1424
 4941TIP3   OH236237   1.950   2.777   3.117 -0.6588 -0.5398  0.0894
 4941TIP3    H136238   1.900   2.842   3.166 -1.0999 -0.7685 -0.0518
 4941TIP3    H236239   2.009   2.829   3.063 -0.6646 -0.2695  0.3392
 4942TIP3   OH236240   1.782   2.938   3.291 -0.4660 -0.5293 -0.2347
 4942TIP3    H136241   1.699   2.963   3.251 -0.3108 -1.3663 -1.1160
 4942TIP3    H236242   1.802   3.010   3.351 -1.0875  0.4024 -1.1051
 4943TIP3   OH236243   6.048   0.891   4.569 -0.6788  0.2224  0.4307
 4943TIP3    H136244   5.955   0.888   4.548 -0.0677 -0.6778 -2.6224
 4943TIP3    H236245   6.073   0.799   4.582  0.3322  0.0500 -2.0900
 4944TIP3   OH236246   2.052   2.299   4.861 -0.2456  0.0612 -0.1178
 4944TIP3    H136247   2.111   2.332   4.928  0.7420 -0.4890 -0.6837
 4944TIP3    H236248   2.108   2.287   4.784 -1.2097  0.0326 -0.8328
 4945TIP3   OH236249   1.102   0.191  15.212 -0.2220 -0.5185 -0.7846
 4945TIP3    H136250   1.008   0.209  15.221  0.3169  2.5168 -0.1025
 4945TIP3    H236251   1.127   0.237  15.132  0.8307 -0.6182 -0.5260
 4946TIP3   OH236252   0.011   3.315   1.636 -0.0810 -0.3045  0.2109
 4946TIP3    H136253   0.021   3.263   1.556 -1.4680 -0.4140  0.0825
 4946TIP3    H236254  -0.083   3.313   1.654  0.1488  0.1452  1.5688
 4947TIP3   OH236255   3.901   2.290  12.748 -0.2565 -0.4862 -0.0210
 4947TIP3    H136256   3.852   2.282  12.830 -0.7584 -0.8866 -0.3625
 4947TIP3    H236257   3.927   2.382  12.745  0.7114 -0.6883  1.1296
 4948TIP3   OH236258   6.603   2.835   1.897  0.2011  0.1241 -0.1700
 4948TIP3    H136259   6.545   2.788   1.837 -0.2813  0.0635  0.3364
 4948TIP3    H236260   6.626   2.769   1.963 -0.1808  0.4915  0.3366
 4949TIP3   OH236261   1.930   1.121  13.130 -0.8675 -0.4275  0.1699
 4949TIP3    H136262   1.964   1.208  13.107 -0.7258 -0.9526 -1.7867
 4949TIP3    H236263   1.900   1.130  13.220  1.1594  1.0562  0.7713
 4950TIP3   OH236264   5.764   0.093  17.088  0.1695 -0.2358 -0.6144
 4950TIP3    H136265   5.684   0.124  17.047  0.4640  0.9013 -0.3609
 4950TIP3    H236266   5.819   0.064  17.015  0.0078  0.1223 -0.8802
 4951TIP3   OH236267   4.749   4.472   0.196  0.5790 -1.4130 -0.4689
 4951TIP3    H136268   4.717   4.456   0.107 -0.4097 -2.7739  0.0927
 4951TIP3    H236269   4.819   4.409   0.209  1.9133 -0.0558 -0.8509
 4952TIP3   OH236270   5.792   1.291  13.611 -0.2717 -0.0708 -0.2009
 4952TIP3    H136271   5.761   1.323  13.696 -0.2767  2.2216 -0.9932
 4952TIP3    H236272   5.734   1.217  13.591  0.0900 -1.0233  1.9995
 4953TIP3   OH236273   6.501   4.793  16.318  0.7675  0.8164 -0.2058
 4953TIP3    H136274   6.412   4.775  16.349  0.4861 -0.1851 -1.5268
 4953TIP3    H236275   6.552   4.802  16.398 -0.2162 -0.2326  0.5844
 4954TIP3   OH236276   3.876   2.209   4.510 -0.6165 -0.1230  0.7308
 4954TIP3    H136277   3.795   2.173   4.548 -0.2447  0.5915  2.2729
 4954TIP3    H236278   3.939   2.206   4.581  0.6682 -0.4314 -0.3877
 4955TIP3   OH236279   6.548   5.689  12.476  0.3251  0.0629 -0.2951
 4955TIP3    H136280   6.627   5.638  12.494 -0.6312 -1.5292 -0.4436
 4955TIP3    H236281   6.498   5.637  12.413 -2.6721 -0.9478  2.6336
 4956TIP3   OH236282   0.239   6.427  11.155  0.2586 -0.7247 -0.0996
 4956TIP3    H136283   0.201   6.339  11.142 -0.5550 -0.4055  0.0779
 4956TIP3    H236284   0.192   6.482  11.093 -0.1640 -0.1512  0.7288
 4957TIP3   OH236285   5.601   3.774  15.629 -0.4143 -0.0224 -0.7114
 4957TIP3    H136286   5.580   3.816  15.546 -1.0997  0.7321 -0.1713
 4957TIP3    H236287   5.697   3.773  15.632 -0.3884  0.0602 -1.4447
 4958TIP3   OH236288   0.634   1.525   2.557 -0.2933 -0.3382  0.2613
 4958TIP3    H136289   0.595   1.609   2.578  0.0722 -0.1929  0.3755
 4958TIP3    H236290   0.643   1.525   2.462  2.6369  1.1115  0.4405
 4959TIP3   OH236291   1.788   1.415  15.196 -0.4680  0.0478 -0.6328
 4959TIP3    H136292   1.755   1.504  15.193 -0.9492 -0.1294 -0.6858
 4959TIP3    H236293   1.881   1.424  15.220 -0.5771  0.5442 -0.3973
 4960TIP3   OH236294   0.200   4.018   3.267 -0.1092 -0.2256  0.4165
 4960TIP3    H136295   0.226   3.976   3.185 -0.8386 -1.0007  0.5661
 4960TIP3    H236296   0.179   3.946   3.326 -1.4523  0.3249  0.6611
 4961TIP3   OH236297   4.194   5.602  15.894  0.0658 -0.3266  0.0551
 4961TIP3    H136298   4.099   5.611  15.886 -0.2217 -1.8478  1.2180
 4961TIP3    H236299   4.228   5.690  15.879 -1.3703 -0.0594 -2.0468
 4962TIP3   OH236300   0.241   2.356   4.228 -0.2128 -0.4690 -0.1028
 4962TIP3    H136301   0.194   2.393   4.153  2.2501  1.7105 -0.7183
 4962TIP3    H236302   0.273   2.271   4.197 -0.2188 -0.1179 -1.1173
 4963TIP3   OH236303   0.184   2.088   0.043  0.1034  0.1573 -0.2373
 4963TIP3    H136304   0.172   2.176   0.080 -0.5277 -0.1705  0.3789
 4963TIP3    H236305   0.278   2.081   0.028  0.3193  0.5150  0.8201
 4964TIP3   OH236306   3.368   1.352  13.277  0.0671 -0.0601  0.0467
 4964TIP3    H136307   3.388   1.270  13.321  0.2854 -0.4421 -0.7312
 4964TIP3    H236308   3.453   1.397  13.270 -0.0263  0.1609  0.3404
 4965TIP3   OH236309   6.465   0.724   5.328 -0.0444 -0.1974 -0.7943
 4965TIP3    H136310   6.553   0.692   5.347  0.3074  1.5150  0.6928
 4965TIP3    H236311   6.471   0.819   5.339 -2.4508 -0.1710  1.0463
 4966TIP3   OH236312   5.889   4.864  14.799 -0.1511 -0.6714 -0.1432
 4966TIP3    H136313   5.801   4.852  14.835  0.4284 -2.4777  0.8004
 4966TIP3    H236314   5.936   4.916  14.865 -0.9763  1.9514 -1.5038
 4967TIP3   OH236315   6.399   0.842  11.914  0.4395  0.1904  0.2814
 4967TIP3    H136316   6.449   0.809  11.989 -0.1784  0.9163  1.0349
 4967TIP3    H236317   6.371   0.929  11.941 -1.7316 -0.4105  0.1541
 4968TIP3   OH236318   2.195   3.829  14.025 -0.1387  0.1168  0.3632
 4968TIP3    H136319   2.199   3.921  14.050  0.7732 -0.3383  2.0069
 4968TIP3    H236320   2.283   3.809  13.994 -0.2106 -0.3304  0.4461
 4969TIP3   OH236321   4.314   5.527   0.467  0.4545  0.5026  0.3807
 4969TIP3    H136322   4.286   5.449   0.514  2.2604  0.2504  1.1288
 4969TIP3    H236323   4.354   5.495   0.387  1.3718  0.6121  0.7768
 4970TIP3   OH236324   0.365   5.940  15.912  0.2655 -0.0883  0.3100
 4970TIP3    H136325   0.329   5.919  15.826  1.9155 -1.1196 -0.1852
 4970TIP3    H236326   0.332   5.870  15.969  1.2332 -0.9028 -0.0922
 4971TIP3   OH236327   5.302   2.314   5.010  0.6976 -0.1507 -0.5501
 4971TIP3    H136328   5.288   2.400   4.970 -3.6829 -0.1145  0.5850
 4971TIP3    H236329   5.373   2.276   4.959 -0.3568  2.2826 -4.2651
 4972TIP3   OH236330   4.419   3.434  13.440  0.0295  0.1793 -0.0951
 4972TIP3    H136331   4.459   3.469  13.361 -2.1325 -0.3832 -1.5346
 4972TIP3    H236332   4.405   3.511  13.495  4.4289  0.2539  1.3078
 4973TIP3   OH236333   2.280   1.189   1.072 -0.0853  0.1710 -0.0950
 4973TIP3    H136334   2.245   1.133   1.140 -1.5387 -0.2374 -1.1430
 4973TIP3    H236335   2.272   1.278   1.108  0.0809 -0.1072  0.6466
 4974TIP3   OH236336   4.459   1.664  15.867  0.6988 -0.2227  0.7534
 4974TIP3    H136337   4.483   1.726  15.798 -1.3165 -0.4543 -0.2408
 4974TIP3    H236338   4.542   1.641  15.908  2.4236 -1.8181 -3.0761
 4975TIP3   OH236339   5.081   3.895  17.123 -0.0370  0.0657 -0.5362
 4975TIP3    H136340   5.024   3.971  17.113  0.6330  0.8821  1.3960
 4975TIP3    H236341   5.024   3.820  17.107 -0.7638  0.9452 -2.2356
 4976TIP3   OH236342   4.884   0.744  11.957 -0.1371  0.3345 -0.3187
 4976TIP3    H136343   4.861   0.714  12.045  0.6252  0.9138  0.0882
 4976TIP3    H236344   4.803   0.783  11.923 -0.5950 -0.4240 -0.1067
 4977TIP3   OH236345   4.586   1.962  13.084 -0.3960 -0.3227 -0.0245
 4977TIP3    H136346   4.495   1.987  13.066 -0.1859  1.2064  0.8781
 4977TIP3    H236347   4.580   1.910  13.164 -0.3875  0.5854  0.5740
 4978TIP3   OH236348   0.538   1.495   1.009  0.3218  0.7616  0.0751
 4978TIP3    H136349   0.449   1.494   0.974  1.0002 -1.1993 -1.8440
 4978TIP3    H236350   0.594   1.510   0.933  1.7888 -1.7809  0.5275
 4979TIP3   OH236351   1.814   2.487  17.330 -0.0563  0.1780 -0.3654
 4979TIP3    H136352   1.731   2.442  17.313 -0.2602  0.7330 -0.8789
 4979TIP3    H236353   1.859   2.431  17.393 -0.2279 -0.8355 -1.1229
 4980TIP3   OH236354   5.404   4.573  13.638 -0.0452 -0.1119  0.4534
 4980TIP3    H136355   5.444   4.593  13.723  0.4862 -2.0051  0.6935
 4980TIP3    H236356   5.469   4.601  13.574  1.4092 -2.3454  0.8197
 4981TIP3   OH236357   0.993   3.441   5.715  0.2067  0.2595  0.1220
 4981TIP3    H136358   0.958   3.352   5.715 -0.7218  0.4792 -3.4451
 4981TIP3    H236359   1.087   3.430   5.729  0.0434 -1.2317  0.1620
 4982TIP3   OH236360   5.943   4.896  13.842  0.8639 -0.0696  0.2315
 4982TIP3    H136361   5.923   4.817  13.791  0.1436  0.9167 -1.0536
 4982TIP3    H236362   5.980   4.957  13.778  1.3336  0.6820  1.1983
 4983TIP3   OH236363   6.253   0.999   5.627 -0.0055  0.0769  0.0799
 4983TIP3    H136364   6.200   0.972   5.703 -1.0396 -0.5960 -0.8471
 4983TIP3    H236365   6.343   0.984   5.654 -0.3214  0.4274  1.3928
 4984TIP3   OH236366   3.444   4.343  14.076  0.2294 -0.5571 -0.4444
 4984TIP3    H136367   3.373   4.332  14.012  1.4615 -2.5695 -1.5407
 4984TIP3    H236368   3.523   4.317  14.030  1.7331  1.4412  0.8175
 4985TIP3   OH236369   5.085   4.841   5.617  0.0545 -0.5783  0.0458
 4985TIP3    H136370   5.113   4.815   5.705 -0.2155 -0.0847  0.2808
 4985TIP3    H236371   5.010   4.785   5.599 -1.7008  1.2277  1.3035
 4986TIP3   OH236372   3.599   6.151  16.540 -0.0717 -0.3132 -0.2982
 4986TIP3    H136373   3.594   6.242  16.568 -1.7755 -0.7365  0.9062
 4986TIP3    H236374   3.516   6.135  16.495  0.1124 -1.3357 -0.3081
 4987TIP3   OH236375   2.972   0.331  17.022 -0.1515 -0.1070 -0.0972
 4987TIP3    H136376   2.941   0.307  17.110 -2.2442  1.4556 -0.3297
 4987TIP3    H236377   3.065   0.349  17.034 -0.0942 -1.2427  1.5002
 4988TIP3   OH236378   1.448   2.797   0.670 -0.3850 -0.2889  0.3603
 4988TIP3    H136379   1.498   2.875   0.648 -2.2997  0.9880  0.2763
 4988TIP3    H236380   1.462   2.738   0.596  1.7398 -0.4032  0.8094
 4989TIP3   OH236381   6.743   6.527  12.034 -0.4562 -0.2406  0.2164
 4989TIP3    H136382   6.797   6.454  12.064 -1.0722 -0.9324 -0.3498
 4989TIP3    H236383   6.766   6.537  11.941 -0.2222  0.4303  0.3389
 4990TIP3   OH236384   4.593   1.788  17.291  0.6204  0.0196  0.1254
 4990TIP3    H136385   4.531   1.778  17.363  1.0289  0.0050  0.4818
 4990TIP3    H236386   4.669   1.736  17.318  1.2383  0.9552  0.2144
 4991TIP3   OH236387   4.200   4.756  16.980  0.0161  0.1316 -0.2703
 4991TIP3    H136388   4.115   4.714  16.989  0.5922 -0.7494  1.4723
 4991TIP3    H236389   4.257   4.686  16.946  0.6906 -0.1789  1.4242
 4992TIP3   OH236390   2.376   3.112  15.540 -0.2443  0.2318 -0.7520
 4992TIP3    H136391   2.391   3.204  15.564 -3.6217  1.0999 -1.5485
 4992TIP3    H236392   2.354   3.069  15.623 -0.0818  0.4546 -0.5901
 4993TIP3   OH236393   1.819   6.474   4.886  0.2022 -0.2761  0.5831
 4993TIP3    H136394   1.836   6.395   4.834  0.6197 -0.4031  0.9070
 4993TIP3    H236395   1.902   6.493   4.929  0.9191  1.9302 -1.5834
 4994TIP3   OH236396   5.765   2.481  12.770 -0.3140 -0.3402 -0.3180
 4994TIP3    H136397   5.751   2.412  12.704 -2.4670 -0.1943 -0.0946
 4994TIP3    H236398   5.859   2.478  12.788 -0.3974 -3.7832  0.2775
 4995TIP3   OH236399   0.562   6.303  14.937 -0.0662 -0.8073 -0.0755
 4995TIP3    H136400   0.528   6.379  14.890  1.3749 -0.7874 -1.1219
 4995TIP3    H236401   0.641   6.335  14.981  0.8645 -1.8059 -0.9685
 4996TIP3   OH236402   3.322   3.625  12.739  0.5588  0.0430  1.1046
 4996TIP3    H136403   3.255   3.685  12.773  0.4094  0.9057 -0.5810
 4996TIP3    H236404   3.402   3.676  12.737  0.0888  0.8706 -1.9291
 4997TIP3   OH236405   0.035   3.066   3.287  0.1950  0.8359  0.1218
 4997TIP3    H136406   0.024   3.160   3.302 -1.5639  0.3640  2.3793
 4997TIP3    H236407  -0.040   3.026   3.332 -0.7814 -1.5095 -3.2258
 4998TIP3   OH236408   1.713   3.524  14.030 -0.2464  0.0685  0.2543
 4998TIP3    H136409   1.686   3.446  14.077  0.5402 -0.0570  0.5162
 4998TIP3    H236410   1.635   3.579  14.027 -0.4616 -0.1682  1.2126
 4999TIP3   OH236411   5.168   4.502  13.560  0.2014 -0.0106  0.2201
 4999TIP3    H136412   5.250   4.530  13.599  0.9692 -0.4033 -1.0505
 4999TIP3    H236413   5.192   4.467  13.474 -1.2228 -0.6265  0.0268
 5000TIP3   OH236414   3.972   0.691  15.742  0.0101  0.2436  0.2340
 5000TIP3    H136415   3.997   0.728  15.657  0.5065 -2.0745 -0.7278
 5000TIP3    H236416   3.910   0.621  15.720 -1.4002  0.8616  1.9905
 5001TIP3   OH236417   4.895   0.842   5.626  0.3694  0.6783 -0.1902
 5001TIP3    H136418   4.802   0.861   5.636  0.7028  2.4402 -0.2190
 5001TIP3    H236419   4.937   0.927   5.619  2.3847  0.1285  3.0144
 5002TIP3   OH236420   2.980   5.536  14.670 -0.4985  0.2054  0.3358
 5002TIP3    H136421   3.067   5.502  14.689  0.2484 -0.0369 -2.9114
 5002TIP3    H236422   2.991   5.631  14.664 -0.3321  0.1449 -0.4549
 5003TIP3   OH236423   4.201   3.088   1.661 -0.0300  0.0190  0.2775
 5003TIP3    H136424   4.237   3.152   1.600  1.2754 -0.3591  0.6348
 5003TIP3    H236425   4.258   3.092   1.738 -2.6675  1.8566  2.3634
 5004TIP3   OH236426   2.744   1.739   4.714 -0.7094 -0.4694 -0.5791
 5004TIP3    H136427   2.791   1.814   4.750 -1.2196  0.8459 -2.4468
 5004TIP3    H236428   2.659   1.775   4.686 -1.4815 -2.0386 -0.3905
 5005TIP3   OH236429   5.853   6.358   2.379  0.4941 -0.2127  0.5691
 5005TIP3    H136430   5.764   6.325   2.372 -0.0228  0.4497  3.0312
 5005TIP3    H236431   5.906   6.295   2.329 -1.2077 -1.1896 -0.0834
 5006TIP3   OH236432   3.124   0.299   5.080 -0.0730 -0.3856  0.6053
 5006TIP3    H136433   3.074   0.265   5.154  1.9557 -0.5559  1.9866
 5006TIP3    H236434   3.178   0.225   5.051  0.8186  0.3012  0.4513
 5007TIP3   OH236435   0.249   2.977   0.390  0.3683 -0.2697 -0.7365
 5007TIP3    H136436   0.334   2.979   0.346  0.7423 -1.1470 -0.0689
 5007TIP3    H236437   0.238   3.066   0.423  2.0621 -0.6662  1.0800
 5008TIP3   OH236438   6.588   0.163   6.701  0.2403  0.2878  0.5553
 5008TIP3    H136439   6.600   0.068   6.707  0.1261  0.2509  0.2126
 5008TIP3    H236440   6.534   0.185   6.777 -1.8839 -0.2921 -0.7032
 5009TIP3   OH236441   3.811   4.358   6.550 -0.1990 -0.2216 -0.1708
 5009TIP3    H136442   3.742   4.294   6.530 -0.1114 -0.1243 -0.7963
 5009TIP3    H236443   3.891   4.317   6.519 -0.0871  0.0197 -0.2046
 5010TIP3   OH236444   4.031   4.815   0.188  0.0901 -0.0512  0.8120
 5010TIP3    H136445   4.079   4.775   0.115 -0.7689  0.6173 -0.1449
 5010TIP3    H236446   4.046   4.756   0.262  0.3024 -1.1826 -0.1113
 5011TIP3   OH236447   5.692   5.155  14.429  0.4571 -0.5520 -0.0450
 5011TIP3    H136448   5.703   5.061  14.446  1.8164 -0.1972  1.2337
 5011TIP3    H236449   5.744   5.198  14.496 -0.3873  1.1517 -0.4239
 5012TIP3   OH236450   6.382   0.563   1.923 -0.3194 -0.8689  0.6992
 5012TIP3    H136451   6.453   0.550   1.986 -1.6184 -3.8101  1.7271
 5012TIP3    H236452   6.321   0.621   1.969 -0.3151 -1.3584  1.3365
 5013TIP3   OH236453   4.794   5.666  12.567  0.5001 -0.3890 -0.2104
 5013TIP3    H136454   4.811   5.749  12.612  0.7634  0.1318 -1.2373
 5013TIP3    H236455   4.875   5.616  12.578  0.3612 -0.4963  0.3633
 5014TIP3   OH236456   4.772   5.705  16.109 -0.5827  0.2302 -0.5267
 5014TIP3    H136457   4.823   5.700  16.190  0.0222 -2.4815 -1.0121
 5014TIP3    H236458   4.816   5.647  16.048 -2.6487 -0.0325 -1.8853
 5015TIP3   OH236459   0.471   3.976   1.919  0.7138  0.1157 -0.1667
 5015TIP3    H136460   0.399   3.960   1.859  0.8497  0.4303 -0.4160
 5015TIP3    H236461   0.548   3.940   1.874  0.9422  1.0277 -0.5193
 5016TIP3   OH236462   1.433   6.121   1.993 -0.3369  0.0650 -0.2744
 5016TIP3    H136463   1.373   6.057   1.954 -0.3687  0.0270 -0.1655
 5016TIP3    H236464   1.386   6.155   2.069  0.1969 -0.7760  0.4675
 5017TIP3   OH236465   3.289   1.637   2.912 -0.4681 -0.4511  0.1081
 5017TIP3    H136466   3.303   1.686   2.831  0.8927  1.2744  1.3234
 5017TIP3    H236467   3.205   1.592   2.898 -0.7275  0.5340 -1.8851
 5018TIP3   OH236468   4.101   2.268  15.642 -1.0869 -0.5884 -0.2570
 5018TIP3    H136469   4.034   2.280  15.710 -1.6375  0.0074 -0.8786
 5018TIP3    H236470   4.095   2.175  15.619 -2.5210 -0.3166 -1.1024
 5019TIP3   OH236471   0.674   5.233   4.976 -0.5590  0.6902  0.5888
 5019TIP3    H136472   0.605   5.267   5.034 -0.8015 -0.0094  0.7223
 5019TIP3    H236473   0.626   5.191   4.905 -0.2654  0.5575  0.4705
 5020TIP3   OH236474   3.184   2.441  11.431  0.0738  0.5103 -0.0829
 5020TIP3    H136475   3.185   2.346  11.447 -2.6310  0.7706  2.9338
 5020TIP3    H236476   3.109   2.454  11.373 -1.2111  0.8523  1.5409
 5021TIP3   OH236477   4.567   1.658   3.678 -0.3946  0.3784 -0.0166
 5021TIP3    H136478   4.609   1.572   3.672  0.6545  0.7446  1.4292
 5021TIP3    H236479   4.594   1.704   3.598 -0.5708 -0.4539 -0.5671
 5022TIP3   OH236480   1.887   1.802  12.477 -0.2539 -0.3244 -0.0745
 5022TIP3    H136481   1.842   1.780  12.396 -0.9378 -2.1079  0.7487
 5022TIP3    H236482   1.968   1.751  12.475  0.0495  0.1387  0.0760
 5023TIP3   OH236483   0.966   0.148   1.244 -0.1089  0.0407 -0.3902
 5023TIP3    H136484   0.910   0.192   1.180  0.4627 -1.3869 -1.9408
 5023TIP3    H236485   0.986   0.215   1.310  0.2660  1.9259 -2.3407
 5024TIP3   OH236486   3.245   6.473   3.112 -0.1218  0.7794  0.0812
 5024TIP3    H136487   3.181   6.413   3.075 -2.1322  2.8717 -0.0865
 5024TIP3    H236488   3.236   6.553   3.061  0.4486  2.1534  1.9885
 5025TIP3   OH236489   0.238   4.786   4.080 -0.3016 -0.5254 -0.2585
 5025TIP3    H136490   0.152   4.827   4.069 -1.2815 -2.4082 -0.2118
 5025TIP3    H236491   0.257   4.795   4.173 -0.6597 -0.4585 -0.1885
 5026TIP3   OH236492   1.235   2.505  16.022 -0.0914  0.4070 -0.1385
 5026TIP3    H136493   1.240   2.436  16.088 -1.3389  0.8545  0.4458
 5026TIP3    H236494   1.152   2.549  16.038 -0.5907  0.3334 -2.2158
 5027TIP3   OH236495   3.895   4.103   0.373 -0.3212 -0.2704 -0.2487
 5027TIP3    H136496   3.856   4.190   0.372  1.5459  0.6149 -0.8367
 5027TIP3    H236497   3.926   4.090   0.283  0.3229 -1.1043  0.0796
 5028TIP3   OH236498   4.898   3.597  10.630  0.3127 -0.4662  0.9296
 5028TIP3    H136499   4.924   3.516  10.675  1.3040 -0.1382  0.9680
 5028TIP3    H236500   4.966   3.610  10.564  0.9187  1.0490  1.8045
 5029TIP3   OH236501   2.913   2.146   2.978  0.4868 -0.2884 -0.0943
 5029TIP3    H136502   2.913   2.061   2.935  0.2311 -0.5733  0.4585
 5029TIP3    H236503   2.821   2.174   2.975  0.2739 -0.7888  1.1807
 5030TIP3   OH236504   3.364   3.301   4.838 -0.6728  0.2084 -0.4240
 5030TIP3    H136505   3.359   3.207   4.854 -0.0114  0.2103 -0.1695
 5030TIP3    H236506   3.347   3.340   4.924  2.8892  0.2214  0.4257
 5031TIP3   OH236507   1.747   1.187  13.965  0.0418  0.2487  0.1879
 5031TIP3    H136508   1.826   1.237  13.985 -0.0472  0.0929  0.9652
 5031TIP3    H236509   1.753   1.168  13.872 -0.3448  2.4467 -0.3369
 5032TIP3   OH236510   1.188   5.899  13.593  0.1516  0.1669 -0.8126
 5032TIP3    H136511   1.240   5.820  13.574 -2.0008 -1.2490 -1.1335
 5032TIP3    H236512   1.110   5.866  13.637 -0.1079  2.3176  0.4696
 5033TIP3   OH236513   5.962   0.184   0.660  0.2181 -0.1112  0.4516
 5033TIP3    H136514   5.932   0.124   0.592  1.1979 -0.8135  0.6182
 5033TIP3    H236515   5.882   0.209   0.707 -0.8336  2.0783 -2.2232
 5034TIP3   OH236516   3.877   2.060  10.825 -0.0520  0.2408  0.0915
 5034TIP3    H136517   3.955   2.018  10.789 -0.6009 -0.9503  0.2490
 5034TIP3    H236518   3.821   2.078  10.750  0.7906  2.0812 -0.1548
 5035TIP3   OH236519   1.691   1.255   3.484  0.4792  0.2748  0.6536
 5035TIP3    H136520   1.660   1.203   3.410 -2.0688  0.6601  1.3557
 5035TIP3    H236521   1.773   1.212   3.510  1.6356  0.2885 -2.4762
 5036TIP3   OH236522   1.323   5.384   0.206  0.0857 -0.7041 -0.2102
 5036TIP3    H136523   1.303   5.320   0.274 -0.2216 -0.7580 -0.3469
 5036TIP3    H236524   1.299   5.340   0.124  0.2892 -0.5783 -0.3371
 5037TIP3   OH236525   4.262   5.555  17.386 -0.1342 -0.3294  0.4830
 5037TIP3    H136526   4.249   5.634  17.437  0.5947  0.3585 -0.3460
 5037TIP3    H236527   4.179   5.508  17.392 -0.6268  0.5595  0.8774
 5038TIP3   OH236528   5.955   5.034   0.233 -0.3422  0.5188 -0.1914
 5038TIP3    H136529   5.905   4.995   0.304  1.6461  0.3175  1.1445
 5038TIP3    H236530   6.009   4.963   0.199 -0.2174  0.9660 -0.9584
 5039TIP3   OH236531   0.003   0.011   5.663 -0.2579  0.2302 -0.0347
 5039TIP3    H136532   0.064  -0.062   5.676 -0.6314 -0.1373 -0.3005
 5039TIP3    H236533   0.008   0.030   5.569 -0.1495  0.5582  0.0366
 5040TIP3   OH236534   3.581   4.476   0.179 -0.4739  0.4282  0.1082
 5040TIP3    H136535   3.493   4.461   0.212 -0.0975  0.5622  1.2110
 5040TIP3    H236536   3.613   4.552   0.228  1.1504 -1.0832  1.5251
 5041TIP3   OH236537   5.459   1.620  16.121 -0.4963 -0.1378 -0.1277
 5041TIP3    H136538   5.550   1.591  16.117 -0.4320 -0.2420  1.3765
 5041TIP3    H236539   5.447   1.674  16.043  1.1641  0.7280  0.1643
 5042TIP3   OH236540   4.060   0.109   1.980  0.2075  0.1160  0.8972
 5042TIP3    H136541   4.092   0.026   1.945 -0.7660 -0.2160  0.7565
 5042TIP3    H236542   4.057   0.167   1.904  0.0209  0.0040  0.8184
 5043TIP3   OH236543   5.173   4.567  15.214 -0.0647 -0.1385 -0.1522
 5043TIP3    H136544   5.102   4.566  15.150 -0.5086 -0.4029  0.3243
 5043TIP3    H236545   5.251   4.542  15.165 -0.5954 -1.4320 -0.3745
 5044TIP3   OH236546   4.392   2.146   2.286  0.2254  1.0818  0.1657
 5044TIP3    H136547   4.393   2.183   2.198 -0.3304 -0.7101 -0.6453
 5044TIP3    H236548   4.432   2.060   2.276 -1.4735  0.1109  1.2815
 5045TIP3   OH236549   6.174   2.226  12.304 -0.6496  0.4788  0.5368
 5045TIP3    H136550   6.152   2.204  12.214  0.4809  0.5820  0.2164
 5045TIP3    H236551   6.269   2.237  12.303 -0.6906  1.0524  1.6199
 5046TIP3   OH236552   1.602   1.702   0.187  0.3597 -0.2951  0.1234
 5046TIP3    H136553   1.628   1.612   0.166  0.8774 -0.1171 -0.0031
 5046TIP3    H236554   1.515   1.693   0.226  0.4393 -0.8593  0.1763
 5047TIP3   OH236555   5.595   5.364  15.956  0.0470  0.3733  0.4788
 5047TIP3    H136556   5.584   5.269  15.949  0.2291  0.4105 -0.4366
 5047TIP3    H236557   5.672   5.383  15.903  1.0391  0.8383  2.0040
 5048TIP3   OH236558   1.072   4.651  13.947 -0.0963 -0.6372 -0.4923
 5048TIP3    H136559   1.011   4.638  14.020  0.2275 -2.5769 -0.5230
 5048TIP3    H236560   1.156   4.672  13.989 -0.3271  0.1208 -0.3928
 5049TIP3   OH236561   6.245   4.934  12.227  0.1117 -0.3820 -0.8238
 5049TIP3    H136562   6.172   4.934  12.288 -0.6788 -2.1563 -1.6941
 5049TIP3    H236563   6.269   5.026  12.218 -0.0198 -0.0030  1.7649
 5050TIP3   OH236564   6.743   1.910   4.225 -0.2946  0.0506 -0.1554
 5050TIP3    H136565   6.726   2.003   4.241  0.3711  0.0255  0.8392
 5050TIP3    H236566   6.675   1.883   4.164 -2.2539  0.5280  1.6851
 5051TIP3   OH236567   3.308   5.231  17.177  0.5750 -0.4213  0.6152
 5051TIP3    H136568   3.311   5.320  17.142 -0.7619 -0.0785  1.2984
 5051TIP3    H236569   3.372   5.182  17.125  0.9122  0.7992 -0.1555
 5052TIP3   OH236570   0.139   3.839   0.841  0.0029  0.1331 -0.3625
 5052TIP3    H136571   0.058   3.857   0.888 -1.2393 -2.1299 -1.4402
 5052TIP3    H236572   0.113   3.838   0.749  0.9356 -1.9101 -0.6501
 5053TIP3   OH236573   5.531   5.851  15.663 -0.0527 -0.0725 -0.0979
 5053TIP3    H136574   5.509   5.758  15.675 -1.7541 -0.1638 -3.1421
 5053TIP3    H236575   5.595   5.852  15.592 -0.2218  1.1166 -0.2525
 5054TIP3   OH236576   1.905   0.457   6.015  0.8639  0.1241 -0.0435
 5054TIP3    H136577   1.983   0.512   6.022 -0.3807  1.7319  3.0315
 5054TIP3    H236578   1.900   0.412   6.099 -0.8951 -0.8392 -0.6160
 5055TIP3   OH236579   2.533   0.643  16.482  0.2227 -0.5947 -0.2377
 5055TIP3    H136580   2.463   0.633  16.546  0.9812 -0.2643  0.6627
 5055TIP3    H236581   2.512   0.581  16.413 -0.5900 -0.9793  0.3475
 5056TIP3   OH236582   5.740   2.838  15.839 -0.0107 -0.1023  0.3365
 5056TIP3    H136583   5.751   2.759  15.787 -2.0643  1.6643 -3.1611
 5056TIP3    H236584   5.650   2.834  15.871 -0.1267  0.7561  0.1608
 5057TIP3   OH236585   6.133   3.071   5.121  0.1999  0.2339 -0.4282
 5057TIP3    H136586   6.118   3.121   5.041 -2.8031 -1.2634 -0.9519
 5057TIP3    H236587   6.056   3.014   5.128  1.6941 -1.6772  2.0558
 5058TIP3   OH236588   5.229   0.843  16.649  0.4330 -0.0490 -0.3261
 5058TIP3    H136589   5.311   0.841  16.600  0.1744  2.3936 -0.9789
 5058TIP3    H236590   5.174   0.777  16.606  0.7779  0.9057 -2.3468
 5059TIP3   OH236591   5.585   5.418  11.370  0.4511 -0.0766 -0.1774
 5059TIP3    H136592   5.514   5.380  11.421 -1.0938  1.1270 -1.3144
 5059TIP3    H236593   5.609   5.497  11.417 -0.4704  0.6415 -0.8565
 5060TIP3   OH236594   3.258   6.470   4.108  0.3001 -0.1133  0.4005
 5060TIP3    H136595   3.324   6.497   4.171  0.4359  0.3071  0.0826
 5060TIP3    H236596   3.190   6.536   4.113  0.3020 -0.0870  0.1260
 5061TIP3   OH236597   4.417   1.654   2.470 -0.4520 -0.1698  0.0823
 5061TIP3    H136598   4.394   1.716   2.539  0.2582 -0.6160  0.7196
 5061TIP3    H236599   4.415   1.707   2.390 -0.4668  0.5380  0.5418
 5062TIP3   OH236600   4.997   3.941   4.992 -0.4119  0.1848 -0.8810
 5062TIP3    H136601   4.989   3.992   4.912 -0.4225 -0.5509 -1.3490
 5062TIP3    H236602   5.062   3.873   4.973  2.9286  2.5148  1.0513
 5063TIP3   OH236603   2.678   4.826  14.676  0.1571  0.3058 -0.1993
 5063TIP3    H136604   2.641   4.777  14.602 -2.5725 -1.5150  2.1408
 5063TIP3    H236605   2.611   4.892  14.697  0.7219  0.5749  0.8171
 5064TIP3   OH236606   3.052   4.649   4.441 -0.1936 -0.3019 -0.1817
 5064TIP3    H136607   3.090   4.678   4.358 -0.9143  0.4688 -0.2571
 5064TIP3    H236608   3.121   4.597   4.482  0.2551 -0.5051 -1.1555
 5065TIP3   OH236609   0.614   3.113   5.911  0.1096 -0.0385 -0.2266
 5065TIP3    H136610   0.596   3.055   5.837  1.6413  0.3937 -0.9789
 5065TIP3    H236611   0.681   3.068   5.962  0.1369  0.3369  0.0747
 5066TIP3   OH236612   6.062   5.756   3.965 -0.2134  0.6741  0.2615
 5066TIP3    H136613   6.149   5.738   3.929  0.3429 -0.1033  1.8841
 5066TIP3    H236614   6.033   5.672   4.000 -0.9067  1.2798  1.1824
 5067TIP3   OH236615   5.828   5.746  15.128 -0.3714  0.3788  0.5154
 5067TIP3    H136616   5.749   5.702  15.099  0.3118 -1.0977  0.7790
 5067TIP3    H236617   5.798   5.813  15.189 -1.4604  0.3892 -0.0159
 5068TIP3   OH236618   0.810   0.939  11.358  0.3737  0.4643  0.6089
 5068TIP3    H136619   0.858   0.856  11.347  0.1107  0.4538 -0.5725
 5068TIP3    H236620   0.721   0.912  11.379 -0.4424  0.2994 -2.5058
 5069TIP3   OH236621   2.395   5.313   6.861 -0.6466  0.0744  0.1484
 5069TIP3    H136622   2.490   5.305   6.868 -0.5324  1.3863  0.3589
 5069TIP3    H236623   2.381   5.344   6.771 -0.6816  2.0326  0.7767
 5070TIP3   OH236624   2.920   1.026   4.613  0.1207  0.9260 -0.5679
 5070TIP3    H136625   2.973   1.030   4.692 -0.0406  0.7894 -0.4502
 5070TIP3    H236626   2.879   1.113   4.606  0.6421  1.1526 -0.8614
 5071TIP3   OH236627   2.140   4.175   5.069 -0.2370  0.5169 -0.8033
 5071TIP3    H136628   2.217   4.183   5.125 -0.2856 -0.4080 -0.5811
 5071TIP3    H236629   2.162   4.105   5.008 -1.3154 -0.6058  0.0185
 5072TIP3   OH236630   0.713   6.586  13.876  0.2238 -0.0689  0.0421
 5072TIP3    H136631   0.761   6.668  13.863 -0.2752  0.2026 -0.1036
 5072TIP3    H236632   0.764   6.521  13.827 -0.0042  0.3791 -0.8253
 5073TIP3   OH236633   1.048   1.042  14.216  0.5959  0.1858  0.0633
 5073TIP3    H136634   1.020   1.070  14.129  1.0505  3.6400  0.8991
 5073TIP3    H236635   0.975   1.066  14.274 -0.1890 -3.0502  0.6573
 5074TIP3   OH236636   5.845   2.407   4.058 -0.0222 -0.4511  0.3887
 5074TIP3    H136637   5.810   2.326   4.022  1.1749 -0.7347 -0.1637
 5074TIP3    H236638   5.849   2.392   4.153  0.6387 -1.2242  0.2495
 5075TIP3   OH236639   0.751   0.316   6.437  0.0318  0.2001  0.1505
 5075TIP3    H136640   0.691   0.300   6.364  1.6950  1.8452 -1.6928
 5075TIP3    H236641   0.813   0.242   6.433 -0.9584 -0.7187  1.1418
 5076TIP3   OH236642   6.059   6.028   2.557 -0.2855 -0.5254  0.5933
 5076TIP3    H136643   6.075   6.039   2.463 -1.6068  1.5683  0.5549
 5076TIP3    H236644   5.964   6.023   2.565 -0.2618  0.7723  1.9416
 5077TIP3   OH236645   5.026   6.221  13.411 -0.1039  0.1482 -1.0345
 5077TIP3    H136646   4.965   6.192  13.479  0.5198  0.9531 -0.0915
 5077TIP3    H236647   5.057   6.140  13.371  2.4114 -0.7641  2.2548
 5078TIP3   OH236648   3.640   1.515  15.476 -0.1877  0.3498  0.4143
 5078TIP3    H136649   3.675   1.576  15.542  1.7574  0.7943 -0.9348
 5078TIP3    H236650   3.709   1.450  15.464 -2.0361 -1.9141  1.4594
 5079TIP3   OH236651   0.504   1.591  11.133  0.6100  0.1166 -0.0027
 5079TIP3    H136652   0.530   1.679  11.108 -1.7630  1.3029  1.4076
 5079TIP3    H236653   0.479   1.549  11.050 -1.3517  1.9142 -0.3921
 5080TIP3   OH236654   4.815   6.430  12.367 -0.0775  0.1136  0.0568
 5080TIP3    H136655   4.773   6.484  12.434 -2.2892 -1.3643 -0.0521
 5080TIP3    H236656   4.904   6.417  12.400 -0.0964  2.1092  1.0593
 5081TIP3   OH236657   5.057   5.305   3.317 -0.0163  0.4385 -0.1760
 5081TIP3    H136658   5.040   5.377   3.378  0.3047 -1.1102  1.8671
 5081TIP3    H236659   5.050   5.226   3.371  0.7898 -1.0078 -2.0698
 5082TIP3   OH236660   2.755   5.792   2.478 -0.2640  0.1326  0.3517
 5082TIP3    H136661   2.815   5.866   2.473  1.0789 -0.7853  1.8667
 5082TIP3    H236662   2.810   5.719   2.506 -1.3049 -1.7430 -2.1428
 5083TIP3   OH236663   1.291   2.310  15.637  0.9464 -0.1867  0.6948
 5083TIP3    H136664   1.327   2.229  15.601  1.6740 -0.7772  2.6307
 5083TIP3    H236665   1.197   2.295  15.642  0.9802 -0.5612  0.2208
 5084TIP3   OH236666   0.087   0.912  14.422 -0.5038 -0.5443 -0.3036
 5084TIP3    H136667   0.122   0.897  14.510  0.2024 -0.7947 -0.6284
 5084TIP3    H236668   0.014   0.973  14.436  0.6650  0.7605  0.2684
 5085TIP3   OH236669   0.079   5.819  12.540 -0.1511 -0.0062  0.5524
 5085TIP3    H136670   0.091   5.800  12.447  4.0909 -0.1157  0.9345
 5085TIP3    H236671   0.021   5.750  12.571  1.4487 -2.4043 -1.3419
 5086TIP3   OH236672   5.050   5.771   1.908  0.3015  0.5918  0.3249
 5086TIP3    H136673   4.961   5.806   1.914  0.1069  0.3507 -0.8350
 5086TIP3    H236674   5.078   5.761   1.999 -1.7881 -1.7080  0.8427
 5087TIP3   OH236675   3.822   2.820  11.560 -0.0824 -0.4343 -0.0368
 5087TIP3    H136676   3.758   2.891  11.558  0.7667  0.3324 -0.8997
 5087TIP3    H236677   3.875   2.834  11.482  2.5031  0.2251  1.7278
 5088TIP3   OH236678   3.623   2.639   1.039 -0.0524 -0.6400 -0.3828
 5088TIP3    H136679   3.702   2.689   1.061 -1.3290  1.6570 -0.6903
 5088TIP3    H236680   3.611   2.580   1.114 -1.0381  2.8680  2.5344
 5089TIP3   OH236681   3.275   2.353   3.430  0.1297 -0.1991 -0.4430
 5089TIP3    H136682   3.257   2.274   3.379 -2.9468 -0.5426  0.9716
 5089TIP3    H236683   3.207   2.415   3.403  0.2070  0.6232  1.1610
 5090TIP3   OH236684   0.357   6.555   0.432  0.0432  0.6087 -0.5300
 5090TIP3    H136685   0.270   6.571   0.467  0.1598  0.0391  0.0296
 5090TIP3    H236686   0.385   6.473   0.472  1.4515  1.5380  0.5076
 5091TIP3   OH236687   2.396   6.392   5.432 -0.1338  0.2277  0.3769
 5091TIP3    H136688   2.335   6.320   5.415  1.1530 -1.0718  1.0369
 5091TIP3    H236689   2.402   6.396   5.527 -0.7696  1.7554  0.3794
 5092TIP3   OH236690   1.478   6.377  16.848 -0.6408 -0.5820 -0.6458
 5092TIP3    H136691   1.446   6.455  16.894  0.6541  0.6187 -1.7021
 5092TIP3    H236692   1.398   6.327  16.828 -1.7492  1.4351 -1.6431
 5093TIP3   OH236693   4.939   1.473  11.994 -0.5204 -0.1799  0.1447
 5093TIP3    H136694   4.865   1.469  12.053 -0.7430  0.9803 -0.0199
 5093TIP3    H236695   4.947   1.566  11.972  1.3966 -0.1734  0.6884
 5094TIP3   OH236696   1.321   5.744  12.281  0.2934  0.7110 -0.0977
 5094TIP3    H136697   1.413   5.724  12.299  1.1205  1.4608 -2.9168
 5094TIP3    H236698   1.274   5.663  12.302  1.4848  0.4782  1.8809
 5095TIP3   OH236699   0.602   3.624  17.204  0.1633  0.9071 -0.2432
 5095TIP3    H136700   0.644   3.540  17.218  1.8515  1.7998  0.4140
 5095TIP3    H236701   0.533   3.628  17.271  0.1900  0.1285 -0.1674
 5096TIP3   OH236702   0.712   2.835   2.327 -0.3911 -0.3420 -0.6376
 5096TIP3    H136703   0.721   2.918   2.280  0.8127 -1.1175 -1.8330
 5096TIP3    H236704   0.779   2.839   2.396 -2.6848  1.1398  1.6689
 5097TIP3   OH236705   3.123   0.767  15.410 -0.4457  0.1605  0.1745
 5097TIP3    H136706   3.146   0.790  15.500 -0.9594  0.7143  0.1745
 5097TIP3    H236707   3.114   0.851  15.365 -1.2204 -0.0735 -0.1288
 5098TIP3   OH236708   4.172   0.905   2.718 -0.3908 -0.3323  0.7555
 5098TIP3    H136709   4.091   0.901   2.768  0.5122  0.5354  2.3566
 5098TIP3    H236710   4.174   0.995   2.684  1.0317  0.4841  2.8050
 5099TIP3   OH236711   2.726   1.125   1.490 -0.1478  0.2042 -0.2010
 5099TIP3    H136712   2.798   1.172   1.449 -0.9252  1.2855 -0.3665
 5099TIP3    H236713   2.647   1.168   1.457 -1.0586 -2.7731 -2.4237
 5100TIP3   OH236714   1.193   6.136  15.959  0.1378  0.1071 -0.1148
 5100TIP3    H136715   1.204   6.121  16.053  0.9166 -1.5131 -0.4224
 5100TIP3    H236716   1.280   6.159  15.928  0.1964 -0.8026 -0.6552
 5101TIP3   OH236717   2.569   6.222  16.171  0.3832  0.8277  0.5343
 5101TIP3    H136718   2.501   6.230  16.239 -0.9329 -1.5289 -0.3855
 5101TIP3    H236719   2.611   6.138  16.188 -1.2891 -0.8193 -2.5510
 5102TIP3   OH236720   4.112   1.154  13.556 -0.2578 -0.1033  0.0985
 5102TIP3    H136721   4.121   1.087  13.487  1.8352  0.6191 -0.4188
 5102TIP3    H236722   4.077   1.106  13.631 -0.3044 -1.4464 -0.7326
 5103TIP3   OH236723   2.751   5.898  15.609 -0.3444 -0.8294 -0.4715
 5103TIP3    H136724   2.842   5.867  15.612 -0.2114 -0.3870  0.1607
 5103TIP3    H236725   2.758   5.988  15.575 -0.4185 -0.3620  0.6969
 5104TIP3   OH236726   2.981   2.988  14.699 -0.3169 -0.4452 -0.0760
 5104TIP3    H136727   2.934   3.070  14.688  0.4649 -0.0769 -0.7869
 5104TIP3    H236728   2.975   2.945  14.613  2.0982  0.4192 -0.7741
 5105TIP3   OH236729   3.973   5.351   6.658  0.1133  0.4515 -0.4408
 5105TIP3    H136730   3.892   5.304   6.642  0.4070 -0.4638  0.5924
 5105TIP3    H236731   4.041   5.295   6.621  0.3740  0.5611 -0.1348
 5106TIP3   OH236732   5.077   2.837   4.048 -0.0288 -0.3126 -0.1096
 5106TIP3    H136733   5.167   2.838   4.016 -0.1711  2.2341 -0.6669
 5106TIP3    H236734   5.064   2.925   4.085 -1.7896 -1.1568  1.4582
 5107TIP3   OH236735   3.249   5.462  15.584 -0.6751 -0.1203  0.7476
 5107TIP3    H136736   3.234   5.526  15.654 -2.4740  0.8217 -0.4228
 5107TIP3    H236737   3.344   5.460  15.574 -0.5458  3.0176  0.2876
 5108TIP3   OH236738   0.631   0.484  13.318  0.0786 -0.0262  0.0533
 5108TIP3    H136739   0.630   0.554  13.253  1.8261  0.6294  0.6762
 5108TIP3    H236740   0.620   0.404  13.266 -0.5292  0.6096 -0.8184
 5109TIP3   OH236741   0.826   0.193  15.123 -0.0065  0.3038 -0.9167
 5109TIP3    H136742   0.751   0.188  15.182  0.2916  1.5867 -0.4071
 5109TIP3    H236743   0.846   0.286  15.116  3.0052 -0.0896  0.8404
 5110TIP3   OH236744   0.440   3.630   3.292  0.3334 -0.4696 -0.3001
 5110TIP3    H136745   0.468   3.646   3.202  1.0497  0.1007  0.0178
 5110TIP3    H236746   0.500   3.563   3.325 -1.7987 -2.9731 -1.1812
 5111TIP3   OH236747   5.535   4.021   1.171  0.5539  0.0099 -0.2608
 5111TIP3    H136748   5.527   4.045   1.263  2.9213 -0.4909  0.1186
 5111TIP3    H236749   5.503   4.098   1.124 -2.9965 -0.5616  0.8549
 5112TIP3   OH236750   3.459   1.670  12.243  0.0804 -0.2112 -1.0400
 5112TIP3    H136751   3.539   1.719  12.264 -0.1879 -1.1696  3.0619
 5112TIP3    H236752   3.388   1.722  12.283 -0.6564 -1.8739 -0.0737
 5113TIP3   OH236753   0.464   2.947  14.305  0.4947 -0.2602  0.0483
 5113TIP3    H136754   0.537   2.922  14.361  0.9374  1.5519  0.3484
 5113TIP3    H236755   0.387   2.945  14.363  0.6654 -0.0909  0.2825
 5114TIP3   OH236756   3.514   3.636   1.014 -0.2663  0.4213  0.5082
 5114TIP3    H136757   3.430   3.590   1.016  0.4714 -1.0174 -0.2810
 5114TIP3    H236758   3.496   3.718   0.967 -1.3139  0.3490  0.7569
 5115TIP3   OH236759   2.096   4.918   5.779  0.0859  0.3410 -0.1282
 5115TIP3    H136760   2.109   5.011   5.797  0.4808  0.6529 -1.8466
 5115TIP3    H236761   2.170   4.894   5.722  0.3801 -1.2100  0.8452
 5116TIP3   OH236762   6.451   5.192  15.692 -0.0459  0.2723  0.0455
 5116TIP3    H136763   6.415   5.280  15.680 -0.9991  0.1228  1.5433
 5116TIP3    H236764   6.431   5.171  15.783 -1.0381 -2.0367 -0.6459
 5117TIP3   OH236765   2.576   3.607  13.075 -0.5002  0.1417 -0.0015
 5117TIP3    H136766   2.489   3.640  13.052 -0.8329  1.7184  3.0283
 5117TIP3    H236767   2.636   3.679  13.051 -0.2056 -0.3225 -0.6790
 5118TIP3   OH236768   1.130   4.900  16.976 -0.6319 -0.2846  0.2593
 5118TIP3    H136769   1.186   4.851  16.916  0.5387 -2.6568  2.9990
 5118TIP3    H236770   1.188   4.967  17.013 -1.0576  0.5054 -0.4855
 5119TIP3   OH236771   2.027   6.321   5.647 -0.3606  0.6074  0.5619
 5119TIP3    H136772   2.035   6.390   5.713  2.1311 -0.0911  1.0682
 5119TIP3    H236773   2.042   6.364   5.564 -2.1402  1.2283  0.5048
 5120TIP3   OH236774   3.211   4.868   2.654  0.0420 -0.2933 -0.6559
 5120TIP3    H136775   3.288   4.817   2.629  0.4164 -0.3138  0.4433
 5120TIP3    H236776   3.152   4.804   2.694 -0.1898 -0.1344 -0.7393
 5121TIP3   OH236777   2.844   0.699   0.445  0.6301 -0.6633 -0.4326
 5121TIP3    H136778   2.773   0.760   0.425 -0.2044 -0.2361  3.2540
 5121TIP3    H236779   2.803   0.612   0.441  0.4902 -0.5953 -0.4712
 5122TIP3   OH236780   5.197   1.155  13.102  0.1230 -0.1276  0.7308
 5122TIP3    H136781   5.290   1.137  13.109  0.3384  1.1777  1.6103
 5122TIP3    H236782   5.189   1.249  13.120 -1.3983 -0.2895  1.0881
 5123TIP3   OH236783   3.095   4.976   1.541  0.2601 -0.1816  0.1273
 5123TIP3    H136784   3.074   5.062   1.506  2.4666 -0.0566 -1.0808
 5123TIP3    H236785   3.149   4.993   1.618  0.3486 -0.4684  0.1324
 5124TIP3   OH236786   4.369   6.306  14.642  0.2688  1.3104 -0.3136
 5124TIP3    H136787   4.440   6.356  14.681  0.5823 -0.0744  1.0065
 5124TIP3    H236788   4.403   6.216  14.637 -0.4329  1.1061 -2.1628
 5125TIP3   OH236789   2.998   2.969   5.868 -0.1449  0.2893  0.0937
 5125TIP3    H136790   2.983   2.968   5.962  0.9643  0.9616  0.2925
 5125TIP3    H236791   3.021   3.059   5.848 -0.8735  0.2683 -0.9193
 5126TIP3   OH236792   2.958   5.259   1.030 -0.1083  0.0775 -0.1923
 5126TIP3    H136793   2.948   5.164   1.022 -0.1968  0.1677 -1.1655
 5126TIP3    H236794   3.028   5.281   0.969  0.8634  0.4733  1.0213
 5127TIP3   OH236795   0.249   2.289  13.511  0.0399  0.1379  0.3172
 5127TIP3    H136796   0.191   2.340  13.568  0.3468  0.9547 -0.0902
 5127TIP3    H236797   0.206   2.292  13.426  0.4633  0.3970  0.1093
 5128TIP3   OH236798   0.282   4.880  16.845 -0.3210 -0.7990 -0.0767
 5128TIP3    H136799   0.256   4.789  16.857 -2.7663 -0.4257 -1.8106
 5128TIP3    H236800   0.359   4.876  16.787  0.7173 -1.7665  1.2992
 5129TIP3   OH236801   1.755   0.050  13.230 -0.9651 -0.0794  0.0359
 5129TIP3    H136802   1.811  -0.018  13.267 -1.2729 -0.8122 -0.7986
 5129TIP3    H236803   1.674   0.045  13.281 -0.3728  0.8303  1.0954
 5130TIP3   OH236804   0.992   0.723   4.783  0.6725 -0.1363  0.4189
 5130TIP3    H136805   1.062   0.737   4.720  0.3641 -0.5123 -0.0214
 5130TIP3    H236806   0.968   0.631   4.771 -0.4144  0.1825  0.0113
 5131TIP3   OH236807   4.633   3.116  15.282  0.3843  0.7208  0.0434
 5131TIP3    H136808   4.586   3.180  15.336  1.2714  0.9168  0.6000
 5131TIP3    H236809   4.719   3.155  15.269  0.4832  0.2445 -0.7529
 5132TIP3   OH236810   1.125   6.319   0.744  0.0238  0.3293 -0.6347
 5132TIP3    H136811   1.078   6.385   0.693  0.5792  0.1171 -1.4503
 5132TIP3    H236812   1.056   6.265   0.782 -0.4171  0.8547 -0.6710
 5133TIP3   OH236813   6.380   2.251  13.193  0.0715 -0.4602 -0.7603
 5133TIP3    H136814   6.360   2.285  13.280  0.6958  0.0228 -0.8017
 5133TIP3    H236815   6.304   2.197  13.171  0.5799 -1.8688  0.7327
 5134TIP3   OH236816   3.153   5.550  11.705  0.0240  0.1428 -0.4932
 5134TIP3    H136817   3.202   5.632  11.698  1.4967 -0.8330 -2.6371
 5134TIP3    H236818   3.143   5.520  11.615  1.3162 -3.0118  0.2680
 5135TIP3   OH236819   0.170   2.012  13.761  0.1215 -0.4442  0.3281
 5135TIP3    H136820   0.127   2.095  13.780 -0.4572 -1.0946  2.1511
 5135TIP3    H236821   0.100   1.956  13.725  0.9119  0.3514 -2.6936
 5136TIP3   OH236822   3.354   3.514  15.147  0.0855 -0.0055 -0.2732
 5136TIP3    H136823   3.352   3.535  15.054  1.0315 -0.7085 -0.4759
 5136TIP3    H236824   3.446   3.495  15.165  0.0550  0.9502  1.0004
 5137TIP3   OH236825   1.159   4.246  11.284 -0.3843 -0.1789 -0.7241
 5137TIP3    H136826   1.252   4.242  11.259 -0.5689  1.0121 -1.6693
 5137TIP3    H236827   1.113   4.201  11.213 -0.4578 -1.8357  0.3318
 5138TIP3   OH236828   2.599   2.405  15.136 -0.2584  0.2664 -0.3564
 5138TIP3    H136829   2.533   2.347  15.099  0.4868 -0.4747 -0.5513
 5138TIP3    H236830   2.629   2.458  15.063 -0.7574  0.7346 -0.2294
 5139TIP3   OH236831   4.993   2.302  16.275 -0.1876 -0.0234 -0.4219
 5139TIP3    H136832   4.912   2.336  16.313  0.6935  0.7651  0.8157
 5139TIP3    H236833   5.005   2.216  16.316 -0.1927  0.0353 -0.2965
 5140TIP3   OH236834   1.475   1.237  14.435 -0.3636 -0.1269  0.3125
 5140TIP3    H136835   1.443   1.280  14.514 -1.8182 -1.2102  0.3602
 5140TIP3    H236836   1.461   1.302  14.365 -3.4048 -0.7497  0.2216
 5141TIP3   OH236837   1.924   0.643   1.439 -0.7285 -0.3542 -0.8354
 5141TIP3    H136838   1.848   0.685   1.397  0.2903  0.9606 -1.4210
 5141TIP3    H236839   1.952   0.706   1.505 -1.5400 -1.8604  1.0475
 5142TIP3   OH236840   2.477   5.502   3.205  0.0184 -0.0803  0.3843
 5142TIP3    H136841   2.553   5.484   3.150  0.2369  0.5547  0.4736
 5142TIP3    H236842   2.491   5.448   3.283  0.0777 -0.4131  0.1442
 5143TIP3   OH236843   3.449   2.819  12.532  0.6897  0.7299 -0.0244
 5143TIP3    H136844   3.486   2.905  12.515  0.8544  0.5190 -0.7671
 5143TIP3    H236845   3.356   2.827  12.513  1.0597  0.1879 -2.3249
 5144TIP3   OH236846   1.144   1.029   4.379  0.0065 -0.2784  0.1586
 5144TIP3    H136847   1.107   1.089   4.315  1.2490 -0.9953 -1.2730
 5144TIP3    H236848   1.105   1.056   4.462 -3.2537 -0.6213 -1.1284
 5145TIP3   OH236849   3.958   4.458   6.190  0.6987 -0.0802  0.0325
 5145TIP3    H136850   3.892   4.499   6.246 -0.2760  1.9951 -2.3742
 5145TIP3    H236851   3.933   4.366   6.187 -1.8101  0.5182 -0.2775
 5146TIP3   OH236852   4.338   0.023  13.597 -0.1797 -0.0718  0.8337
 5146TIP3    H136853   4.427   0.057  13.590 -1.2959  3.2709  1.0246
 5146TIP3    H236854   4.305   0.022  13.507 -0.1695 -0.6742  0.8342
 5147TIP3   OH236855   4.409   4.112  12.237 -0.3585  0.4282  0.5571
 5147TIP3    H136856   4.379   4.150  12.154 -1.4500 -0.4976  0.4992
 5147TIP3    H236857   4.346   4.144  12.302  0.5898  1.2817  1.0660
 5148TIP3   OH236858   4.618   6.501   5.705  0.1271 -0.5638 -0.1743
 5148TIP3    H136859   4.617   6.565   5.776 -2.1894 -0.2871 -0.4048
 5148TIP3    H236860   4.679   6.538   5.641  0.2146  0.4987  0.4988
 5149TIP3   OH236861   3.816   3.969  17.131  0.1575 -0.5702  0.2419
 5149TIP3    H136862   3.761   3.953  17.207  0.1276 -2.5541 -0.1519
 5149TIP3    H236863   3.889   3.909  17.141 -0.2271 -1.4179 -1.6426
 5150TIP3   OH236864   4.762   6.005  10.653  0.7446 -0.0535 -0.4900
 5150TIP3    H136865   4.688   5.981  10.597  1.2181 -0.4126 -0.9737
 5150TIP3    H236866   4.768   5.934  10.717 -0.0498  0.5602  0.2823
 5151TIP3   OH236867   5.439   2.634   4.441  0.4856 -0.7473  0.8791
 5151TIP3    H136868   5.351   2.663   4.418  0.9266 -1.0757 -1.4354
 5151TIP3    H236869   5.494   2.660   4.367  1.9092 -2.5277  1.2229
 5152TIP3   OH236870   6.694   2.225   3.208  0.6084  0.5717  0.1498
 5152TIP3    H136871   6.770   2.246   3.262  0.3748  2.6693 -0.2824
 5152TIP3    H236872   6.702   2.282   3.131 -1.4026  0.8514  0.0947
 5153TIP3   OH236873   5.837   0.738  14.506 -0.1127  0.0008  0.0933
 5153TIP3    H136874   5.791   0.706  14.584 -0.1612 -0.5079 -0.1402
 5153TIP3    H236875   5.915   0.782  14.541 -0.7300  0.7885  0.4839
 5154TIP3   OH236876   1.859   5.131   0.026 -0.2087  0.2226  0.1914
 5154TIP3    H136877   1.843   5.139   0.120 -1.1103  0.3040  0.0370
 5154TIP3    H236878   1.830   5.215  -0.010 -0.9701 -0.2389 -0.2969
 5155TIP3   OH236879   6.377   2.165   1.866  0.0708  0.1816  1.1143
 5155TIP3    H136880   6.363   2.113   1.787  1.5824  1.1531  0.1594
 5155TIP3    H236881   6.346   2.109   1.937  1.4239 -1.9664  0.1182
 5156TIP3   OH236882   0.465   2.829   6.664 -0.1377  0.8609 -0.6016
 5156TIP3    H136883   0.503   2.752   6.621 -0.1956  0.1138  0.6320
 5156TIP3    H236884   0.400   2.862   6.601 -0.1009 -0.0915 -1.1626
 5157TIP3   OH236885   4.539   2.213   4.044 -0.1549 -0.0034 -0.8674
 5157TIP3    H136886   4.596   2.162   4.102 -0.6083 -1.0866 -1.3451
 5157TIP3    H236887   4.476   2.149   4.011 -1.9068  1.2324 -0.0554
 5158TIP3   OH236888   6.271   6.563  11.490 -0.0314 -0.3699  0.7979
 5158TIP3    H136889   6.277   6.658  11.483  0.0404 -0.4088  0.2169
 5158TIP3    H236890   6.308   6.542  11.575  0.4947  0.0789  0.6864
 5159TIP3   OH236891   1.485   1.624  15.742  0.5044  0.1591 -0.4220
 5159TIP3    H136892   1.416   1.593  15.683  0.2846  0.0066 -0.0895
 5159TIP3    H236893   1.536   1.685  15.689 -0.3498  0.8631 -0.4460
 5160TIP3   OH236894   1.216   5.758  16.545  0.0229  0.8353  0.3091
 5160TIP3    H136895   1.155   5.738  16.475  1.5267  0.9468 -1.1067
 5160TIP3    H236896   1.164   5.804  16.611 -1.9832 -1.5251  0.4835
 5161TIP3   OH236897   4.319   5.605  16.827  0.7464  0.4561 -0.1138
 5161TIP3    H136898   4.390   5.666  16.810 -0.3711  1.0130 -3.7523
 5161TIP3    H236899   4.293   5.574  16.740 -3.4549  0.3270  0.9522
 5162TIP3   OH236900   4.755   2.468   1.971  0.2265 -0.3475  0.0039
 5162TIP3    H136901   4.702   2.436   2.045 -1.6184 -1.8134 -1.8417
 5162TIP3    H236902   4.693   2.515   1.915  1.0943 -1.1498 -1.7055
 5163TIP3   OH236903   2.443   2.491  11.937  0.4690  0.3931  0.6994
 5163TIP3    H136904   2.463   2.550  12.010  1.7215  2.6989 -1.3438
 5163TIP3    H236905   2.527   2.452  11.914 -0.2494 -1.8839  1.6530
 5164TIP3   OH236906   5.382   3.589   2.332  0.0718 -0.4030  0.4133
 5164TIP3    H136907   5.389   3.553   2.244 -0.5699  1.2234 -0.3461
 5164TIP3    H236908   5.304   3.644   2.329  0.2982  0.0322  1.8730
 5165TIP3   OH236909   0.711   3.559  13.354  0.2292  0.4167 -0.2216
 5165TIP3    H136910   0.762   3.631  13.316 -0.0432  0.6967 -0.0660
 5165TIP3    H236911   0.776   3.503  13.397  0.5555  0.0314 -1.1983
 5166TIP3   OH236912   2.503   4.139  14.924 -0.5167  0.5265  0.5794
 5166TIP3    H136913   2.409   4.123  14.918 -0.4155 -0.0339  0.4381
 5166TIP3    H236914   2.513   4.232  14.901 -1.0697  0.6899  0.9824
 5167TIP3   OH236915   2.897   4.488  15.754  0.0250  0.3049  0.3687
 5167TIP3    H136916   2.906   4.482  15.659  0.4781  1.6961  0.2995
 5167TIP3    H236917   2.981   4.456  15.788  0.6578  1.6832  0.1936
 5168TIP3   OH236918   5.895   1.641   1.688 -0.8494  0.1396 -0.2084
 5168TIP3    H136919   5.941   1.609   1.610  0.8612 -0.9906  1.1896
 5168TIP3    H236920   5.964   1.652   1.754 -2.4368 -0.5964  1.6746
 5169TIP3   OH236921   5.533   2.377  13.796 -0.4549 -0.2002 -0.2023
 5169TIP3    H136922   5.457   2.412  13.842 -1.1410 -1.6643 -0.1721
 5169TIP3    H236923   5.497   2.326  13.724  0.5155 -0.5075 -0.4920
 5170TIP3   OH236924   5.535   4.881  11.997 -0.4831  0.2075  0.1358
 5170TIP3    H136925   5.482   4.960  11.992 -0.7735  0.0669  0.8395
 5170TIP3    H236926   5.514   4.833  11.916 -2.1796 -0.2964  0.8225
 5171TIP3   OH236927   3.510   0.935  17.067  0.0823 -0.9432  0.1157
 5171TIP3    H136928   3.582   0.927  17.005  0.8858  1.5480  0.6077
 5171TIP3    H236929   3.478   0.846  17.079  1.3211 -1.7622 -2.1702
 5172TIP3   OH236930   3.903   1.355  11.934  0.5363 -0.3376 -0.1543
 5172TIP3    H136931   3.861   1.303  12.003  3.9190  0.1371  2.5921
 5172TIP3    H236932   3.952   1.290  11.883 -0.0741 -0.4345 -0.6281
 5173TIP3   OH236933   0.298   3.849   5.374  0.0539  0.1730  0.4878
 5173TIP3    H136934   0.382   3.872   5.333  0.4384 -1.8769  0.0440
 5173TIP3    H236935   0.304   3.755   5.390 -2.5835 -0.2427 -0.5838
 5174TIP3   OH236936   2.987   5.509   4.878  0.9225 -0.1697  0.1219
 5174TIP3    H136937   3.002   5.546   4.791 -0.5412  0.8354  0.2515
 5174TIP3    H236938   3.010   5.579   4.938 -2.1928  0.7934  0.3611
 5175TIP3   OH236939   3.370   3.269   2.781 -0.0679 -0.1175  0.0776
 5175TIP3    H136940   3.437   3.200   2.781 -0.4581 -0.6269 -2.8927
 5175TIP3    H236941   3.315   3.249   2.706 -1.7805  2.0103  0.6566
 5176TIP3   OH236942   2.524   0.686  11.238  0.0032 -0.0476 -0.3825
 5176TIP3    H136943   2.593   0.688  11.304 -0.2903  0.3167 -0.0832
 5176TIP3    H236944   2.570   0.667  11.156  0.3204 -0.8936 -0.0188
 5177TIP3   OH236945   3.393   0.497  15.407 -0.3864 -0.2204  0.1019
 5177TIP3    H136946   3.430   0.577  15.445  0.7802 -0.7125  0.0433
 5177TIP3    H236947   3.348   0.526  15.328 -2.1254  0.7117  1.3523
 5178TIP3   OH236948   3.727   6.146   5.299  0.2938 -0.0863  0.2349
 5178TIP3    H136949   3.809   6.181   5.265  0.3821 -0.0288  0.4986
 5178TIP3    H236950   3.725   6.055   5.269  1.0595 -0.4620  1.2419
 5179TIP3   OH236951   2.911   4.999   1.881 -0.4584  0.1142 -0.8370
 5179TIP3    H136952   2.823   5.026   1.907  0.5060  1.9733  0.7489
 5179TIP3    H236953   2.950   5.078   1.845  1.3994  0.0661  0.9030
 5180TIP3   OH236954   2.747   0.462  11.751 -0.4007  0.0247  0.5342
 5180TIP3    H136955   2.741   0.432  11.842  0.7548 -1.9451  0.0474
 5180TIP3    H236956   2.819   0.525  11.751  1.1074 -1.6142  0.6807
 5181TIP3   OH236957   4.199   5.429   5.306  0.3692  0.1539 -0.6381
 5181TIP3    H136958   4.210   5.382   5.388  0.5642  0.5418 -0.4386
 5181TIP3    H236959   4.105   5.424   5.288 -0.2236  2.6143  1.1912
 5182TIP3   OH236960   5.200   1.767  16.713  0.5746  0.1609  0.2545
 5182TIP3    H136961   5.232   1.776  16.803  0.4325  0.1813  0.3025
 5182TIP3    H236962   5.211   1.854  16.675  3.4543 -0.5115 -0.6773
 5183TIP3   OH236963   5.583   5.447   5.974 -0.4978  0.1772  0.3901
 5183TIP3    H136964   5.542   5.529   5.944 -2.5359 -1.5418 -1.9440
 5183TIP3    H236965   5.676   5.470   5.983 -1.3197  3.3841  2.5497
 5184TIP3   OH236966   1.779   6.049  11.817  0.2450  0.1990  0.1567
 5184TIP3    H136967   1.690   6.081  11.807 -0.0187  0.0655  1.8317
 5184TIP3    H236968   1.776   5.959  11.784 -0.7198 -0.4583  1.9320
 5185TIP3   OH236969   3.800   6.657  14.210 -0.1380 -0.6025 -0.7912
 5185TIP3    H136970   3.860   6.731  14.217 -1.9615  0.8350  0.8171
 5185TIP3    H236971   3.751   6.674  14.129 -0.8479  0.2531 -0.2097
 5186TIP3   OH236972   5.001   5.325  16.022 -0.6422 -0.2468  0.0315
 5186TIP3    H136973   4.909   5.337  16.045  0.1911  2.2267  2.6861
 5186TIP3    H236974   5.030   5.412  15.993  1.0175 -0.8204 -0.1497
 5187TIP3   OH236975   3.611   6.045   3.888 -0.3210  0.1715  0.1227
 5187TIP3    H136976   3.706   6.047   3.902 -0.4134 -1.4888  1.3605
 5187TIP3    H236977   3.600   5.986   3.813 -0.3850  0.1248  0.1688
 5188TIP3   OH236978   3.831   4.847  16.182 -0.3557 -0.1784 -0.2102
 5188TIP3    H136979   3.818   4.822  16.091 -2.2993 -1.4413  0.3374
 5188TIP3    H236980   3.826   4.943  16.182 -2.0716 -0.2177 -1.2528
 5189TIP3   OH236981   4.135   1.946   3.026  0.0674  0.0900  0.2915
 5189TIP3    H136982   4.179   1.862   3.040  1.1353 -0.0563 -3.1143
 5189TIP3    H236983   4.065   1.927   2.964  0.1674  1.6841 -0.3606
 5190TIP3   OH236984   4.071   4.444  11.740 -0.0302 -0.2964  0.0886
 5190TIP3    H136985   4.113   4.360  11.723  0.8459  0.6305 -3.1257
 5190TIP3    H236986   4.144   4.504  11.758 -0.4189  0.2487 -0.1191
 5191TIP3   OH236987   5.593   4.812  13.614 -0.1245 -0.1874 -0.4967
 5191TIP3    H136988   5.628   4.731  13.652 -1.3014 -1.0444 -1.1478
 5191TIP3    H236989   5.556   4.859  13.689  0.5901 -0.2365 -0.1067
 5192TIP3   OH236990   0.343   4.018  11.839 -0.2739 -0.0750 -0.1388
 5192TIP3    H136991   0.407   4.012  11.911  0.5739 -0.0642 -0.8703
 5192TIP3    H236992   0.279   4.082  11.869  1.3213  1.6707 -0.3026
 5193TIP3   OH236993   6.352   3.928  15.741  0.4106  0.0137 -0.3346
 5193TIP3    H136994   6.384   4.016  15.761  0.6761  0.0264 -0.8136
 5193TIP3    H236995   6.395   3.872  15.806 -1.4060  0.4951  1.3774
 5194TIP3   OH236996   1.528   5.659  10.584 -0.2965  0.1060 -0.0953
 5194TIP3    H136997   1.583   5.736  10.571 -0.0941 -0.1675 -0.9296
 5194TIP3    H236998   1.511   5.657  10.678 -0.9765  1.6159 -0.1702
 5195TIP3   OH236999   1.443   1.928   5.413  0.6051 -0.1011 -0.2411
 5195TIP3    H137000   1.500   1.983   5.359  0.6410  0.3594  0.2599
 5195TIP3    H237001   1.501   1.893   5.481  0.1157  1.1277  0.8404
 5196TIP3   OH237002   2.047   4.453  11.713 -0.1075  0.4239  0.9763
 5196TIP3    H137003   2.111   4.496  11.656 -0.5540  0.4594  0.4888
 5196TIP3    H237004   1.962   4.482  11.679 -0.4420 -1.1147  0.3823
 5197TIP3   OH237005   5.017   5.852   6.300  1.1460 -0.0774  0.1875
 5197TIP3    H137006   5.074   5.858   6.224  1.6541  0.1078  0.5704
 5197TIP3    H237007   5.039   5.930   6.351  1.4347 -0.6402  0.9426
 5198TIP3   OH237008   5.815   1.797  14.014 -0.0560 -0.1694  0.2910
 5198TIP3    H137009   5.868   1.850  14.074  0.0103 -1.3299  1.2900
 5198TIP3    H237010   5.866   1.794  13.934  1.2236 -0.9235  1.0997
 5199TIP3   OH237011   0.115   2.625  16.735  0.9116  0.4610 -0.4003
 5199TIP3    H137012   0.198   2.576  16.730 -0.2896 -1.6605 -0.5919
 5199TIP3    H237013   0.091   2.624  16.827  0.7795  0.5433 -0.4327
 5200TIP3   OH237014   4.563   0.645   0.842  0.1242  0.3673 -0.5756
 5200TIP3    H137015   4.587   0.593   0.919 -1.1501  0.8116  0.1384
 5200TIP3    H237016   4.480   0.686   0.865 -2.2881 -2.3668 -3.5153
 5201TIP3   OH237017   3.015   0.249  10.762 -0.1537  0.0743 -0.5238
 5201TIP3    H137018   3.024   0.161  10.727  0.9813 -0.0312 -0.0310
 5201TIP3    H237019   3.075   0.302  10.709 -1.2323  0.6790 -1.1796
 5202TIP3   OH237020   6.709   1.599  13.773  0.0795  0.8355 -0.4065
 5202TIP3    H137021   6.683   1.662  13.840  1.7702  3.3666 -1.9771
 5202TIP3    H237022   6.654   1.620  13.698 -0.4059 -0.6402 -0.4936
 5203TIP3   OH237023   0.759   4.573   0.750 -0.1653  0.7130  0.2433
 5203TIP3    H137024   0.819   4.594   0.679  0.0363  1.5771  0.6573
 5203TIP3    H237025   0.760   4.478   0.755  0.5468  0.6873 -0.2840
 5204TIP3   OH237026   2.052   2.609   4.015 -0.0025 -0.3493  1.2359
 5204TIP3    H137027   2.137   2.642   4.046  0.2116  1.1925 -0.8312
 5204TIP3    H237028   2.053   2.625   3.921 -2.9786  0.5638  1.2729
 5205TIP3   OH237029   5.627   4.404  14.663  0.1585  0.0443 -0.1430
 5205TIP3    H137030   5.698   4.449  14.708  0.5343 -1.1089  0.4512
 5205TIP3    H237031   5.670   4.357  14.591 -0.5830  3.1009 -2.8617
 5206TIP3   OH237032   3.104   5.956   3.796 -0.2227  0.0062  0.0819
 5206TIP3    H137033   3.051   6.009   3.855  0.7567  0.6857  0.3946
 5206TIP3    H237034   3.094   5.998   3.711 -1.9715 -1.2224 -0.3752
 5207TIP3   OH237035   4.089   5.483  11.210  0.2160  0.1684  0.0521
 5207TIP3    H137036   4.054   5.400  11.178  0.0490  0.7468 -1.3429
 5207TIP3    H237037   4.114   5.465  11.300 -2.1094 -0.7369  0.5934
 5208TIP3   OH237038   1.536   5.814   5.347 -0.6673  0.2331 -0.3904
 5208TIP3    H137039   1.459   5.863   5.376 -0.2829  0.0777  0.9249
 5208TIP3    H237040   1.578   5.785   5.427 -0.0808 -1.0142 -1.1190
 5209TIP3   OH237041   6.616   4.532   5.697 -0.0242 -0.4075  0.5071
 5209TIP3    H137042   6.542   4.560   5.751  0.8425 -0.5645  1.8201
 5209TIP3    H237043   6.689   4.586   5.728  0.3731 -0.0741 -0.9439
 5210TIP3   OH237044   3.572   0.146   1.808  0.0980  0.0502 -0.2306
 5210TIP3    H137045   3.662   0.150   1.776  1.0613 -1.1694  2.0676
 5210TIP3    H237046   3.548   0.053   1.799 -0.2568  0.0320  0.8370
 5211TIP3   OH237047   2.635   6.612   5.901  0.9172 -0.8779  0.2814
 5211TIP3    H137048   2.713   6.579   5.946  0.1769 -1.8675  0.8969
 5211TIP3    H237049   2.587   6.533   5.877 -0.9423 -0.2859  1.8358
 5212TIP3   OH237050   0.411   4.693   2.686  0.3051 -0.0772 -0.2407
 5212TIP3    H137051   0.408   4.786   2.708 -1.5790  0.0490 -0.8530
 5212TIP3    H237052   0.441   4.691   2.595  0.5258 -0.1006 -0.1699
 5213TIP3   OH237053   2.954   1.559   3.151 -0.3795 -0.5265 -0.0087
 5213TIP3    H137054   2.887   1.556   3.219  0.1512  2.5162  0.8204
 5213TIP3    H237055   2.910   1.600   3.076  0.5513  1.9337  0.6968
 5214TIP3   OH237056   0.451   1.604   2.992  0.1937  0.1763  0.3830
 5214TIP3    H137057   0.418   1.631   2.906  0.3577 -0.9263 -0.0526
 5214TIP3    H237058   0.538   1.567   2.974 -0.8042 -2.5207  0.5587
 5215TIP3   OH237059   3.133   3.329  16.853 -0.2077 -0.2900 -0.6738
 5215TIP3    H137060   3.063   3.391  16.836 -1.8588 -1.3293  1.7574
 5215TIP3    H237061   3.182   3.368  16.925  0.9415 -0.1896 -1.4848
 5216TIP3   OH237062   3.406   3.280  13.545 -0.0361 -0.2709 -0.3784
 5216TIP3    H137063   3.490   3.325  13.543  0.3494 -0.9787 -0.4638
 5216TIP3    H237064   3.400   3.237  13.460 -0.1039 -0.8890 -0.0717
 5217TIP3   OH237065   2.211   5.086   2.125  0.5290 -0.2785  0.0243
 5217TIP3    H137066   2.230   5.000   2.089  0.9927  0.3541 -1.2960
 5217TIP3    H237067   2.294   5.132   2.124  0.3016  0.1810  0.7942
 5218TIP3   OH237068   3.273   6.100   4.817 -0.2832  0.0993 -0.0284
 5218TIP3    H137069   3.277   6.104   4.721  2.4371 -0.1807  0.0180
 5218TIP3    H237070   3.267   6.007   4.837 -2.0431  0.2081  0.0996
 5219TIP3   OH237071   5.838   4.746   3.668  0.5552 -0.0406  0.3644
 5219TIP3    H137072   5.798   4.826   3.702  0.0306 -0.4580  0.7324
 5219TIP3    H237073   5.927   4.746   3.704  0.3302  0.0251  0.9188
 5220TIP3   OH237074   5.662   5.870   2.204  0.2035  0.5314  0.6604
 5220TIP3    H137075   5.590   5.815   2.235 -0.6442  2.0595  1.4745
 5220TIP3    H237076   5.620   5.944   2.161  1.3339  0.5078 -0.5624
 5221TIP3   OH237077   6.234   4.651  12.909 -0.1444 -0.0368  0.2361
 5221TIP3    H137078   6.299   4.581  12.902  0.3846  0.4134  0.5691
 5221TIP3    H237079   6.199   4.642  12.998  1.0751  1.0982  0.8652
 5222TIP3   OH237080   3.471   3.173  17.192  0.5872 -0.5980 -0.7780
 5222TIP3    H137081   3.550   3.220  17.216  0.1954 -0.8264  1.1543
 5222TIP3    H237082   3.482   3.085  17.229 -1.0424 -0.2657  0.6404
 5223TIP3   OH237083   1.882   4.421   1.410 -0.2551  0.1331 -0.1241
 5223TIP3    H137084   1.842   4.430   1.323 -0.7770  3.3350  0.3549
 5223TIP3    H237085   1.819   4.462   1.470  1.0709 -0.0986  1.4888
 5224TIP3   OH237086   0.065   1.801   5.179 -0.7073 -0.8294 -0.4611
 5224TIP3    H137087   0.160   1.805   5.163 -0.6119  0.7820  0.3254
 5224TIP3    H237088   0.033   1.736   5.116  1.0027 -1.9497 -0.2551
 5225TIP3   OH237089   5.461   0.622   0.648  0.4204  0.2593 -0.1090
 5225TIP3    H137090   5.480   0.695   0.707  0.0889  0.7080 -0.5482
 5225TIP3    H237091   5.420   0.663   0.572  0.4827 -0.3564 -0.4805
 5226TIP3   OH237092   5.699   5.718  13.861  0.4633 -0.5675 -0.9067
 5226TIP3    H137093   5.734   5.651  13.919 -0.1361 -0.6135 -0.5996
 5226TIP3    H237094   5.733   5.801  13.896  3.1612 -0.8027 -2.6113
 5227TIP3   OH237095   4.517   5.916  14.998  0.1180 -0.1998  0.4193
 5227TIP3    H137096   4.527   5.855  14.924 -2.8986  2.5939 -2.6524
 5227TIP3    H237097   4.440   5.968  14.975  0.2117  2.2417  4.7041
 5228TIP3   OH237098   1.264   3.740   3.929 -0.4266  0.5377  0.2593
 5228TIP3    H137099   1.341   3.766   3.879  1.1354 -2.3244  0.9358
 5228TIP3    H237100   1.295   3.739   4.020 -1.0295 -1.1820  0.4820
 5229TIP3   OH237101   3.168   1.887   0.382 -0.5096  0.7748 -0.4205
 5229TIP3    H137102   3.172   1.942   0.304 -1.2733  0.4815 -0.6699
 5229TIP3    H237103   3.148   1.949   0.453  1.9019  1.3227 -0.1338
 5230TIP3   OH237104   1.094   1.098   3.125 -0.4007 -0.1216  0.1944
 5230TIP3    H137105   1.100   1.005   3.102  1.0587 -0.3535  1.3508
 5230TIP3    H237106   1.006   1.109   3.161 -0.9854 -0.7896 -0.9780
 5231TIP3   OH237107   4.527   1.324  14.773 -0.4338  0.0153  0.5560
 5231TIP3    H137108   4.525   1.289  14.683 -2.2839 -1.6847  1.1800
 5231TIP3    H237109   4.620   1.332  14.793  0.0315 -0.3696 -1.2184
 5232TIP3   OH237110   1.372   5.818   0.603  0.5929 -0.2275 -0.1104
 5232TIP3    H137111   1.392   5.731   0.570  2.5941  0.7564 -1.7549
 5232TIP3    H237112   1.280   5.832   0.581  0.4369 -1.6332 -0.4482
 5233TIP3   OH237113   2.851   2.606   5.636 -0.4897 -0.2897 -0.0132
 5233TIP3    H137114   2.857   2.621   5.542 -1.1160  0.6043  0.0784
 5233TIP3    H237115   2.854   2.694   5.675  0.7687 -0.6996  0.8714
 5234TIP3   OH237116   4.909   1.583   5.188 -0.6639  0.5128 -1.1541
 5234TIP3    H137117   4.992   1.621   5.214 -0.7845 -0.2190  0.3797
 5234TIP3    H237118   4.932   1.523   5.116  0.2657 -0.2461 -0.2579
 5235TIP3   OH237119   5.814   1.959  17.209 -0.6497  0.0871 -0.1132
 5235TIP3    H137120   5.725   1.957  17.175 -0.3594 -1.8191 -0.8960
 5235TIP3    H237121   5.808   1.920  17.296 -0.5216 -0.5600 -0.3868
 5236TIP3   OH237122   5.296   0.714   2.370 -0.2207 -0.0857  0.0819
 5236TIP3    H137123   5.336   0.671   2.446  1.6409  2.5827  0.7594
 5236TIP3    H237124   5.227   0.769   2.408 -0.3762  0.0276 -0.3616
 5237TIP3   OH237125   5.195   0.107   0.300  0.7043  0.0361  0.5983
 5237TIP3    H137126   5.169   0.079   0.212 -0.8090 -0.8300  1.2878
 5237TIP3    H237127   5.256   0.039   0.329 -0.8013 -1.1060  1.1882
 5238TIP3   OH237128   5.133   3.308  14.773 -0.5268 -0.3790  0.0213
 5238TIP3    H137129   5.167   3.303  14.863 -0.3585 -1.6722 -0.0860
 5238TIP3    H237130   5.065   3.241  14.770  0.6002 -1.5442 -1.2539
 5239TIP3   OH237131   6.586   1.032   0.746 -0.6434  0.0681 -0.3496
 5239TIP3    H137132   6.654   0.978   0.786 -1.0651  0.4088  0.8702
 5239TIP3    H237133   6.539   1.071   0.820 -2.5009 -0.5546 -1.1381
 5240TIP3   OH237134   4.150   3.731  11.397 -0.0386  0.4822 -0.0488
 5240TIP3    H137135   4.161   3.823  11.371  0.2752 -0.2957 -3.1549
 5240TIP3    H237136   4.088   3.696  11.333  0.1069 -1.5633  0.8627
 5241TIP3   OH237137   0.393   2.093   5.592 -0.0184  0.5945 -0.5184
 5241TIP3    H137138   0.444   2.165   5.628  0.0764  0.7561 -0.9720
 5241TIP3    H237139   0.416   2.017   5.646  1.0698  0.5564 -1.0191
 5242TIP3   OH237140   6.504   4.473   0.083 -0.1199  0.0480 -0.3090
 5242TIP3    H137141   6.496   4.419   0.161  0.5199  1.5757  0.8610
 5242TIP3    H237142   6.580   4.438   0.037 -0.0778 -0.4171  0.1059
 5243TIP3   OH237143   2.553   4.434  12.456  0.2750 -0.1140 -0.0394
 5243TIP3    H137144   2.491   4.361  12.459  2.4485 -2.0494  0.8737
 5243TIP3    H237145   2.541   4.480  12.539 -0.2584 -0.1845 -0.0756
 5244TIP3   OH237146   1.719   4.279  12.671  0.2642  0.2998 -0.3594
 5244TIP3    H137147   1.675   4.195  12.655 -0.3954  0.7754 -1.0696
 5244TIP3    H237148   1.769   4.295  12.591 -1.5742  1.7745 -1.2860
 5245TIP3   OH237149   1.381   2.940  12.871  0.0462 -0.2948 -0.5868
 5245TIP3    H137150   1.348   3.022  12.834  1.9031  0.0134 -1.6880
 5245TIP3    H237151   1.302   2.890  12.892 -1.1415  1.6492 -0.0930
 5246TIP3   OH237152   4.890   0.535   3.333  0.4771  0.0329 -0.2924
 5246TIP3    H137153   4.795   0.524   3.333  0.4017  0.6301 -0.2637
 5246TIP3    H237154   4.912   0.553   3.242  0.6036 -0.4223 -0.3524
 5247TIP3   OH237155   3.853   4.614   3.207  0.0966  0.5846 -0.2513
 5247TIP3    H137156   3.768   4.607   3.163 -0.1713  0.3896  0.2769
 5247TIP3    H237157   3.844   4.692   3.262 -0.8717 -1.0761  2.1313
 5248TIP3   OH237158   6.739   0.618   1.923 -0.1356  0.1301  0.2638
 5248TIP3    H137159   6.707   0.529   1.909  0.9719 -0.2133 -0.2013
 5248TIP3    H237160   6.749   0.654   1.835 -0.9057  0.8572  0.4538
 5249TIP3   OH237161   6.670   4.954  15.421  0.5117  0.1466 -0.1827
 5249TIP3    H137162   6.591   4.923  15.466  0.0126 -0.3179 -1.3521
 5249TIP3    H237163   6.638   4.989  15.338  1.3026  1.9082  0.2091
 5250TIP3   OH237164   6.107   6.498  16.156 -0.0603  0.3519 -0.0121
 5250TIP3    H137165   6.187   6.474  16.202 -1.3849 -2.3392  1.1533
 5250TIP3    H237166   6.114   6.456  16.071  0.3879  1.4151 -0.5163
 5251TIP3   OH237167   2.147   1.274   0.829 -0.4319 -0.4959  0.5990
 5251TIP3    H137168   2.098   1.202   0.870 -0.9677 -0.4557  0.0440
 5251TIP3    H237169   2.190   1.233   0.754  1.0745 -0.7127  1.5413
 5252TIP3   OH237170   2.243   3.348   1.535  0.3247 -0.0039  0.2925
 5252TIP3    H137171   2.215   3.440   1.529  0.7039  0.0377 -2.4126
 5252TIP3    H237172   2.184   3.302   1.475 -1.2607 -2.0055  3.1727
 5253TIP3   OH237173   0.233   3.741   4.070 -0.2794 -0.0276 -0.0767
 5253TIP3    H137174   0.296   3.789   4.124  0.3304 -0.7135 -0.1777
 5253TIP3    H237175   0.279   3.723   3.989 -0.2286 -1.4938  0.2644
 5254TIP3   OH237176   6.582   0.374   6.050  0.3204 -0.4467  0.6342
 5254TIP3    H137177   6.590   0.292   6.098 -0.7986  0.3244  2.2453
 5254TIP3    H237178   6.524   0.428   6.104  2.0699  1.9161  0.3271
 5255TIP3   OH237179   3.600   1.869  11.008  0.2794 -0.5091 -0.5700
 5255TIP3    H137180   3.507   1.878  10.986  0.5365 -0.7391 -1.8575
 5255TIP3    H237181   3.617   1.938  11.071 -0.3309  0.7978 -1.7857
 5256TIP3   OH237182   1.780   1.967  13.550 -0.3750 -0.1929 -0.3344
 5256TIP3    H137183   1.802   2.059  13.531 -2.3033  0.3232 -0.3747
 5256TIP3    H237184   1.711   1.973  13.616 -1.5371 -1.5336 -1.3686
 5257TIP3   OH237185   2.443   5.175   1.579 -0.3067  0.4536 -0.0909
 5257TIP3    H137186   2.460   5.214   1.493  1.5467  1.4043  0.6702
 5257TIP3    H237187   2.490   5.092   1.578  0.9207  1.1194  0.4844
 5258TIP3   OH237188   3.088   5.759   2.211 -0.2002  0.1638 -0.8538
 5258TIP3    H137189   3.040   5.722   2.136  2.0206 -1.6307 -1.4995
 5258TIP3    H237190   3.149   5.821   2.171 -0.5996  0.9678 -0.2429
 5259TIP3   OH237191   1.311   5.192  15.131 -0.3030  0.0634  0.0034
 5259TIP3    H137192   1.293   5.222  15.220 -1.8547  2.6041 -1.0598
 5259TIP3    H237193   1.246   5.124  15.114 -0.1464 -0.2682  0.6884
 5260TIP3   OH237194   4.415   3.595  12.369 -0.4733 -0.1060  0.3289
 5260TIP3    H137195   4.350   3.665  12.358 -0.7858 -0.4621 -0.1556
 5260TIP3    H237196   4.367   3.515  12.350  0.3313 -0.3065 -0.9941
 5261TIP3   OH237197   2.598   2.757   4.209 -0.4112  0.2352 -0.2354
 5261TIP3    H137198   2.551   2.799   4.137  0.2609 -0.4703 -1.1080
 5261TIP3    H237199   2.664   2.702   4.166 -0.7662 -1.1257  0.8940
 5262TIP3   OH237200   3.740   2.895  17.110 -0.3360 -0.4974  0.0826
 5262TIP3    H137201   3.796   2.845  17.170  1.0234 -0.7064 -1.2960
 5262TIP3    H237202   3.801   2.945  17.056 -1.3096 -2.1050 -2.7220
 5263TIP3   OH237203   6.223   1.647  15.123 -0.1087  0.2027  0.7689
 5263TIP3    H137204   6.164   1.629  15.050  1.4317  1.2290 -0.8058
 5263TIP3    H237205   6.288   1.576  15.119 -0.1838  0.1018  1.3229
 5264TIP3   OH237206   6.389   0.806   4.795  0.7607  0.3264 -0.2003
 5264TIP3    H137207   6.414   0.785   4.885  0.9669  0.3029 -0.2619
 5264TIP3    H237208   6.311   0.754   4.779 -0.2680  1.5920  0.5282
 5265TIP3   OH237209   4.771   0.831  13.238  0.2704  0.3646  0.2665
 5265TIP3    H137210   4.849   0.777  13.223 -0.5909 -1.8070  2.9048
 5265TIP3    H237211   4.803   0.905  13.289  1.0573  1.1886 -1.3343
 5266TIP3   OH237212   3.660   1.370   3.783 -0.3895  0.9618 -0.5347
 5266TIP3    H137213   3.583   1.324   3.750 -0.7701  0.6148  0.7777
 5266TIP3    H237214   3.726   1.302   3.797  0.9053  1.4555 -3.4486
 5267TIP3   OH237215   2.039   5.224   3.056 -0.1039 -0.3841 -0.7367
 5267TIP3    H137216   2.034   5.181   3.141 -0.8226 -1.4498 -1.3028
 5267TIP3    H237217   1.966   5.188   3.006 -2.1898  3.0819 -0.5338
 5268TIP3   OH237218   2.838   2.007  15.768  0.2182 -0.5245 -0.1345
 5268TIP3    H137219   2.769   2.022  15.703  0.8708  0.0666 -0.7010
 5268TIP3    H237220   2.876   2.094  15.783  0.1153 -0.6536  1.0073
 5269TIP3   OH237221   1.785   2.716  13.329  0.4418 -0.4352  0.1173
 5269TIP3    H137222   1.848   2.779  13.294 -1.3943  1.0608 -0.7185
 5269TIP3    H237223   1.761   2.661  13.254  1.0745 -1.3075  0.5395
 5270TIP3   OH237224   5.623   1.221  11.607  0.1602 -0.0622  0.6300
 5270TIP3    H137225   5.552   1.170  11.647  0.8201 -0.6278  1.1093
 5270TIP3    H237226   5.699   1.204  11.662  1.1762 -1.0646 -0.9842
 5271TIP3   OH237227   5.632   4.750  12.800  0.0428 -0.1589 -0.1911
 5271TIP3    H137228   5.585   4.789  12.727  1.9096  2.3840 -0.1463
 5271TIP3    H237229   5.608   4.804  12.876  1.7182  0.1578  0.1372
 5272TIP3   OH237230   3.624   1.136  12.737  0.1716 -0.2394  0.7780
 5272TIP3    H137231   3.673   1.184  12.803  1.2733 -1.1605  0.6694
 5272TIP3    H237232   3.680   1.139  12.659 -0.2718 -0.7019  0.4335
 5273TIP3   OH237233   1.367   6.287  17.124  0.0067 -0.7691 -0.1188
 5273TIP3    H137234   1.462   6.281  17.141  0.2656  0.5208 -1.0204
 5273TIP3    H237235   1.355   6.374  17.088 -1.4653 -1.1400 -0.5518
 5274TIP3   OH237236   0.577   1.070  11.575  0.5889 -0.2553 -0.2948
 5274TIP3    H137237   0.550   1.002  11.513 -0.5013 -0.1126  0.0122
 5274TIP3    H237238   0.566   1.152  11.526 -2.9746  0.1222  0.8877
 5275TIP3   OH237239   1.306   3.222  15.638  0.2301  0.4129  0.1141
 5275TIP3    H137240   1.363   3.293  15.609  0.4139  1.0310  1.8799
 5275TIP3    H237241   1.229   3.229  15.581  0.2536  2.0224  0.2259
 5276TIP3   OH237242   2.425   4.417   1.801 -0.1218  0.0477 -0.1504
 5276TIP3    H137243   2.353   4.477   1.815 -0.4662 -0.3684 -0.1198
 5276TIP3    H237244   2.391   4.352   1.740 -1.1643 -2.5016  2.8997
 5277TIP3   OH237245   1.428   0.263  12.016  0.1382  0.2918  0.0791
 5277TIP3    H137246   1.445   0.341  12.069  0.8762 -0.2260  0.6296
 5277TIP3    H237247   1.445   0.292  11.926  2.4878  0.2802  0.4387
 5278TIP3   OH237248   3.602   0.697  14.492  0.1519  0.2706 -0.1036
 5278TIP3    H137249   3.672   0.675  14.430  1.1131  1.5718  0.4806
 5278TIP3    H237250   3.646   0.743  14.563 -1.3342  1.4349  0.1303
 5279TIP3   OH237251   2.175   3.952  11.070 -0.5143  0.5502 -0.5793
 5279TIP3    H137252   2.227   4.024  11.106 -1.1843  0.4925  0.5642
 5279TIP3    H237253   2.239   3.886  11.045 -0.0201 -0.4225  2.7736
 5280TIP3   OH237254   3.993   4.742  14.648  0.4469  0.3876  0.3985
 5280TIP3    H137255   4.063   4.801  14.620  0.3041  1.4601  2.1634
 5280TIP3    H237256   3.912   4.792  14.634  0.1598 -0.1521  0.0786
 5281TIP3   OH237257   6.034   6.372   1.457  0.1904 -0.3399 -0.4711
 5281TIP3    H137258   6.055   6.465   1.465 -0.2466 -0.0467 -2.3011
 5281TIP3    H237259   6.115   6.332   1.424  0.4695 -0.6781  0.5878
 5282TIP3   OH237260   2.124   4.851  16.158 -0.4961 -0.5848 -0.0378
 5282TIP3    H137261   2.167   4.770  16.184 -0.6647 -1.5004 -2.3450
 5282TIP3    H237262   2.194   4.903  16.118 -1.0677 -1.2452 -2.0016
 5283TIP3   OH237263   6.373   0.329   3.373 -0.1814 -0.3060  0.7479
 5283TIP3    H137264   6.312   0.396   3.343 -2.1666 -2.4089 -0.3183
 5283TIP3    H237265   6.366   0.332   3.469 -0.3411  0.8769  0.7158
 5284TIP3   OH237266   1.480   1.874  11.644  0.6006  0.4242  0.0840
 5284TIP3    H137267   1.441   1.956  11.676 -1.6032 -1.1273  1.6608
 5284TIP3    H237268   1.510   1.829  11.722 -1.6784 -1.8976 -0.2468
 5285TIP3   OH237269   1.981   3.454  13.683 -0.2880  0.3272  0.1658
 5285TIP3    H137270   1.951   3.377  13.731  2.8318 -1.1988 -0.0574
 5285TIP3    H237271   2.036   3.501  13.745  0.0662  0.8480 -0.5227
 5286TIP3   OH237272   6.367   6.639  16.841  0.1228  0.0146  0.5943
 5286TIP3    H137273   6.414   6.717  16.871 -0.3959  0.5602  0.0382
 5286TIP3    H237274   6.413   6.612  16.761 -0.3086  0.3640  0.2224
 5287TIP3   OH237275   6.206   0.050   1.437 -0.1192  0.2186 -0.8391
 5287TIP3    H137276   6.224   0.119   1.374 -0.5277 -0.5294 -1.8083
 5287TIP3    H237277   6.234  -0.031   1.393  2.9076 -0.0743  1.2607
 5288TIP3   OH237278   3.772   5.133  16.590 -0.0229 -0.3934 -0.1656
 5288TIP3    H137279   3.677   5.138  16.602  0.2319  1.0736  1.9031
 5288TIP3    H237280   3.787   5.048  16.550 -2.1353 -1.0672  0.3501
 5289TIP3   OH237281   0.597   5.518   1.818 -0.6254  0.2612 -0.4315
 5289TIP3    H137282   0.544   5.597   1.822 -0.1627  0.5969 -0.7022
 5289TIP3    H237283   0.683   5.545   1.851 -0.7187 -0.3634  0.3601
 5290TIP3   OH237284   6.670   4.430  12.202  0.1615 -0.0168 -0.2615
 5290TIP3    H137285   6.581   4.394  12.200 -0.0900  0.5424 -2.5326
 5290TIP3    H237286   6.728   4.354  12.199 -0.2605 -0.3486 -0.0403
 5291TIP3   OH237287   6.285   1.173  16.630  0.2350  0.6349  0.7162
 5291TIP3    H137288   6.328   1.258  16.639  2.5535 -0.3276 -0.3274
 5291TIP3    H237289   6.357   1.110  16.632 -1.3731 -1.2937  1.0377
 5292TIP3   OH237290   2.448   6.151   2.706 -0.3810  0.3939 -0.6045
 5292TIP3    H137291   2.504   6.227   2.700  0.2058 -0.0439 -0.7550
 5292TIP3    H237292   2.478   6.105   2.785 -0.0796 -0.1941 -1.0597
 5293TIP3   OH237293   2.976   1.068  12.258 -0.9323  0.6560  0.2892
 5293TIP3    H137294   3.030   1.021  12.194  0.8701 -2.2776  3.6071
 5293TIP3    H237295   3.029   1.143  12.284 -0.9393  0.9262 -0.4771
 5294TIP3   OH237296   1.134   5.470  12.723  0.4552  0.4522 -0.5548
 5294TIP3    H137297   1.177   5.555  12.726 -0.1946  0.7533  0.8986
 5294TIP3    H237298   1.183   5.415  12.784 -0.0420  0.2200 -0.3577
 5295TIP3   OH237299   2.410   1.172  16.818  0.0135 -0.0305  0.0016
 5295TIP3    H137300   2.501   1.171  16.849  0.9504  1.3945 -2.4238
 5295TIP3    H237301   2.370   1.246  16.863  0.9097  1.0663 -0.9185
 5296TIP3   OH237302   4.597   2.102  13.891  0.0873 -0.4995 -0.2838
 5296TIP3    H137303   4.635   2.061  13.968  0.1313  0.7534  0.3821
 5296TIP3    H237304   4.505   2.077  13.893  0.1279 -0.6241  0.0650
 5297TIP3   OH237305   2.814   4.505   1.986  0.1348 -0.2498 -0.2198
 5297TIP3    H137306   2.728   4.463   1.983  0.0668 -0.1534  0.3731
 5297TIP3    H237307   2.820   4.551   1.902 -0.2884 -0.4570 -0.3707
 5298TIP3   OH237308   4.149   3.272  17.262  0.1939  0.1520 -0.5090
 5298TIP3    H137309   4.146   3.181  17.294 -1.3160 -0.3688 -1.9525
 5298TIP3    H237310   4.097   3.321  17.325 -0.6478 -0.3826 -0.7661
 5299TIP3   OH237311   5.457   1.663   2.716 -0.2006 -0.0073 -0.0065
 5299TIP3    H137312   5.484   1.656   2.625 -1.1651 -0.2645 -0.2829
 5299TIP3    H237313   5.536   1.642   2.766  0.4409  0.5207 -0.7686
 5300TIP3   OH237314   1.713   5.174   6.497 -0.2792  0.1642 -0.0708
 5300TIP3    H137315   1.637   5.157   6.552 -0.0523 -1.0325 -0.1025
 5300TIP3    H237316   1.711   5.269   6.481 -1.5259  0.2008  0.2487
 5301TIP3   OH237317   1.918   1.930  16.645  0.5711 -0.0558 -0.5261
 5301TIP3    H137318   1.951   1.857  16.698  0.6656 -0.6560 -1.3956
 5301TIP3    H237319   1.833   1.899  16.613  0.5418  0.2808 -0.7684
 5302TIP3   OH237320   6.036   1.477   4.673 -0.5360 -0.5448 -0.0916
 5302TIP3    H137321   6.115   1.427   4.651 -0.9931 -0.6319 -1.6527
 5302TIP3    H237322   5.992   1.489   4.590 -0.0633  3.1669  0.0459
 5303TIP3   OH237323   1.642   6.491  13.605  0.0059  0.4272 -0.1086
 5303TIP3    H137324   1.627   6.472  13.513  2.8596 -2.9014 -0.1078
 5303TIP3    H237325   1.563   6.460  13.649 -0.1106 -0.9804 -1.2190
 5304TIP3   OH237326   4.732   5.324  16.130  0.5190  0.6107  0.6059
 5304TIP3    H137327   4.698   5.413  16.122 -0.6987  0.0975 -0.2195
 5304TIP3    H237328   4.662   5.268  16.095  1.7908 -0.5667 -0.1666
 5305TIP3   OH237329   4.422   6.297   4.307  0.9908  0.4605 -0.5770
 5305TIP3    H137330   4.472   6.249   4.374 -2.1723  0.0872  1.7308
 5305TIP3    H237331   4.443   6.389   4.323  0.2794  0.3765  0.9815
 5306TIP3   OH237332   1.341   4.426   4.302  0.1105  0.2689 -0.2444
 5306TIP3    H137333   1.395   4.404   4.378  1.2848 -0.4048 -1.2403
 5306TIP3    H237334   1.293   4.505   4.328  1.6516  0.9469  0.6246
 5307TIP3   OH237335   0.037   4.351   1.790  0.2254  0.4758 -0.1948
 5307TIP3    H137336   0.054   4.429   1.737  0.2207  3.7683  4.1166
 5307TIP3    H237337   0.121   4.333   1.833  0.2986 -2.2571 -1.2641
 5308TIP3   OH237338   0.726   2.105  12.877 -0.2517  0.1974 -0.4537
 5308TIP3    H137339   0.696   2.163  12.807  0.6423 -0.1638 -1.1545
 5308TIP3    H237340   0.651   2.049  12.896 -0.2722 -0.2133 -1.6722
 5309TIP3   OH237341   6.592   1.328  15.616  0.0332 -0.2325 -0.7698
 5309TIP3    H137342   6.648   1.315  15.539 -0.0171  0.7927 -0.9907
 5309TIP3    H237343   6.620   1.413  15.651 -1.8657  0.6699 -1.3134
 5310TIP3   OH237344   4.447   3.807   2.147 -0.8742 -0.1207 -0.5622
 5310TIP3    H137345   4.375   3.864   2.175  0.3927  2.5491 -2.4078
 5310TIP3    H237346   4.525   3.848   2.182  0.0533 -1.1122 -1.4061
 5311TIP3   OH237347   0.182   6.240   2.162  0.5160 -0.1189 -0.3235
 5311TIP3    H137348   0.265   6.193   2.171  1.0930  1.0855  1.2665
 5311TIP3    H237349   0.190   6.290   2.081  0.0804 -2.3221 -1.7810
 5312TIP3   OH237350   2.510   0.199  12.500 -0.1530  0.2169 -0.0464
 5312TIP3    H137351   2.450   0.249  12.555  1.4090  1.6608  0.4091
 5312TIP3    H237352   2.497   0.233  12.412 -0.2070  0.2921 -0.0093
 5313TIP3   OH237353   0.560   2.002   1.891  0.3516  0.2936 -1.0235
 5313TIP3    H137354   0.470   1.983   1.917  1.4890 -1.4117  2.2870
 5313TIP3    H237355   0.595   1.918   1.860  1.0532  0.7384 -1.4818
 5314TIP3   OH237356   5.692   5.765  13.341  0.3186 -0.3873  0.4262
 5314TIP3    H137357   5.740   5.713  13.276  1.4629  1.6062 -0.4418
 5314TIP3    H237358   5.670   5.846  13.295 -1.6396 -0.1793  1.6261
 5315TIP3   OH237359   0.120   5.071   5.432  0.3337 -0.3802 -0.4928
 5315TIP3    H137360   0.109   5.090   5.339 -1.8735 -0.9110 -0.4000
 5315TIP3    H237361   0.146   4.979   5.434  0.1473 -0.4354 -0.5752
 5316TIP3   OH237362   4.998   0.848   0.635 -0.1556  0.3034  0.4544
 5316TIP3    H137363   5.018   0.857   0.542  2.3594 -2.1871  0.6114
 5316TIP3    H237364   4.904   0.829   0.637 -0.5264  1.6336 -1.4286
 5317TIP3   OH237365   5.040   1.650   0.844 -0.2132  0.2079 -0.3338
 5317TIP3    H137366   5.073   1.687   0.762  0.9729 -0.1044 -0.0194
 5317TIP3    H237367   4.945   1.659   0.838 -0.0354  3.3307 -0.2873
 5318TIP3   OH237368   3.311   2.001  11.646  0.1892  0.6151  0.3475
 5318TIP3    H137369   3.298   1.986  11.552 -0.1214  0.7553  0.3677
 5318TIP3    H237370   3.400   2.036  11.653 -0.4125  2.2916 -0.0684
 5319TIP3   OH237371   4.908   5.585   0.270 -0.1954 -0.5507  0.4562
 5319TIP3    H137372   4.871   5.529   0.202 -0.3666 -0.0816  0.1606
 5319TIP3    H237373   4.840   5.589   0.337 -0.5001 -0.0652  0.1227
 5320TIP3   OH237374   5.710   4.478   5.460  0.2718  0.1246 -0.0215
 5320TIP3    H137375   5.744   4.529   5.387  0.4515 -1.9942 -1.4859
 5320TIP3    H237376   5.623   4.515   5.477  0.3530  0.8427 -1.1040
 5321TIP3   OH237377   1.234   3.692  15.194 -0.5035 -0.2298 -0.0758
 5321TIP3    H137378   1.294   3.679  15.268 -0.2104  2.1538  0.1991
 5321TIP3    H237379   1.254   3.780  15.163 -4.5934  1.2152  0.7632
 5322TIP3   OH237380   2.901   5.730  14.917  0.3321 -0.5190 -0.2823
 5322TIP3    H137381   2.841   5.680  14.861 -0.2814  0.5049 -0.5693
 5322TIP3    H237382   2.852   5.748  14.997  0.0577  0.7058 -0.6945
 5323TIP3   OH237383   5.134   1.367  14.485 -0.3062  0.0239  0.2932
 5323TIP3    H137384   5.203   1.340  14.545 -0.8405 -1.5965  0.2180
 5323TIP3    H237385   5.130   1.463  14.494  0.0812 -0.1205  2.3238
 5324TIP3   OH237386   5.586   6.623  12.245 -0.0169  0.3702 -0.4503
 5324TIP3    H137387   5.568   6.687  12.314  2.3358  0.7915 -0.1411
 5324TIP3    H237388   5.543   6.659  12.167  0.2161  1.6943  0.0141
 5325TIP3   OH237389   4.515   6.027   0.773 -0.1337  0.0378 -0.5582
 5325TIP3    H137390   4.560   6.108   0.751  1.4407 -0.7799 -0.4758
 5325TIP3    H237391   4.519   5.974   0.693 -2.1662  0.4494 -0.9787
 5326TIP3   OH237392   1.005   5.128  16.980 -0.3197  0.2736 -0.1082
 5326TIP3    H137393   0.912   5.109  16.969  0.1618 -1.7397 -1.0330
 5326TIP3    H237394   1.045   5.043  16.998  1.7395  0.5382 -2.7590
 5327TIP3   OH237395   2.763   2.975   4.816 -0.1855 -0.2081 -0.1236
 5327TIP3    H137396   2.827   2.907   4.795 -0.6197 -0.7388  0.2482
 5327TIP3    H237397   2.799   3.020   4.892 -0.5977 -0.9928  0.5515
 5328TIP3   OH237398   0.587   5.074  14.022 -0.4272  0.1060  0.3918
 5328TIP3    H137399   0.539   5.105  14.099 -1.7148  0.5985 -0.5712
 5328TIP3    H237400   0.617   4.986  14.046  0.1120  0.6433  1.8197
 5329TIP3   OH237401   4.051   2.335   3.443  0.2566 -0.3530 -0.6743
 5329TIP3    H137402   3.987   2.313   3.375 -1.1788  1.3246  0.0691
 5329TIP3    H237403   4.084   2.422   3.417 -0.5173  0.4418  0.8661
 5330TIP3   OH237404   6.154   2.750  14.789  0.0337 -0.2836  0.7734
 5330TIP3    H137405   6.227   2.739  14.728  0.0923  0.1991  0.7507
 5330TIP3    H237406   6.155   2.843  14.810 -2.3457  0.3443 -1.4437
 5331TIP3   OH237407   3.283   5.747  15.791  0.0585  0.3592  0.1295
 5331TIP3    H137408   3.269   5.833  15.831 -1.0039  0.5616 -0.6230
 5331TIP3    H237409   3.307   5.767  15.700  1.7172 -0.1060  0.4500
 5332TIP3   OH237410   0.836   2.299   5.748 -0.3103 -0.0107  0.2925
 5332TIP3    H137411   0.893   2.314   5.673 -0.9360  0.3560 -0.1077
 5332TIP3    H237412   0.887   2.241   5.805 -0.5986 -1.9544 -1.3210
 5333TIP3   OH237413   6.449   1.514   6.665  0.5880  0.3815 -0.4649
 5333TIP3    H137414   6.449   1.421   6.640  0.4482  0.2413  0.0417
 5333TIP3    H237415   6.501   1.557   6.597 -1.0914  0.2701 -1.8666
 5334TIP3   OH237416   3.102   6.294  15.999 -0.0626  0.6594 -0.2564
 5334TIP3    H137417   3.054   6.241  16.063 -0.3529 -0.3694 -1.2834
 5334TIP3    H237418   3.047   6.293  15.921  1.7018 -0.8015 -1.5662
 5335TIP3   OH237419   2.557   5.836   4.865 -0.5373 -0.0454 -0.0358
 5335TIP3    H137420   2.494   5.764   4.865  0.2791 -0.8216 -2.0285
 5335TIP3    H237421   2.522   5.899   4.801  1.3824 -1.2117 -2.3986
 5336TIP3   OH237422   6.423   2.346  11.648  0.2499  0.5817 -0.1616
 5336TIP3    H137423   6.472   2.415  11.694 -0.9151  0.0282  2.0567
 5336TIP3    H237424   6.395   2.286  11.718  1.3289 -2.2772 -1.9939
 5337TIP3   OH237425   4.706   5.896  11.639 -0.3580 -1.0736 -0.1268
 5337TIP3    H137426   4.764   5.841  11.585  0.9881 -0.4380  0.6218
 5337TIP3    H237427   4.741   5.985  11.628 -1.3606 -0.6320  0.1502
 5338TIP3   OH237428   2.926   1.557   2.647  0.1280  0.1097  0.1259
 5338TIP3    H137429   2.834   1.533   2.642  0.4417 -0.9284 -1.4632
 5338TIP3    H237430   2.959   1.510   2.723 -0.4974 -0.0999  0.2705
 5339TIP3   OH237431   2.671   2.848  12.554  0.1952  0.1430 -0.3720
 5339TIP3    H137432   2.763   2.876  12.547  0.3056 -0.2400 -0.4511
 5339TIP3    H237433   2.622   2.930  12.545  0.5767  0.7281  2.0993
 5340TIP3   OH237434   4.900   5.311   3.092  0.3077 -1.0482  0.0891
 5340TIP3    H137435   4.953   5.300   3.171 -0.0306 -1.4333  0.2677
 5340TIP3    H237436   4.909   5.229   3.045 -2.1232 -2.1545  1.3658
 5341TIP3   OH237437   5.246   4.782   2.792 -0.3670  0.5972 -0.3233
 5341TIP3    H137438   5.184   4.852   2.771 -0.5447  1.0877  1.6399
 5341TIP3    H237439   5.228   4.760   2.884 -1.4945 -3.2424 -1.2473
 5342TIP3   OH237440   0.479   5.005   4.894  0.2103 -0.1301  0.5105
 5342TIP3    H137441   0.437   4.945   4.956  0.9902 -0.3360  0.8499
 5342TIP3    H237442   0.570   4.977   4.892  0.7426  1.4413  1.1872
 5343TIP3   OH237443   2.864   4.652  16.384  0.3711  0.4093  0.0163
 5343TIP3    H137444   2.909   4.656  16.468  0.1320  0.6219  0.1372
 5343TIP3    H237445   2.902   4.577  16.339 -0.5168 -0.5977  0.8997
 5344TIP3   OH237446   3.731   2.356  11.819  0.4004 -0.2496 -0.4477
 5344TIP3    H137447   3.797   2.392  11.879 -1.7395  0.3392  1.6893
 5344TIP3    H237448   3.655   2.338  11.874 -0.7614 -2.3461 -2.5389
 5345TIP3   OH237449   2.552   3.502  13.341  0.7084 -0.5986  0.0965
 5345TIP3    H137450   2.564   3.567  13.410 -2.3109 -0.1626  0.3499
 5345TIP3    H237451   2.557   3.552  13.259 -0.1194 -0.2864  0.2279
 5346TIP3   OH237452   5.292   1.395  13.829 -0.1065  0.3665  0.1795
 5346TIP3    H137453   5.267   1.318  13.777  0.4950  0.8439 -0.8526
 5346TIP3    H237454   5.385   1.383  13.846 -0.2627  0.3071  0.9966
 5347TIP3   OH237455   1.061   6.293   3.752 -0.5338 -0.0622 -0.3218
 5347TIP3    H137456   1.006   6.269   3.827  0.7176 -0.1781  0.6020
 5347TIP3    H237457   1.086   6.384   3.769 -0.7245  0.1012 -0.9112
 5348TIP3   OH237458   5.357   3.562   1.388 -0.3741 -0.3341 -0.3442
 5348TIP3    H137459   5.269   3.597   1.403 -1.5029 -3.3280  0.6924
 5348TIP3    H237460   5.402   3.573   1.472  0.6402  1.9085 -1.0833
 5349TIP3   OH237461   3.793   4.672  14.955  0.2208 -0.5964 -0.1779
 5349TIP3    H137462   3.796   4.757  15.000 -0.1989  0.3284 -1.7985
 5349TIP3    H237463   3.881   4.660  14.920  0.2178 -0.7137 -0.1460
 5350TIP3   OH237464   3.886   2.484   5.656  0.6173  0.0003 -0.3195
 5350TIP3    H137465   3.841   2.525   5.730 -0.7213 -0.0716 -1.0593
 5350TIP3    H237466   3.916   2.557   5.602  1.1600  0.0438  0.0347
 5351TIP3   OH237467   5.113   0.684  11.609 -0.5849  0.0581 -0.0723
 5351TIP3    H137468   5.156   0.603  11.583 -3.1662 -1.9282  1.3410
 5351TIP3    H237469   5.165   0.717  11.683  0.2096 -0.5711 -0.3403
 5352TIP3   OH237470   2.396   0.828  13.293  0.2155  0.2647  0.1041
 5352TIP3    H137471   2.416   0.744  13.335 -0.7634 -0.8917 -1.6677
 5352TIP3    H237472   2.479   0.854  13.252  0.6146  0.3730  0.9423
 5353TIP3   OH237473   2.529   6.696  16.536 -0.4262  0.5337 -0.6208
 5353TIP3    H137474   2.506   6.780  16.496  1.0064  1.2675  0.0353
 5353TIP3    H237475   2.622   6.704  16.557 -0.8110 -0.3252  1.6228
 5354TIP3   OH237476   1.090   3.424  14.081 -0.3190  0.1572 -0.3779
 5354TIP3    H137477   1.099   3.337  14.043 -1.2677  0.5754 -1.6023
 5354TIP3    H237478   1.009   3.420  14.132 -0.4530  0.3774 -0.5741
 5355TIP3   OH237479   3.415   6.284   2.992 -0.1288  0.1208 -0.6376
 5355TIP3    H137480   3.372   6.338   3.058  2.0357  1.6121 -0.3448
 5355TIP3    H237481   3.344   6.250   2.938 -1.7368  1.3387  0.6279
 5356TIP3   OH237482   6.139   4.930   2.148  0.3701  0.1251 -0.4886
 5356TIP3    H137483   6.062   4.878   2.171  0.5353 -0.3991 -1.0876
 5356TIP3    H237484   6.118   4.965   2.061  0.9231 -0.2592 -0.7783
 5357TIP3   OH237485   1.291   6.561  13.923  0.5185 -0.0774 -0.1754
 5357TIP3    H137486   1.345   6.638  13.908  0.1420  0.1971 -0.1411
 5357TIP3    H237487   1.353   6.488  13.926  0.9090  0.2623  0.0963
 5358TIP3   OH237488   6.137   2.168   5.482 -0.1224  0.0445 -0.1067
 5358TIP3    H137489   6.159   2.144   5.572 -1.7163 -0.0263  0.2943
 5358TIP3    H237490   6.141   2.264   5.481  1.5786  0.0071 -0.4512
 5359TIP3   OH237491   3.049   6.442  16.436  0.3637 -0.1017  0.1470
 5359TIP3    H137492   2.957   6.461  16.416  0.5912  1.0681  0.1579
 5359TIP3    H237493   3.047   6.403  16.524 -0.2916 -1.9073 -0.6290
 5360TIP3   OH237494   0.304   3.233   5.643  0.0546  0.0025 -0.0039
 5360TIP3    H137495   0.376   3.187   5.600  1.3246 -0.6084  2.6391
 5360TIP3    H237496   0.235   3.166   5.650 -0.4450  0.2965 -1.5774
 5361TIP3   OH237497   0.256   1.989  17.130 -1.0831  0.2214 -0.1489
 5361TIP3    H137498   0.238   1.916  17.189 -1.0160  1.3103  1.2690
 5361TIP3    H237499   0.347   2.013  17.148 -0.5557 -0.3860 -1.8110
 5362TIP3   OH237500   5.340   6.113   0.320  0.6590  0.4379  0.2307
 5362TIP3    H137501   5.350   6.162   0.402  0.9121  0.4580  0.1900
 5362TIP3    H237502   5.384   6.030   0.336  0.2965  0.2534  0.2728
 5363TIP3   OH237503   6.761   1.640   4.092  0.4936  0.3340 -0.0549
 5363TIP3    H137504   6.855   1.654   4.096  0.2777  1.9135  0.1577
 5363TIP3    H237505   6.735   1.625   4.183  0.5569 -0.3024 -0.1375
 5364TIP3   OH237506   3.340   6.051  14.781 -0.0186  0.0324  0.1001
 5364TIP3    H137507   3.257   6.045  14.829 -0.1374  1.6156  0.1490
 5364TIP3    H237508   3.316   6.041  14.689 -0.5991  2.3385 -0.0721
 5365TIP3   OH237509   1.035   4.149   0.647 -0.1396 -0.4579 -0.6108
 5365TIP3    H137510   1.043   4.190   0.733  0.2408  0.5681 -1.1157
 5365TIP3    H237511   1.125   4.133   0.619 -0.2767 -1.5053 -0.5031
 5366TIP3   OH237512   3.056   0.881   1.306 -0.4097 -0.0128 -0.4179
 5366TIP3    H137513   3.113   0.811   1.274 -1.1523 -1.4265  1.2196
 5366TIP3    H237514   3.083   0.958   1.256  0.5466 -1.4021 -2.1662
 5367TIP3   OH237515   6.169   1.369   2.929  0.2133 -0.0479  0.1184
 5367TIP3    H137516   6.166   1.304   3.000  3.0278 -0.4880 -0.0474
 5367TIP3    H237517   6.229   1.436   2.961 -0.3978  1.0287 -0.9046
 5368TIP3   OH237518   4.128   3.135  12.507 -0.0929 -0.3556  0.4482
 5368TIP3    H137519   4.107   3.222  12.474 -0.8203 -1.2956 -1.8317
 5368TIP3    H237520   4.043   3.097  12.531  0.4696  0.6279  4.7022
 5369TIP3   OH237521   6.619   6.360   4.163  0.0650 -0.6263  0.0624
 5369TIP3    H137522   6.668   6.391   4.239 -0.3428  0.0320  0.0651
 5369TIP3    H237523   6.551   6.426   4.150  0.5130 -0.3880 -1.2610
 5370TIP3   OH237524   4.544   4.989  17.065 -1.2443 -0.7491 -0.0259
 5370TIP3    H137525   4.488   5.005  17.141 -2.9764 -0.9448 -1.1873
 5370TIP3    H237526   4.494   4.927  17.012  0.9415 -2.4391 -0.2563
 5371TIP3   OH237527   3.854   0.279   5.273 -0.0691  0.4704 -0.2659
 5371TIP3    H137528   3.885   0.329   5.198 -1.0579  0.8792 -0.4173
 5371TIP3    H237529   3.784   0.225   5.239  0.9345 -1.0131 -0.0860
 5372TIP3   OH237530   3.590   3.314   1.513  0.4481  0.1621 -0.3897
 5372TIP3    H137531   3.628   3.396   1.544 -1.2435  1.4152 -1.4498
 5372TIP3    H237532   3.629   3.302   1.426  1.1160 -0.4869 -0.0124
 5373TIP3   OH237533   5.118   6.441  14.536 -0.1643  0.2055 -0.5267
 5373TIP3    H137534   5.123   6.467  14.444 -1.4133 -0.5907 -0.8449
 5373TIP3    H237535   5.112   6.346  14.533  0.2166  0.1451  0.4056
 5374TIP3   OH237536   6.443   0.998  13.931 -0.2152 -0.6869 -0.5112
 5374TIP3    H137537   6.523   1.046  13.908  0.1867 -0.4066  1.3253
 5374TIP3    H237538   6.381   1.067  13.954  0.1656 -0.9547  1.5210
 5375TIP3   OH237539   1.308   0.998   5.316  0.2237 -0.2888 -0.1787
 5375TIP3    H137540   1.266   0.920   5.281  0.0728 -0.7980  1.0761
 5375TIP3    H237541   1.333   1.049   5.239 -1.5295 -0.5763 -0.9724
 5376TIP3   OH237542   0.579   6.055   6.183 -0.0840 -0.0045 -0.9049
 5376TIP3    H137543   0.611   6.048   6.093  2.2595  0.4121 -0.1525
 5376TIP3    H237544   0.647   6.015   6.236 -0.8426  0.8844  0.8095
 5377TIP3   OH237545   3.108   3.764  11.872  0.2377 -0.4477  0.1282
 5377TIP3    H137546   3.052   3.746  11.797 -0.4221  1.5383  0.0972
 5377TIP3    H237547   3.142   3.678  11.898  1.3874 -1.0832 -3.0899
 5378TIP3   OH237548   0.948   0.877  13.916 -0.5953 -0.2757  0.5493
 5378TIP3    H137549   0.869   0.929  13.898 -0.9853  0.0596  2.8833
 5378TIP3    H237550   1.013   0.910  13.854 -1.2870  1.9503  0.9197
 5379TIP3   OH237551   3.569   5.874   0.596  0.2908  0.0666 -0.4241
 5379TIP3    H137552   3.550   5.912   0.510  1.3767  1.6223  0.0003
 5379TIP3    H237553   3.545   5.781   0.586  1.5077 -0.0781 -2.7876
 5380TIP3   OH237554   4.499   4.010  13.249  0.1786  0.9295 -0.9385
 5380TIP3    H137555   4.412   3.993  13.215 -0.3164 -0.9877  1.0197
 5380TIP3    H237556   4.554   4.022  13.171 -1.5803  0.8719 -2.2357
 5381TIP3   OH237557   3.158   2.712   5.991  0.1847 -0.3262 -0.2756
 5381TIP3    H137558   3.207   2.773   6.047 -1.7430 -0.3232  1.5446
 5381TIP3    H237559   3.078   2.760   5.968 -2.5969 -2.7141  3.2128
 5382TIP3   OH237560   3.942   6.579   4.825  0.0773 -0.5800 -0.1596
 5382TIP3    H137561   3.975   6.501   4.869  1.2509 -0.0555 -0.0609
 5382TIP3    H237562   3.986   6.579   4.740 -0.4212 -0.3751 -0.4206
 5383TIP3   OH237563   4.720   3.993  16.819 -0.0921 -0.5746  0.4351
 5383TIP3    H137564   4.723   4.021  16.728  0.8308 -0.3932  0.5204
 5383TIP3    H237565   4.665   3.914  16.818  1.9796 -2.0999 -0.6841
 5384TIP3   OH237566   5.118   5.232   2.192 -0.0230  0.2608 -0.2037
 5384TIP3    H137567   5.039   5.282   2.169 -0.3315 -0.0615  0.1458
 5384TIP3    H237568   5.189   5.296   2.184 -0.0281  0.0752 -2.4862
 5385TIP3   OH237569   6.458   6.370  10.916  0.4696  0.0585 -0.1458
 5385TIP3    H137570   6.535   6.343  10.865  0.9145  1.0033  0.0176
 5385TIP3    H237571   6.431   6.453  10.878 -2.1239 -1.4905 -1.9544
 5386TIP3   OH237572   3.631   0.368  11.807  0.3352 -0.3422  0.1597
 5386TIP3    H137573   3.578   0.297  11.844 -2.0152  0.9940 -0.4149
 5386TIP3    H237574   3.667   0.332  11.726 -0.6334 -0.9759 -0.0041
 5387TIP3   OH237575   3.231   0.591  15.817  0.8657  0.0344  0.2294
 5387TIP3    H137576   3.217   0.508  15.772 -0.1686  1.4957 -2.4586
 5387TIP3    H237577   3.156   0.599  15.876 -0.0545 -0.2024 -0.8481
 5388TIP3   OH237578   4.962   6.483  13.432 -0.0492 -0.0452  0.3184
 5388TIP3    H137579   4.999   6.395  13.440 -0.5735 -0.1192  2.7734
 5388TIP3    H237580   4.960   6.500  13.338  0.2706 -2.5545 -0.2056
 5389TIP3   OH237581   1.978   2.938  16.323 -0.1313 -0.2302  0.1906
 5389TIP3    H137582   1.911   2.870  16.317 -2.5360  2.0475 -0.3511
 5389TIP3    H237583   2.040   2.915  16.254 -1.7049 -1.0530 -1.0258
 5390TIP3   OH237584   5.930   1.818  15.235  0.0540 -0.4809 -0.0028
 5390TIP3    H137585   5.868   1.888  15.215  0.6110 -0.2613 -1.0619
 5390TIP3    H237586   5.883   1.760  15.294 -0.1435  1.2317  1.6534
 5391TIP3   OH237587   2.578   3.902  16.393  0.5031  0.0666  0.2442
 5391TIP3    H137588   2.632   3.882  16.317  1.0073  0.8412  0.3870
 5391TIP3    H237589   2.505   3.840  16.388  0.6397 -0.0298 -0.7501
 5392TIP3   OH237590   6.111   0.042  14.268  0.1084  0.2808 -0.2387
 5392TIP3    H137591   6.068   0.059  14.184 -0.3719 -4.7006 -1.2942
 5392TIP3    H237592   6.178  -0.023  14.248  0.9899 -0.0167  3.0710
 5393TIP3   OH237593   3.221   0.400  14.787 -0.1968 -0.0475  0.5079
 5393TIP3    H137594   3.216   0.453  14.866  0.2388  0.7348  0.0300
 5393TIP3    H237595   3.133   0.364  14.776  0.1056 -1.4414  2.1737
 5394TIP3   OH237596   6.155   3.299   1.607 -0.2607 -0.2100  0.6614
 5394TIP3    H137597   6.089   3.236   1.636 -1.3693  0.2519 -0.7632
 5394TIP3    H237598   6.150   3.371   1.670 -0.1614 -0.7747  1.3230
 5395TIP3   OH237599   1.696   3.497  13.253  0.1878  0.2477 -0.2122
 5395TIP3    H137600   1.711   3.446  13.333 -0.3971  0.3231 -0.0534
 5395TIP3    H237601   1.734   3.443  13.183 -2.1486 -1.3999 -0.3331
 5396TIP3   OH237602   0.544   5.720  12.959 -0.1843  0.5747  0.4236
 5396TIP3    H137603   0.502   5.799  12.925  0.0701  0.0984 -1.0624
 5396TIP3    H237604   0.526   5.652  12.893  1.5895 -0.0224  0.4884
 5397TIP3   OH237605   6.683   1.471  11.317 -0.3901  0.0379  0.0827
 5397TIP3    H137606   6.607   1.489  11.372 -0.4662 -1.1234  0.3842
 5397TIP3    H237607   6.757   1.466  11.379  0.0661  1.7567 -0.2665
 5398TIP3   OH237608   3.807   3.871   6.076 -0.0030  0.2085 -0.9592
 5398TIP3    H137609   3.759   3.912   6.147  0.3766  0.4368 -0.8325
 5398TIP3    H237610   3.832   3.785   6.110  0.6439  0.5231 -0.6107
 5399TIP3   OH237611   1.343   3.861  13.822  0.5464 -0.0611 -0.4962
 5399TIP3    H137612   1.318   3.853  13.730  1.0249  0.6698 -0.6996
 5399TIP3    H237613   1.395   3.942  13.825 -0.1311  0.3499  0.5562
 5400TIP3   OH237614   1.191   3.045  16.641 -0.1762  0.0601 -0.1676
 5400TIP3    H137615   1.218   3.129  16.603  1.5324 -1.6472 -3.0933
 5400TIP3    H237616   1.116   3.018  16.588 -0.1412 -0.6813  0.1486
 5401TIP3   OH237617   0.870   6.226  13.363  0.1022 -0.0723 -0.1411
 5401TIP3    H137618   0.790   6.223  13.311 -0.3951  1.4146  0.4854
 5401TIP3    H237619   0.863   6.152  13.422  0.5280 -1.6092 -1.9227
 5402TIP3   OH237620   4.044   6.414   6.359  0.4132  0.7415 -0.1735
 5402TIP3    H137621   4.072   6.342   6.416 -1.4686  0.5670  0.6097
 5402TIP3    H237622   4.104   6.411   6.285  0.2902 -1.7484 -0.2461
 5403TIP3   OH237623   4.237   6.163  15.925  0.0333 -0.2017  0.1851
 5403TIP3    H137624   4.212   6.204  15.842  1.4006 -0.3665 -0.3301
 5403TIP3    H237625   4.245   6.236  15.986  1.5871  0.2448 -0.5045
 5404TIP3   OH237626   6.303   1.431  13.664 -0.2342 -0.6495  0.2192
 5404TIP3    H137627   6.260   1.345  13.659 -0.4680 -0.5430  0.3844
 5404TIP3    H237628   6.270   1.478  13.587  0.5474 -1.0011 -0.3417
 5405TIP3   OH237629   6.565   6.005  14.024 -0.2216  0.3395  0.2126
 5405TIP3    H137630   6.603   5.959  14.099  0.9910 -1.0902 -1.1984
 5405TIP3    H237631   6.473   5.981  14.025 -0.7366  2.0987  2.4489
 5406TIP3   OH237632   4.461   2.264  14.150 -0.5445 -0.3428 -0.2841
 5406TIP3    H137633   4.387   2.211  14.181 -1.0883 -0.5858 -1.8817
 5406TIP3    H237634   4.447   2.271  14.056  1.5143 -0.4113 -0.6316
 5407TIP3   OH237635   6.373   2.531   4.455 -0.5440 -0.1034 -0.5664
 5407TIP3    H137636   6.395   2.453   4.403  0.2715 -0.7151  0.6560
 5407TIP3    H237637   6.421   2.602   4.413 -1.9343 -0.0568 -2.1942
 5408TIP3   OH237638   0.027   5.464  11.528  0.1967 -0.5895 -0.6837
 5408TIP3    H137639  -0.024   5.424  11.457 -1.9221  0.0072  0.4199
 5408TIP3    H237640   0.033   5.557  11.503 -2.3811  0.0698  0.8145
 5409TIP3   OH237641   6.391   2.297   0.209  0.2715 -0.6952 -0.2087
 5409TIP3    H137642   6.354   2.257   0.130 -0.3396  0.2048 -0.4055
 5409TIP3    H237643   6.325   2.362   0.235  0.7341 -0.5901  0.7127
 5410TIP3   OH237644   4.385   0.184  11.164 -0.2131 -0.0902  0.0315
 5410TIP3    H137645   4.419   0.222  11.245 -1.3876  0.1555  0.4429
 5410TIP3    H237646   4.462   0.159  11.114  0.5375 -0.3727  1.2908
 5411TIP3   OH237647   1.757   2.283   5.900 -0.2437 -0.1179 -0.8929
 5411TIP3    H137648   1.838   2.276   5.851  0.4133 -0.0919  0.1588
 5411TIP3    H237649   1.768   2.360   5.956 -0.1097 -1.3027  0.7983
 5412TIP3   OH237650   2.477   4.439  14.242  0.2527  0.4797 -0.5483
 5412TIP3    H137651   2.507   4.387  14.167  0.0418 -2.0425  1.0100
 5412TIP3    H237652   2.392   4.402  14.266  0.2174  1.3512  0.8155
 5413TIP3   OH237653   5.517   3.593  14.598  0.1929  0.2440 -0.3797
 5413TIP3    H137654   5.468   3.546  14.530 -1.2000  1.4995 -0.2846
 5413TIP3    H237655   5.455   3.657  14.633  1.6203  1.2544  0.4159
 5414TIP3   OH237656   4.492   6.617   2.775 -0.3379  0.1140 -0.3931
 5414TIP3    H137657   4.486   6.655   2.687 -1.0245  0.3851 -0.2336
 5414TIP3    H237658   4.580   6.641   2.805 -1.0608  2.3957  0.0612
 5415TIP3   OH237659   1.715   2.042  14.471  0.9223  0.5157 -0.4505
 5415TIP3    H137660   1.693   1.952  14.497 -0.6732  1.4241  1.6009
 5415TIP3    H237661   1.809   2.049  14.488  0.7721 -0.3151  0.8527
 5416TIP3   OH237662   1.118   1.042   4.648  0.1119 -0.1825 -0.9216
 5416TIP3    H137663   1.096   1.118   4.701 -1.7021 -0.9371 -0.4805
 5416TIP3    H237664   1.125   0.970   4.711  1.0810 -0.5202 -1.3960
 5417TIP3   OH237665   3.374   4.329  11.870  0.1044 -0.4274  0.1830
 5417TIP3    H137666   3.351   4.412  11.829  1.3132 -0.6726 -1.0880
 5417TIP3    H237667   3.337   4.262  11.813 -0.2605 -0.7717  0.8128
 5418TIP3   OH237668   2.369   0.288   2.144  0.2746  0.5295  0.2285
 5418TIP3    H137669   2.366   0.344   2.221  3.3945  1.1976 -0.0169
 5418TIP3    H237670   2.416   0.339   2.079 -0.8912 -0.6408 -1.6211
 5419TIP3   OH237671   3.918   4.414   0.832 -0.0640 -0.2982  0.0316
 5419TIP3    H137672   3.938   4.507   0.830  1.5626 -0.5514  1.5339
 5419TIP3    H237673   3.913   4.388   0.740 -0.7803  1.2803 -0.4171
 5420TIP3   OH237674   0.030   0.831   6.551 -0.3546  0.1377  0.1600
 5420TIP3    H137675   0.034   0.926   6.564 -0.7627  0.2913 -0.7737
 5420TIP3    H237676   0.122   0.805   6.537 -0.2410  0.3877  0.4259
 5421TIP3   OH237677   6.038   0.847  13.412 -0.0579  0.5907 -0.3179
 5421TIP3    H137678   5.973   0.804  13.357 -0.3529  0.2502  0.2842
 5421TIP3    H237679   6.039   0.937  13.382 -0.8449  0.6131 -0.3056
 5422TIP3   OH237680   4.640   5.134   2.831  0.1284 -0.2558  0.7150
 5422TIP3    H137681   4.615   5.066   2.894 -0.6293 -1.1795 -0.5562
 5422TIP3    H237682   4.734   5.145   2.845 -0.0807 -0.1824  2.2420
 5423TIP3   OH237683   5.835   1.567  13.244  0.8425  0.3996 -0.0280
 5423TIP3    H137684   5.847   1.557  13.150  1.0163  0.7347 -0.0421
 5423TIP3    H237685   5.781   1.492  13.269  2.5434 -0.8769 -0.0432
 5424TIP3   OH237686   0.006   1.289   4.230  0.2247 -0.1101  0.4156
 5424TIP3    H137687   0.050   1.205   4.231 -0.2006 -0.3734 -0.8828
 5424TIP3    H237688  -0.078   1.273   4.272  0.4302 -0.1586  0.8105
 5425TIP3   OH237689   1.711   5.456   0.583 -0.2323  0.6886 -0.2621
 5425TIP3    H137690   1.687   5.513   0.657  5.3752 -1.1357  3.6305
 5425TIP3    H237691   1.768   5.511   0.529  0.1580  0.5461 -0.0042
 5426TIP3   OH237692   4.453   5.881  16.357  0.1916  0.1659  0.0159
 5426TIP3    H137693   4.522   5.945  16.375 -0.4214  1.3908 -1.7296
 5426TIP3    H237694   4.394   5.926  16.297 -2.6102 -0.5585  2.0607
 5427TIP3   OH237695   5.141   6.387   5.391  0.5928 -0.4367  0.7790
 5427TIP3    H137696   5.047   6.399   5.398  0.4657 -0.0093 -1.1718
 5427TIP3    H237697   5.178   6.475   5.397  0.8548 -0.5688  1.2012
 5428TIP3   OH237698   5.204   3.454   6.084  0.4378  0.1014  0.2449
 5428TIP3    H137699   5.201   3.518   6.155  0.6751 -0.4902  0.7860
 5428TIP3    H237700   5.269   3.390   6.111  1.1501  0.3090 -0.8780
 5429TIP3   OH237701   0.486   6.034   3.344 -0.4138  0.2665  0.4465
 5429TIP3    H137702   0.452   5.952   3.309  2.2277 -0.7218 -0.0342
 5429TIP3    H237703   0.421   6.100   3.319  0.1731 -0.6689 -4.5307
 5430TIP3   OH237704   3.555   3.261   3.166  0.2229 -0.2978 -0.3454
 5430TIP3    H137705   3.553   3.169   3.194  1.1286  0.4514  2.4346
 5430TIP3    H237706   3.495   3.306   3.226  1.9811  1.3655  0.2457
 5431TIP3   OH237707   2.874   0.793  12.554 -0.2149  0.0875  0.2284
 5431TIP3    H137708   2.964   0.827  12.547 -0.4975  0.6726 -0.6708
 5431TIP3    H237709   2.844   0.785  12.464 -2.0545  2.6463  0.4996
 5432TIP3   OH237710   0.568   2.809   2.000 -0.0301 -0.5453  0.4061
 5432TIP3    H137711   0.554   2.888   1.948 -0.9113  0.5353  2.1444
 5432TIP3    H237712   0.614   2.749   1.942  0.0975  1.0058 -1.1890
 5433TIP3   OH237713   0.711   3.888  15.985 -0.4378 -0.3990  0.5851
 5433TIP3    H137714   0.618   3.869  15.978 -0.5401  0.4480 -0.5619
 5433TIP3    H237715   0.745   3.876  15.897  0.9653 -2.6900  1.3548
 5434TIP3   OH237716   6.080   0.941  16.988 -0.0021  0.6280  0.8230
 5434TIP3    H137717   5.991   0.907  16.995  0.2417 -1.4824 -3.3040
 5434TIP3    H237718   6.133   0.881  17.039 -0.5222 -0.5677 -0.0095
 5435TIP3   OH237719   0.286   3.972  13.124  0.1245  0.1543  0.0065
 5435TIP3    H137720   0.315   3.881  13.126  0.3333  0.2268  1.1064
 5435TIP3    H237721   0.262   3.988  13.033 -0.1808 -1.0828 -0.1474
 5436TIP3   OH237722   1.389   1.833   5.761 -0.1298 -0.3984  0.2243
 5436TIP3    H137723   1.410   1.880   5.842  0.2754 -0.1340 -0.0309
 5436TIP3    H237724   1.416   1.742   5.779  2.1757  0.0854 -0.4004
 5437TIP3   OH237725   4.304   6.448   0.130  0.1085  0.1302 -0.1356
 5437TIP3    H137726   4.341   6.455   0.042  2.1739  3.2721  0.8363
 5437TIP3    H237727   4.378   6.462   0.189 -0.8021 -3.7204  2.3053
 5438TIP3   OH237728   5.089   5.193  14.812 -0.5632 -0.2339  0.0587
 5438TIP3    H137729   5.123   5.279  14.838 -0.3558  0.1722 -1.4596
 5438TIP3    H237730   5.029   5.168  14.882 -2.2565  2.1119 -0.4517
 5439TIP3   OH237731   6.596   1.870  13.034 -0.2262 -0.6497 -0.4034
 5439TIP3    H137732   6.530   1.843  13.098 -0.4260  2.9103  1.0991
 5439TIP3    H237733   6.548   1.878  12.952 -1.0949 -0.5687  0.1068
 5440TIP3   OH237734   3.376   2.731   2.815  0.1806 -0.4678  0.0988
 5440TIP3    H137735   3.393   2.767   2.728  1.1384 -0.1818  0.3962
 5440TIP3    H237736   3.375   2.806   2.873 -0.0441 -0.7001  0.4000
 5441TIP3   OH237737   5.844   2.541  13.906 -0.1225  0.3512 -0.0568
 5441TIP3    H137738   5.760   2.551  13.862  0.5778 -0.0927 -1.5712
 5441TIP3    H237739   5.823   2.499  13.990 -1.3129 -0.5433 -0.7721
 5442TIP3   OH237740   5.871   1.096   5.580 -0.6042 -0.0132 -0.6188
 5442TIP3    H137741   5.924   1.146   5.518 -1.2002 -0.6502 -1.6629
 5442TIP3    H237742   5.785   1.089   5.538 -2.2235  2.6364  1.8155
 5443TIP3   OH237743   1.739   3.305  12.752  0.1147  0.2602 -0.0930
 5443TIP3    H137744   1.751   3.210  12.762  0.5003 -0.1732 -3.4876
 5443TIP3    H237745   1.644   3.317  12.745 -0.1051  0.4841  2.4271
 5444TIP3   OH237746   2.699   5.374   5.383 -0.3383 -0.0437  0.0569
 5444TIP3    H137747   2.742   5.389   5.299 -0.3431  0.1388  0.0864
 5444TIP3    H237748   2.652   5.455   5.401  0.0802  0.1124  0.4761
 5445TIP3   OH237749   4.479   0.104   0.483 -0.9645 -0.0115  0.3812
 5445TIP3    H137750   4.412   0.173   0.479 -2.0898 -1.1306 -1.1782
 5445TIP3    H237751   4.433   0.030   0.522 -0.0543 -0.2115  1.0919
 5446TIP3   OH237752   2.255   5.694   1.958  0.3365  0.7308  0.5896
 5446TIP3    H137753   2.226   5.665   2.044 -0.5166  0.2510  0.1490
 5446TIP3    H237754   2.190   5.660   1.897  1.1320  0.7232 -0.2937
 5447TIP3   OH237755   4.936   5.105   1.855  0.1100 -0.1319 -0.2562
 5447TIP3    H137756   4.984   5.050   1.917  0.7981  1.4817  0.7089
 5447TIP3    H237757   4.918   5.185   1.904  0.9899  1.3493 -2.2506
 5448TIP3   OH237758   4.894   3.000   4.590  0.3567 -0.0381 -0.4167
 5448TIP3    H137759   4.937   2.946   4.655  0.2823 -0.1549 -0.4624
 5448TIP3    H237760   4.830   2.941   4.549 -1.3822  0.6829  1.1238
 5449TIP3   OH237761   3.640   3.985   5.894  0.1753  0.1796  0.3593
 5449TIP3    H137762   3.556   3.991   5.940 -0.2708  0.1449 -0.4203
 5449TIP3    H237763   3.701   3.953   5.959 -0.5246 -0.2454  0.8234
 5450TIP3   OH237764   5.981   5.478   6.189  0.5766  0.3628 -0.2480
 5450TIP3    H137765   5.890   5.468   6.215  0.2758 -0.0515 -1.4032
 5450TIP3    H237766   6.031   5.443   6.263 -0.2276 -0.2894 -0.0036
 5451TIP3   OH237767   0.809   2.069   2.968  0.5126 -0.6116 -0.5589
 5451TIP3    H137768   0.740   2.013   3.003  0.8940 -1.8673 -1.7128
 5451TIP3    H237769   0.827   2.132   3.037 -1.4852 -0.5112 -0.0676
 5452TIP3   OH237770   6.005   0.469   3.654 -0.1644 -0.0391 -0.0717
 5452TIP3    H137771   5.952   0.545   3.677  1.4279  0.9917  0.3540
 5452TIP3    H237772   6.064   0.457   3.729 -2.5993 -3.8928  1.5231
 5453TIP3   OH237773   6.397   3.534   5.799 -0.2638  0.3403  0.2218
 5453TIP3    H137774   6.476   3.559   5.750 -0.6461  1.7181  0.2747
 5453TIP3    H237775   6.329   3.529   5.732 -0.4606  0.6954  0.3962
 5454TIP3   OH237776   0.066   0.569  13.789 -0.3538 -0.1265 -0.0185
 5454TIP3    H137777   0.058   0.664  13.784 -0.3646 -0.0541  1.1922
 5454TIP3    H237778  -0.015   0.540  13.831 -0.1964 -0.6420 -0.0614
 5455TIP3   OH237779   4.022   5.924  11.581 -0.4087 -0.1141  0.4780
 5455TIP3    H137780   3.971   6.004  11.589  0.3084  0.2755  1.3838
 5455TIP3    H237781   3.992   5.870  11.655  0.1585 -0.0689  0.7427
 5456TIP3   OH237782   3.351   0.484   0.360  0.5237  0.8548 -0.2376
 5456TIP3    H137783   3.418   0.515   0.421  1.5925 -0.8764 -0.4523
 5456TIP3    H237784   3.399   0.459   0.282 -0.3894 -0.2568 -0.4709
 5457TIP3   OH237785   6.577   3.898  12.125  0.2150 -0.0312 -0.6726
 5457TIP3    H137786   6.611   3.922  12.212 -0.6594 -0.8144 -0.0961
 5457TIP3    H237787   6.581   3.980  12.075  0.6005  0.4686  0.1481
 5458TIP3   OH237788   5.694   5.390  15.662  0.1329 -0.1157 -0.7101
 5458TIP3    H137789   5.771   5.406  15.608  0.7558 -0.6927 -0.0151
 5458TIP3    H237790   5.667   5.301  15.640  0.3635 -0.3395 -0.1273
 5459TIP3   OH237791   0.402   3.286  16.311  0.1790  0.5844 -0.0407
 5459TIP3    H137792   0.375   3.294  16.403 -1.1122  0.8432 -0.4274
 5459TIP3    H237793   0.334   3.231  16.271  2.4146 -2.3270 -0.1522
 5460TIP3   OH237794   5.337   1.559  12.871 -0.2550  0.2876  0.2064
 5460TIP3    H137795   5.320   1.580  12.779  1.0916 -0.0717 -0.1437
 5460TIP3    H237796   5.253   1.572  12.914 -0.4048  2.6867 -0.6569
 5461TIP3   OH237797   6.645   3.099   1.965  0.0588 -0.0724  0.4978
 5461TIP3    H137798   6.633   3.009   1.934  0.3080 -0.1557  0.6426
 5461TIP3    H237799   6.610   3.153   1.895 -0.5964 -0.2951  0.6448
 5462TIP3   OH237800   1.735   2.374  14.845  0.2518  0.3249  0.5934
 5462TIP3    H137801   1.649   2.340  14.818  0.3220 -0.9908  1.8916
 5462TIP3    H237802   1.784   2.297  14.873  1.0541  1.2944  2.0182
 5463TIP3   OH237803   0.429   2.794  12.939  0.2526  0.1016 -0.1418
 5463TIP3    H137804   0.461   2.731  12.874 -0.9337  0.3003 -0.9496
 5463TIP3    H237805   0.487   2.782  13.015  2.8461  1.0937 -1.8148
 5464TIP3   OH237806   2.754   4.927  14.259  0.1379  0.3495  0.0027
 5464TIP3    H137807   2.836   4.944  14.305  0.2863  1.3951 -0.6012
 5464TIP3    H237808   2.775   4.940  14.167 -0.4876 -0.3091 -0.2394
 5465TIP3   OH237809   2.442   0.839  12.961  0.6254 -0.1223  0.8101
 5465TIP3    H137810   2.356   0.850  12.919  0.0337 -3.0022  1.0470
 5465TIP3    H237811   2.500   0.899  12.915 -1.1688  0.7044 -0.4638
 5466TIP3   OH237812   3.078   4.987  17.299  0.0781  0.0143 -0.2541
 5466TIP3    H137813   3.097   5.078  17.276  1.1713 -0.0058  0.4862
 5466TIP3    H237814   3.056   4.945  17.216 -1.0417  1.0799 -0.5322
 5467TIP3   OH237815   4.733   3.176  13.861 -0.7625  0.1209  0.1891
 5467TIP3    H137816   4.712   3.248  13.801  1.0065  0.5718  0.0757
 5467TIP3    H237817   4.767   3.107  13.804  1.4483  0.7504  0.6572
 5468TIP3   OH237818   1.453   2.286  15.314  0.7297  0.2072  0.0958
 5468TIP3    H137819   1.523   2.228  15.282 -0.0440 -0.6178 -0.1570
 5468TIP3    H237820   1.374   2.254  15.270  0.0871  0.7214  0.8554
 5469TIP3   OH237821   3.763   1.118   5.775  0.6157 -0.6416 -0.4159
 5469TIP3    H137822   3.798   1.206   5.788  0.2465 -0.5222 -0.2217
 5469TIP3    H237823   3.756   1.081   5.864 -1.1739 -0.1102 -0.2928
 5470TIP3   OH237824   4.121   2.912  16.260 -0.2493 -0.3240 -0.5282
 5470TIP3    H137825   4.207   2.946  16.286 -1.3084 -0.0745  3.1663
 5470TIP3    H237826   4.122   2.820  16.288 -1.1910 -0.3017 -0.3876
 5471TIP3   OH237827   5.628   0.825   3.896  0.4228  0.3298 -0.0775
 5471TIP3    H137828   5.642   0.775   3.816 -0.6584  1.1767 -0.8355
 5471TIP3    H237829   5.532   0.830   3.904  0.5183  0.8174  0.9023
 5472TIP3   OH237830   6.308   3.873   0.831 -0.6139  0.2963 -0.6948
 5472TIP3    H137831   6.346   3.814   0.896  0.7994  1.6373 -0.2427
 5472TIP3    H237832   6.261   3.816   0.771 -0.3834 -1.1546  0.4396
 5473TIP3   OH237833   6.411   1.083   4.392 -0.4739  0.5207  0.1219
 5473TIP3    H137834   6.385   0.993   4.415  0.4769  0.3871  0.7373
 5473TIP3    H237835   6.504   1.076   4.369  0.1616  1.6311  2.0823
 5474TIP3   OH237836   4.994   2.217  13.677 -0.3667  0.1502 -0.2088
 5474TIP3    H137837   5.064   2.152  13.668 -0.4212  0.1428 -0.5976
 5474TIP3    H237838   5.040   2.299  13.695 -0.3267 -0.1036  0.9178
 5475TIP3   OH237839   0.634   0.278  11.943  0.1030 -0.0238  0.0799
 5475TIP3    H137840   0.540   0.297  11.946  0.0276 -0.4591  1.1628
 5475TIP3    H237841   0.671   0.332  12.013  0.7708  0.6438 -0.7651
 5476TIP3   OH237842   3.442   2.610   4.423 -0.2843  0.3948 -0.1928
 5476TIP3    H137843   3.536   2.605   4.441 -0.1087  2.4899 -0.3190
 5476TIP3    H237844   3.437   2.626   4.328 -0.8619 -1.4157 -0.4954
 5477TIP3   OH237845   2.303   6.643  16.677 -0.2452 -0.0291 -0.6279
 5477TIP3    H137846   2.368   6.668  16.612 -0.6546 -0.3816 -1.1760
 5477TIP3    H237847   2.248   6.721  16.687 -0.8402 -0.3303 -1.5078
 5478TIP3   OH237848   0.697   0.828   4.195 -0.1592  0.7795 -0.1870
 5478TIP3    H137849   0.664   0.824   4.105 -0.8453 -2.9753  0.0672
 5478TIP3    H237850   0.779   0.878   4.188 -0.4110  0.9694 -2.8111
 5479TIP3   OH237851   4.125   4.376   3.853  0.0178  0.3675 -0.2461
 5479TIP3    H137852   4.173   4.309   3.803  0.6634  0.8485 -0.2800
 5479TIP3    H237853   4.193   4.426   3.897 -0.5508 -1.4546  3.0303
 5480TIP3   OH237854   4.883   3.057  13.107  0.2221 -0.0647  0.1193
 5480TIP3    H137855   4.834   3.099  13.037 -0.9958  0.4731  1.2613
 5480TIP3    H237856   4.874   2.963  13.089  0.1514  0.0656 -0.5746
 5481TIP3   OH237857   5.848   2.965   1.350  0.5629  0.2746 -0.0393
 5481TIP3    H137858   5.783   3.034   1.364 -0.4474 -0.6807  0.0986
 5481TIP3    H237859   5.855   2.922   1.435  0.4729 -0.3940 -0.3693
 5482TIP3   OH237860   4.049   4.948   2.355  0.5601 -0.4658 -0.4740
 5482TIP3    H137861   4.043   4.885   2.427  2.0809 -0.4074 -0.2679
 5482TIP3    H237862   3.992   5.020   2.381 -0.2547 -1.2079 -0.1547
 5483TIP3   OH237863   2.688   4.063   2.461 -0.4269 -0.6767  0.2823
 5483TIP3    H137864   2.649   4.015   2.387  0.4383 -1.3128  0.2274
 5483TIP3    H237865   2.692   4.154   2.432  0.1423 -0.9649 -0.5562
 5484TIP3   OH237866   3.626   1.644  17.214  0.1019  0.4337  0.6273
 5484TIP3    H137867   3.567   1.652  17.289 -1.3275  2.0935 -0.5950
 5484TIP3    H237868   3.642   1.549  17.207 -2.7433 -0.1777  0.8368
 5485TIP3   OH237869   1.852   1.550  12.024  0.7120  0.3480  0.7643
 5485TIP3    H137870   1.795   1.579  12.096  1.2010 -0.6176  1.5684
 5485TIP3    H237871   1.848   1.621  11.960 -1.5696  0.2216  0.6827
 5486TIP3   OH237872   4.295   2.892   3.152  0.0435  0.4928 -0.2126
 5486TIP3    H137873   4.371   2.841   3.183 -1.3828 -0.8360  1.2780
 5486TIP3    H237874   4.325   2.983   3.155  0.7130  0.3088  3.2386
 5487TIP3   OH237875   1.261   1.967   2.066  0.1124  0.0031  0.1504
 5487TIP3    H137876   1.342   2.016   2.083 -0.1683  0.6308 -0.2930
 5487TIP3    H237877   1.191   2.031   2.076 -0.3430 -0.5533  0.5981
 5488TIP3   OH237878   4.193   1.990   1.580 -0.0684 -0.2010 -0.6470
 5488TIP3    H137879   4.172   2.016   1.491 -1.4576 -1.4978 -0.7295
 5488TIP3    H237880   4.112   2.003   1.630 -0.0407 -1.7500 -0.1268
 5489TIP3   OH237881   5.339   6.164   1.200  0.4385  0.1666  0.6833
 5489TIP3    H137882   5.277   6.229   1.232  0.0453  0.7750 -1.1499
 5489TIP3    H237883   5.424   6.192   1.235 -0.3158 -1.1052  3.8642
 5490TIP3   OH237884   4.319   0.453   3.547 -0.2395  0.1828 -0.4393
 5490TIP3    H137885   4.400   0.485   3.586 -0.7296  0.6070  0.2646
 5490TIP3    H237886   4.345   0.418   3.462  0.9152 -1.0649  0.3894
 5491TIP3   OH237887   0.906   4.690   0.547 -0.1151  0.1470 -0.1625
 5491TIP3    H137888   0.865   4.774   0.525 -1.3604 -0.4204 -0.0891
 5491TIP3    H237889   0.997   4.712   0.564 -0.1526  1.3074 -1.2972
 5492TIP3   OH237890   0.175   0.580  17.191 -0.7062  0.0331 -0.6718
 5492TIP3    H137891   0.116   0.654  17.177  0.8670  1.2422 -1.1958
 5492TIP3    H237892   0.259   0.610  17.159 -0.2898 -2.5030 -2.2047
 5493TIP3   OH237893   2.729   2.987   3.301 -0.2214  0.5290  0.2529
 5493TIP3    H137894   2.655   2.937   3.337 -0.8910  0.0964 -1.6157
 5493TIP3    H237895   2.710   2.994   3.208  1.8200  0.9301 -0.1799
 5494TIP3   OH237896   0.201   4.939  14.324  0.8513  0.1095  0.3544
 5494TIP3    H137897   0.162   5.012  14.371  1.8584 -0.2157  1.7904
 5494TIP3    H237898   0.141   4.921  14.252 -1.2930  0.0706  2.0239
 5495TIP3   OH237899   6.549   2.690   3.589 -0.0844 -0.0078  0.3149
 5495TIP3    H137900   6.521   2.675   3.499  0.4508  0.5287  0.0559
 5495TIP3    H237901   6.537   2.784   3.603 -0.2851 -0.1107  0.8456
 5496TIP3   OH237902   3.095   0.626   3.910 -0.0724  0.3776 -0.1125
 5496TIP3    H137903   3.016   0.662   3.950 -0.0095 -0.7243  1.0457
 5496TIP3    H237904   3.107   0.678   3.830 -2.0180  0.4799 -0.3846
 5497TIP3   OH237905   6.289   1.256   0.673  0.1671 -0.2138 -0.3348
 5497TIP3    H137906   6.310   1.321   0.607  1.8291  0.6495  0.9770
 5497TIP3    H237907   6.283   1.173   0.625 -2.9334  0.9161 -2.1950
 5498TIP3   OH237908   1.161   5.557   5.922 -0.2241  0.3295 -0.0694
 5498TIP3    H137909   1.091   5.616   5.949 -1.3229 -1.4499  1.1417
 5498TIP3    H237910   1.122   5.470   5.926  1.7266 -0.6190 -0.5206
 5499TIP3   OH237911   4.556   4.847  16.566 -0.9994 -0.3292  0.5188
 5499TIP3    H137912   4.589   4.936  16.572 -0.4134 -0.6086  1.5717
 5499TIP3    H237913   4.631   4.796  16.536 -1.6367 -0.3096 -1.2427
 5500TIP3   OH237914   2.536   3.110  12.490 -0.4568  0.3765 -0.0098
 5500TIP3    H137915   2.453   3.103  12.443  1.4046 -1.9906 -3.4424
 5500TIP3    H237916   2.574   3.193  12.458 -1.0040  0.9066  0.7005
 5501TIP3   OH237917   4.336   1.365   2.375 -0.1300  0.5203  0.3246
 5501TIP3    H137918   4.246   1.391   2.392  0.3461  1.1204  2.1723
 5501TIP3    H237919   4.388   1.441   2.400  1.0906 -1.0091  2.9130
 5502TIP3   OH237920   1.191   2.776  11.169 -0.1370 -0.1298 -0.1206
 5502TIP3    H137921   1.156   2.835  11.103 -0.7962 -1.0725 -0.6374
 5502TIP3    H237922   1.272   2.818  11.200 -0.7689  1.1923 -0.2217
 5503TIP3   OH237923   5.834   3.635   5.445 -0.6870  0.7226  0.3124
 5503TIP3    H137924   5.818   3.617   5.352 -1.6871  1.1195  0.3926
 5503TIP3    H237925   5.878   3.556   5.477 -0.4999  0.5064 -0.4573
 5504TIP3   OH237926   6.760   1.056   2.488  0.1343  0.0041 -0.6017
 5504TIP3    H137927   6.741   0.980   2.432 -0.1454 -1.2155  1.0692
 5504TIP3    H237928   6.674   1.098   2.502  0.1397  0.0648 -0.7510
 5505TIP3   OH237929   5.382   2.290  12.628  0.4498 -0.1724  0.4414
 5505TIP3    H137930   5.383   2.377  12.587  0.1630  0.3401  1.4916
 5505TIP3    H237931   5.352   2.232  12.558  0.0855  0.6611 -0.1216
 5506TIP3   OH237932   4.646   6.696   2.476 -0.3885  0.9023  0.0862
 5506TIP3    H137933   4.662   6.782   2.439  0.1044  1.2775  1.1555
 5506TIP3    H237934   4.730   6.667   2.510 -0.8465  0.6238  1.0299
 5507TIP3   OH237935   4.157   1.819   2.653  0.0791  0.0458 -0.2650
 5507TIP3    H137936   4.252   1.829   2.653  0.2550 -1.1127 -2.3233
 5507TIP3    H237937   4.133   1.811   2.561 -2.1188  1.0216  0.1586
 5508TIP3   OH237938   2.359   4.674  15.658 -0.5273  0.0532  0.3995
 5508TIP3    H137939   2.335   4.655  15.567  1.3691 -1.8731  0.2418
 5508TIP3    H237940   2.284   4.723  15.692 -1.8608 -0.3055 -1.8075
 5509TIP3   OH237941   3.177   6.488   2.751  0.4419  0.5762  0.7522
 5509TIP3    H137942   3.143   6.451   2.833 -0.5891 -1.7285 -0.6129
 5509TIP3    H237943   3.099   6.500   2.697  1.2342  0.8657 -0.3535
 5510TIP3   OH237944   1.674   5.471   3.703 -0.5265  0.3478 -0.2988
 5510TIP3    H137945   1.599   5.412   3.700  0.1295 -0.5227 -2.7016
 5510TIP3    H237946   1.676   5.511   3.616  1.5965  0.5702 -0.2087
 5511TIP3   OH237947   6.078   1.871  14.410 -0.0168 -0.4510 -0.2691
 5511TIP3    H137948   6.131   1.791  14.403  1.6755  0.3272  2.0869
 5511TIP3    H237949   6.142   1.942  14.407 -0.7325  0.5231  2.9718
 5512TIP3   OH237950   2.081   3.131  16.486  0.1955 -0.5494  0.1432
 5512TIP3    H137951   2.115   3.085  16.563  2.2778 -0.5798 -0.7398
 5512TIP3    H237952   2.031   3.064  16.439  0.0030 -0.8732  0.7911
 5513TIP3   OH237953   3.705   3.676   3.333  0.1161  0.4798 -0.3189
 5513TIP3    H137954   3.677   3.702   3.246  1.0535 -0.2797 -0.8689
 5513TIP3    H237955   3.753   3.594   3.319 -2.0104 -1.1625  1.2083
 5514TIP3   OH237956   1.343   3.646  16.406  0.4338 -0.0386  0.0693
 5514TIP3    H137957   1.250   3.637  16.384  0.0734  0.3195  1.3557
 5514TIP3    H237958   1.352   3.738  16.433  1.0258 -0.2169  0.4908
 5515TIP3   OH237959   2.028   1.203   4.662 -0.0371  0.4287 -0.0469
 5515TIP3    H137960   2.086   1.211   4.738  0.8542 -1.4532 -0.4643
 5515TIP3    H237961   1.947   1.165   4.696  0.1376  0.1593  0.0699
 5516TIP3   OH237962   4.046   2.938   5.251 -0.4814  1.0105 -0.1318
 5516TIP3    H137963   4.084   3.025   5.254  0.7465  0.5304 -1.0481
 5516TIP3    H237964   4.013   2.929   5.161 -1.2429  0.7752  0.1580
 5517TIP3   OH237965   2.960   0.203  13.895  0.3712 -0.2180 -0.5150
 5517TIP3    H137966   2.899   0.276  13.886  0.5879 -0.2239 -2.5770
 5517TIP3    H237967   3.038   0.241  13.935  0.8725  0.9883 -2.4864
 5518TIP3   OH237968   4.864   4.344  11.350 -0.2504  0.1704  0.1323
 5518TIP3    H137969   4.790   4.335  11.290  0.1245  1.2323 -0.5139
 5518TIP3    H237970   4.914   4.418  11.315  1.3171 -0.7490  0.3331
 5519TIP3   OH237971   4.326   2.357   3.941 -0.2991 -0.4891 -0.0469
 5519TIP3    H137972   4.324   2.350   3.846 -1.7696 -1.6333  0.0468
 5519TIP3    H237973   4.417   2.338   3.964  0.0434 -0.3342 -1.2043
 5520TIP3   OH237974   3.960   2.673   3.858 -0.0827  0.0001 -0.9165
 5520TIP3    H137975   4.044   2.647   3.821  0.6195 -0.2447  0.7485
 5520TIP3    H237976   3.977   2.758   3.899 -0.2026 -0.7242  0.7358
 5521TIP3   OH237977   2.623   4.674  15.710 -0.2111 -0.4149 -0.3302
 5521TIP3    H137978   2.527   4.679  15.701 -0.1741  1.5314  0.0196
 5521TIP3    H237979   2.656   4.742  15.652  1.2235 -3.2052 -3.1155
 5522TIP3   OH237980   0.791   2.690  12.620 -0.0254  0.3998 -0.3747
 5522TIP3    H137981   0.696   2.702  12.622 -0.2700 -1.1474  1.6912
 5522TIP3    H237982   0.822   2.735  12.699  0.8316  0.1469 -0.5581
 5523TIP3   OH237983   1.536   5.171   2.156  0.0344 -0.2439  0.0234
 5523TIP3    H137984   1.529   5.224   2.076 -0.5168 -0.3755 -0.0231
 5523TIP3    H237985   1.565   5.232   2.223 -0.7084  0.1528 -0.0011
 5524TIP3   OH237986   0.729   3.159  13.907  0.1436  0.2326  0.0765
 5524TIP3    H137987   0.635   3.164  13.925  0.2333 -0.6437  0.9111
 5524TIP3    H237988   0.767   3.127  13.989  1.3799  2.0600  0.2744
 5525TIP3   OH237989   3.241   1.308  16.274  0.0137 -0.2623  0.4096
 5525TIP3    H137990   3.243   1.376  16.207  1.0704 -0.4827  0.1962
 5525TIP3    H237991   3.333   1.283  16.286 -0.3164 -1.3800  0.7680
 5526TIP3   OH237992   2.999   5.710  14.287  0.0545 -0.7851 -0.6491
 5526TIP3    H137993   2.951   5.631  14.260  1.8873 -1.1888 -3.1241
 5526TIP3    H237994   3.083   5.676  14.320  0.3178  0.0542 -0.4495
 5527TIP3   OH237995   0.750   4.273   0.716 -0.4950 -0.1129  0.0501
 5527TIP3    H137996   0.801   4.206   0.669 -1.3247 -0.3518 -0.5277
 5527TIP3    H237997   0.678   4.294   0.657  0.2330  1.9678 -0.1871
 5528TIP3   OH237998   4.284   2.790   6.477  0.0326  0.0896  0.1087
 5528TIP3    H137999   4.235   2.720   6.521  0.7222 -1.5849 -1.6357
 5528TIP3    H238000   4.339   2.828   6.546 -0.7289 -0.7409  1.2067
 5529TIP3   OH238001   1.388   3.607   2.443 -0.0114  0.1684 -0.3327
 5529TIP3    H138002   1.440   3.687   2.443  1.2121 -0.5918 -1.1777
 5529TIP3    H238003   1.320   3.623   2.377  0.0106  0.6441 -0.2424
 5530TIP3   OH238004   2.417   6.394   4.570 -0.3084  0.3411  0.3159
 5530TIP3    H138005   2.342   6.356   4.526 -0.4785  0.3015  0.6410
 5530TIP3    H238006   2.386   6.416   4.658  0.6313 -1.6809  1.2118
 5531TIP3   OH238007   4.448   0.368  10.965  0.1252  0.9440 -0.2564
 5531TIP3    H138008   4.515   0.302  10.947 -0.9148  0.2134 -1.6412
 5531TIP3    H238009   4.468   0.398  11.054  2.0272  0.4799 -0.4743
 5532TIP3   OH238010   5.207   6.522  15.433  0.4577  0.2758  0.5765
 5532TIP3    H138011   5.287   6.500  15.480  0.6084 -0.8225 -0.1550
 5532TIP3    H238012   5.137   6.514  15.498  0.6888 -0.9822  0.6984
 5533TIP3   OH238013   3.203   0.314  15.731  0.1395 -0.1056  0.1121
 5533TIP3    H138014   3.127   0.339  15.678 -0.3595 -2.0666 -0.1919
 5533TIP3    H238015   3.266   0.280  15.668  1.2693  1.3807  0.3824
 5534TIP3   OH238016   0.733   2.980   3.629  0.4801 -0.3159 -0.4718
 5534TIP3    H138017   0.800   3.022   3.683 -0.5652  2.3831 -1.0949
 5534TIP3    H238018   0.702   2.906   3.682  0.3756  1.4392  2.1263
 5535TIP3   OH238019   0.063   3.561   4.675  0.8267 -0.3193  0.3014
 5535TIP3    H138020   0.149   3.603   4.684  1.2787 -1.1009 -0.2619
 5535TIP3    H238021   0.038   3.538   4.764  2.3334 -2.2727  0.2941
 5536TIP3   OH238022   5.477   5.575   3.745 -0.3787  0.9352  0.4210
 5536TIP3    H138023   5.508   5.577   3.836 -0.0205 -0.1830  0.3320
 5536TIP3    H238024   5.427   5.657   3.735  0.3636  1.5199  1.3370
 5537TIP3   OH238025   2.857   5.522  13.623  0.0902 -0.4342  0.3857
 5537TIP3    H138026   2.772   5.562  13.643  0.4490 -0.0040  1.0813
 5537TIP3    H238027   2.916   5.555  13.691  2.1216  3.3219 -2.7807
 5538TIP3   OH238028   3.173   1.604   5.598 -0.0815 -0.1886 -0.3119
 5538TIP3    H138029   3.102   1.666   5.581  1.6326  2.3259  1.0642
 5538TIP3    H238030   3.206   1.581   5.511  0.6283  2.6546 -0.9058
 5539TIP3   OH238031   3.559   0.654   5.126 -0.3516  0.3106  0.2177
 5539TIP3    H138032   3.645   0.613   5.130 -0.8500 -1.2012 -2.5118
 5539TIP3    H238033   3.578   0.747   5.113  0.8265  0.2790  1.5320
 5540TIP3   OH238034   4.067   1.091  13.813  0.1403 -0.1506 -0.4389
 5540TIP3    H138035   4.109   1.082  13.898  1.1653  0.5053 -0.8525
 5540TIP3    H238036   3.984   1.134  13.831  0.0635 -0.5960  0.2928
 5541TIP3   OH238037   5.904   1.553   4.445  0.8842 -0.6447  0.5827
 5541TIP3    H138038   5.967   1.504   4.392  1.7027  0.3141  0.6311
 5541TIP3    H238039   5.892   1.636   4.398  2.0395  0.4562  2.1153
 5542TIP3   OH238040   0.683   2.234  14.489  0.0520 -0.1894  0.3707
 5542TIP3    H138041   0.677   2.139  14.476  0.0513 -0.1839  0.3311
 5542TIP3    H238042   0.772   2.248  14.521  1.8560  0.3051 -4.1483
 5543TIP3   OH238043   5.820   4.394   4.949  0.2536 -0.2187 -0.4047
 5543TIP3    H138044   5.777   4.476   4.974 -0.1527  0.0867 -1.9998
 5543TIP3    H238045   5.883   4.378   5.020 -1.2006  0.2736  1.0653
 5544TIP3   OH238046   5.370   3.796   4.283  0.1619  0.1063 -0.0983
 5544TIP3    H138047   5.383   3.703   4.304  2.3430  0.4862  0.4723
 5544TIP3    H238048   5.373   3.841   4.367 -1.5113  0.6673 -0.3075
 5545TIP3   OH238049   0.558   5.599   6.148  0.1122  0.7548 -0.3600
 5545TIP3    H138050   0.569   5.652   6.069 -0.1579 -1.0597 -1.6720
 5545TIP3    H238051   0.490   5.536   6.125  1.0605 -0.7689  0.8145
 5546TIP3   OH238052   4.903   1.314  15.785  0.2995  0.0441  0.4164
 5546TIP3    H138053   4.906   1.354  15.872  2.5963 -0.5567  0.6874
 5546TIP3    H238054   4.878   1.385  15.726  1.9119  1.3172  1.1779
 5547TIP3   OH238055   4.133   5.165  14.411  0.0589  0.1523 -0.0734
 5547TIP3    H138056   4.167   5.163  14.501 -0.3945 -0.2734  0.0932
 5547TIP3    H238057   4.141   5.075  14.381  0.3361  0.3232 -0.5106
 5548TIP3   OH238058   6.184   3.508   5.622  0.1855  0.2970  0.1055
 5548TIP3    H138059   6.206   3.461   5.541  0.4324 -0.2325  0.4733
 5548TIP3    H238060   6.092   3.489   5.636  0.5845 -1.1722  0.9439
 5549TIP3   OH238061   3.811   3.086  15.983 -0.0556 -0.3055 -0.2412
 5549TIP3    H138062   3.857   3.049  16.059  2.2248 -0.4152 -1.5906
 5549TIP3    H238063   3.737   3.028  15.969 -0.2588 -0.5437  1.6101
 5550TIP3   OH238064   1.145   3.770   5.051  0.1526 -0.1116 -0.5688
 5550TIP3    H138065   1.214   3.775   4.985 -0.4491  2.6778 -1.1081
 5550TIP3    H238066   1.183   3.810   5.129 -0.2391 -0.2935 -0.2800
 5551TIP3   OH238067   0.387   4.873  17.112 -0.3249  0.3160 -0.3230
 5551TIP3    H138068   0.335   4.823  17.050 -0.8531  0.5715 -0.0910
 5551TIP3    H238069   0.461   4.816  17.134  0.7047  0.7992 -2.3346
 5552TIP3   OH238070   3.705   1.089  16.727 -0.4070  0.4673 -0.0003
 5552TIP3    H138071   3.747   1.088  16.812  0.5590 -0.5974 -0.4580
 5552TIP3    H238072   3.639   1.019  16.732  1.1539 -1.1207 -0.8089
 5553TIP3   OH238073   6.245   4.295   6.855 -0.2990  0.0617 -0.2605
 5553TIP3    H138074   6.311   4.229   6.837 -2.6175 -2.3394 -0.5775
 5553TIP3    H238075   6.240   4.347   6.775  1.0893  0.2305 -0.2545
 5554TIP3   OH238076   0.811   2.365  16.780 -0.1292 -0.3292 -0.1345
 5554TIP3    H138077   0.777   2.276  16.789 -0.5951 -0.1172  0.1862
 5554TIP3    H238078   0.772   2.414  16.852  0.7106 -0.0384  0.1364
 5555TIP3   OH238079   6.695   0.347   2.000  0.2643 -0.4433  0.5013
 5555TIP3    H138080   6.701   0.387   2.087 -0.6639  0.1957  0.2898
 5555TIP3    H238081   6.785   0.327   1.976  0.5215 -0.7071  1.6483
 5556TIP3   OH238082   2.079   3.165   2.233  0.2899  0.4574  0.0187
 5556TIP3    H138083   2.048   3.077   2.254  0.8610  0.1124 -0.5536
 5556TIP3    H238084   2.030   3.190   2.155  0.0580  0.6951  0.2358
 5557TIP3   OH238085   5.620   5.636  14.310  0.0565 -0.3891 -0.3967
 5557TIP3    H138086   5.641   5.575  14.381 -0.8417  1.6114  1.6934
 5557TIP3    H238087   5.699   5.687  14.297 -0.6357  1.2430  1.3436
 5558TIP3   OH238088   5.444   2.869  13.609 -0.4360 -0.7661 -0.2521
 5558TIP3    H138089   5.388   2.816  13.666 -0.7582 -1.0868 -0.8623
 5558TIP3    H238090   5.384   2.905  13.544  0.3374 -2.8504 -2.2410
 5559TIP3   OH238091   2.497   4.831  16.205  0.2228 -0.3749  0.4252
 5559TIP3    H138092   2.453   4.790  16.131 -0.3182 -2.9592  2.0661
 5559TIP3    H238093   2.520   4.919  16.173  0.3331 -1.4652 -2.8735
 5560TIP3   OH238094   0.876   5.839  11.329 -0.7241 -0.1983 -0.3447
 5560TIP3    H138095   0.818   5.811  11.258 -2.3645  1.6864  0.1628
 5560TIP3    H238096   0.946   5.888  11.286 -0.7367 -0.5543 -0.7793
 5561TIP3   OH238097   5.251   2.115  12.937  0.1430  0.1635  0.1155
 5561TIP3    H138098   5.253   2.062  12.857 -0.2347 -0.1105  0.2852
 5561TIP3    H238099   5.342   2.117  12.966  0.1957 -0.2140 -0.0132
 5562TIP3   OH238100   6.495   0.784  15.215 -0.3077 -0.3187 -0.7243
 5562TIP3    H138101   6.549   0.802  15.138 -1.2713 -1.4517 -1.6919
 5562TIP3    H238102   6.546   0.722  15.267  0.3403  0.4449 -0.4101
 5563TIP3   OH238103   0.659   3.354   0.270 -0.2970 -0.9253  0.2918
 5563TIP3    H138104   0.658   3.448   0.256  0.7899 -0.9820 -0.2674
 5563TIP3    H238105   0.596   3.320   0.206  0.9980 -0.7517 -1.1244
 5564TIP3   OH238106   1.670   1.139  13.645  0.1814  0.1972 -0.4771
 5564TIP3    H138107   1.635   1.051  13.644  0.9202 -0.2789  2.5961
 5564TIP3    H238108   1.599   1.194  13.677  0.9759 -0.1544  2.1363
 5565TIP3   OH238109   0.358   1.197  11.170  0.4188  0.3542  0.0282
 5565TIP3    H138110   0.377   1.226  11.081  1.3822 -0.6732 -0.1263
 5565TIP3    H238111   0.280   1.142  11.161 -0.6941  1.8606  0.1464
 5566TIP3   OH238112   6.600   4.011   2.004  0.5782 -0.3749  0.2934
 5566TIP3    H138113   6.687   4.029   1.969  0.3786  0.2330  0.1076
 5566TIP3    H238114   6.617   3.976   2.092  1.0157 -0.5456  0.1469
 5567TIP3   OH238115   6.183   3.996  14.985 -0.4226  0.2318 -0.3376
 5567TIP3    H138116   6.215   4.064  14.925  0.0615  1.0221  0.7942
 5567TIP3    H238117   6.197   3.914  14.937  0.4536  0.8004 -1.0906
 5568TIP3   OH238118   5.242   6.173  15.578 -0.3482 -0.1023  0.1600
 5568TIP3    H138119   5.303   6.131  15.518 -1.4062  0.8213 -1.6638
 5568TIP3    H238120   5.272   6.147  15.665  2.0508 -0.4145 -0.6867
 5569TIP3   OH238121   4.208   2.495  14.783 -0.1190  0.3421  0.4432
 5569TIP3    H138122   4.186   2.527  14.871 -0.0716 -1.0412  0.9870
 5569TIP3    H238123   4.259   2.566  14.744 -1.4698  1.6362  0.9291
 5570TIP3   OH238124   2.922   2.529  15.159  0.0719  0.1013 -0.3407
 5570TIP3    H138125   2.975   2.526  15.080 -0.0979 -0.5140 -0.4407
 5570TIP3    H238126   2.839   2.566  15.131  0.1830  0.3464 -0.3455
 5571TIP3   OH238127   6.161   0.543  14.273  0.8091  0.1590 -0.3162
 5571TIP3    H138128   6.252   0.554  14.301  1.1536 -1.5338 -0.6376
 5571TIP3    H238129   6.128   0.471  14.326 -0.5399  1.1098  0.1828
 5572TIP3   OH238130   1.077   3.562   5.360  0.6312 -0.4623  0.1675
 5572TIP3    H138131   1.152   3.575   5.302  0.1099  0.3360 -0.3516
 5572TIP3    H238132   1.075   3.468   5.376  2.5980 -0.3627  1.3720
 5573TIP3   OH238133   0.414   5.523   4.685 -0.2015  0.3792 -0.4368
 5573TIP3    H138134   0.389   5.522   4.777 -0.4016  0.6696 -0.4852
 5573TIP3    H238135   0.486   5.460   4.679  0.7364  1.3611  0.1815
 5574TIP3   OH238136   3.288   5.527  11.994 -0.1023 -0.4079 -0.2081
 5574TIP3    H138137   3.234   5.478  11.933  0.2002  0.2865 -1.0573
 5574TIP3    H238138   3.241   5.610  12.005  0.3478 -0.1443 -0.2732
 5575TIP3   OH238139   5.222   0.632  15.269 -0.5376  0.4482  0.1965
 5575TIP3    H138140   5.305   0.585  15.255  0.4374  2.1498 -0.1028
 5575TIP3    H238141   5.155   0.564  15.265  0.7760 -0.8863 -0.3766
 5576TIP3   OH238142   2.399   3.261  13.386  0.4354 -0.0448  0.1548
 5576TIP3    H138143   2.452   3.333  13.421  1.4565 -0.2693 -0.8508
 5576TIP3    H238144   2.463   3.192  13.367 -0.2624 -0.4639 -0.7619
 5577TIP3   OH238145   4.076   0.104  16.129 -0.2974  0.4164 -0.1651
 5577TIP3    H138146   4.025   0.058  16.196 -0.7909  1.1373 -0.0383
 5577TIP3    H238147   4.163   0.063  16.132 -0.9706 -1.1321 -0.6824
 5578TIP3   OH238148   4.559   3.592  15.278 -0.2275  0.0264  0.1141
 5578TIP3    H138149   4.522   3.679  15.267 -0.4418 -0.0159  0.4773
 5578TIP3    H238150   4.611   3.597  15.358 -0.4321 -0.2375  0.2681
 5579TIP3   OH238151   5.296   1.949  14.643  0.5259 -0.9129 -0.0482
 5579TIP3    H138152   5.214   1.996  14.658  1.1537  0.1119  0.2816
 5579TIP3    H238153   5.293   1.923  14.551  1.3095  2.1623 -1.0582
 5580TIP3   OH238154   3.735   1.749   4.380  0.1747 -0.1925 -0.3332
 5580TIP3    H138155   3.715   1.768   4.288 -1.2262 -1.4373 -0.3210
 5580TIP3    H238156   3.767   1.659   4.379 -0.4073 -0.4236  0.4513
 5581TIP3   OH238157   1.253   5.443   2.120 -0.2099  0.5820  0.2853
 5581TIP3    H138158   1.313   5.466   2.049 -0.4889 -0.7554 -0.4125
 5581TIP3    H238159   1.235   5.350   2.108 -0.9356  0.5178  1.6145
 5582TIP3   OH238160   5.717   0.554   2.041 -0.1173  0.3882 -0.5609
 5582TIP3    H138161   5.809   0.541   2.017 -0.1215  1.2585 -1.0733
 5582TIP3    H238162   5.707   0.649   2.048 -0.4291  0.2588  1.6694
 5583TIP3   OH238163   1.299   4.448   5.401  0.6916 -0.5204  0.1313
 5583TIP3    H138164   1.328   4.531   5.438  1.8255 -0.8971  0.1261
 5583TIP3    H238165   1.204   4.448   5.413  0.6760  0.7797  0.1049
 5584TIP3   OH238166   0.619   0.525  15.803 -0.3286 -1.1224 -0.8743
 5584TIP3    H138167   0.633   0.572  15.721 -2.6681  0.0411 -0.6944
 5584TIP3    H238168   0.701   0.478  15.819  1.2842  1.0711 -2.2749
 5585TIP3   OH238169   2.523   1.373  16.004  0.6958  0.2251 -0.3750
 5585TIP3    H138170   2.455   1.441  16.009 -1.8338 -2.1327  0.1266
 5585TIP3    H238171   2.502   1.325  15.924  2.0178 -0.3763 -0.3792
 5586TIP3   OH238172   6.136   2.339   4.788 -0.5770  0.1126 -0.1946
 5586TIP3    H138173   6.162   2.385   4.868 -0.2563  0.1457 -0.3172
 5586TIP3    H238174   6.053   2.381   4.763 -1.0589 -0.3808  0.5108
 5587TIP3   OH238175   5.160   4.082   4.277  0.3885 -0.4415 -0.1933
 5587TIP3    H138176   5.109   4.105   4.200 -0.7577 -1.6382  0.1671
 5587TIP3    H238177   5.148   4.156   4.337 -1.3195 -0.8571  0.0452
 5588TIP3   OH238178   1.442   3.420  14.747  0.3862  0.8924  0.0026
 5588TIP3    H138179   1.505   3.410  14.818 -0.1133 -0.8753  0.2345
 5588TIP3    H238180   1.367   3.466  14.786  0.8625  1.5996  0.1108
 5589TIP3   OH238181   0.593   0.622  16.077 -0.0829  0.6254  0.1105
 5589TIP3    H138182   0.601   0.575  15.994 -0.9326 -0.9468  0.8854
 5589TIP3    H238183   0.651   0.698  16.067  3.1267 -1.6861 -0.4230
 5590TIP3   OH238184   4.358   1.324   1.393 -0.2929 -0.2709  0.4653
 5590TIP3    H138185   4.308   1.265   1.449 -2.2293  0.8125 -0.0287
 5590TIP3    H238186   4.343   1.292   1.304  2.7378 -1.9632  0.4332
 5591TIP3   OH238187   0.573   6.145  15.911 -0.1042  0.0322  0.1128
 5591TIP3    H138188   0.633   6.080  15.873 -1.0995 -1.5501  1.1626
 5591TIP3    H238189   0.486   6.112  15.890 -0.6743  2.0216 -0.9169
 5592TIP3   OH238190   3.899   2.524  14.445  0.0765 -0.2049 -0.8008
 5592TIP3    H138191   3.859   2.460  14.386 -1.2630 -0.6231  0.4905
 5592TIP3    H238192   3.826   2.556  14.498  1.4957 -1.6451  2.2723
 5593TIP3   OH238193   6.706   6.208  15.387 -0.2805 -0.0509  0.2612
 5593TIP3    H138194   6.653   6.251  15.454 -1.0589  0.4472 -0.6401
 5593TIP3    H238195   6.796   6.218  15.416 -0.6933 -2.2660  2.6321
 5594TIP3   OH238196   0.351   1.692  17.130 -0.2436 -0.5910 -0.0015
 5594TIP3    H138197   0.283   1.721  17.191 -0.5888  0.4778 -0.8761
 5594TIP3    H238198   0.379   1.607  17.165 -1.1257 -0.4615  1.0823
 5595TIP3   OH238199   4.237   6.478  13.392 -0.2153 -0.4357 -0.3781
 5595TIP3    H138200   4.164   6.514  13.442  0.6771 -0.4252  0.9464
 5595TIP3    H238201   4.195   6.432  13.319 -1.5241 -0.0921  0.1229
 5596TIP3   OH238202   1.610   2.695   6.199  0.1089  0.2699 -0.2952
 5596TIP3    H138203   1.654   2.672   6.281  0.6975  0.5221 -0.5316
 5596TIP3    H238204   1.680   2.693   6.133 -0.8193 -2.7175 -1.3442
 5597TIP3   OH238205   3.565   1.568   5.992  0.0809  0.0946 -0.1494
 5597TIP3    H138206   3.516   1.488   5.973 -0.1930  0.2745 -0.2105
 5597TIP3    H238207   3.566   1.616   5.910 -0.8065  0.7114  0.1868
 5598TIP3   OH238208   0.040   0.758  15.057  0.1174  0.2057  0.2235
 5598TIP3    H138209  -0.005   0.698  14.998 -0.2546  0.7834 -0.0812
 5598TIP3    H238210   0.014   0.729  15.145 -1.4053  0.9410  0.0435
 5599TIP3   OH238211   2.058   5.483   2.132 -0.5464 -0.2531 -0.5159
 5599TIP3    H138212   2.029   5.393   2.115  1.1239 -1.0571  0.5591
 5599TIP3    H238213   2.008   5.511   2.208 -1.8690  0.1697 -1.5117
 5600TIP3   OH238214   5.283   2.582   5.439  0.0129 -0.0878 -0.0537
 5600TIP3    H138215   5.305   2.543   5.523 -2.7365 -1.2800  0.2380
 5600TIP3    H238216   5.187   2.587   5.440 -0.0027  1.4680 -2.4274
 5601TIP3   OH238217   5.084   2.223  14.394 -0.2930 -0.5288  0.2616
 5601TIP3    H138218   5.157   2.283  14.387 -1.1120  0.2913 -2.9237
 5601TIP3    H238219   5.047   2.239  14.481  2.2636  0.1520  1.3127
 5602TIP3   OH238220   2.312   0.228  10.467  0.0189 -0.7783  0.0274
 5602TIP3    H138221   2.353   0.285  10.402  1.6135 -2.1437 -0.2240
 5602TIP3    H238222   2.357   0.248  10.549 -1.6595  0.5950  0.6787
 5603TIP3   OH238223   2.318   2.896   4.101  0.1793 -0.4646 -0.3715
 5603TIP3    H138224   2.348   2.976   4.058 -1.8940  0.1909 -0.6994
 5603TIP3    H238225   2.307   2.833   4.029 -2.1338  0.2650 -0.7263
 5604TIP3   OH238226   3.914   6.756  12.899  0.7664  0.2887  0.4940
 5604TIP3    H138227   3.826   6.769  12.934  0.5388  1.0929 -0.3493
 5604TIP3    H238228   3.966   6.727  12.975 -0.3737 -0.9477  0.8476
 5605TIP3   OH238229   3.447   4.582  13.664  0.8453  0.1057  0.5854
 5605TIP3    H138230   3.415   4.594  13.574  2.1895 -0.5718 -0.0114
 5605TIP3    H238231   3.378   4.532  13.707 -1.2896  3.0554  0.9040
 5606TIP3   OH238232   0.099   6.567   2.656 -0.2547 -0.5373 -0.3155
 5606TIP3    H138233   0.181   6.543   2.612 -0.3299  0.0447 -0.7819
 5606TIP3    H238234   0.121   6.647   2.704 -0.8614  0.3421 -1.4527
 5607TIP3   OH238235   2.902   5.419  15.854 -0.0399  0.6628  0.4623
 5607TIP3    H138236   2.954   5.496  15.878 -0.5489  1.4916 -1.0021
 5607TIP3    H238237   2.924   5.403  15.762 -1.9170  0.6734 -0.0177
 5608TIP3   OH238238   5.490   5.140   0.574 -0.3832  0.1853 -0.5268
 5608TIP3    H138239   5.561   5.121   0.635 -0.9613 -0.9398 -0.1764
 5608TIP3    H238240   5.454   5.054   0.551 -1.8374  0.7359 -0.4385
 5609TIP3   OH238241   4.485   4.424  14.792 -0.1415  1.3921 -0.3985
 5609TIP3    H138242   4.392   4.436  14.811 -0.1150  0.9762  0.0069
 5609TIP3    H238243   4.489   4.340  14.746  0.2910  0.2283  1.6866
 5610TIP3   OH238244   0.108   2.915  14.008  0.3906  0.5270  0.5738
 5610TIP3    H138245   0.143   2.999  14.038 -0.1973  0.5417  1.2580
 5610TIP3    H238246   0.169   2.849  14.042 -0.3131  0.5356  1.9458
 5611TIP3   OH238247   0.452   0.218  12.155 -0.2284 -0.4393 -0.1003
 5611TIP3    H138248   0.495   0.303  12.168 -0.9490  0.0242 -0.6368
 5611TIP3    H238249   0.458   0.175  12.240 -2.2107  1.2658  1.0136
 5612TIP3   OH238250   2.140   3.371   5.111  0.2716  0.1802  0.1359
 5612TIP3    H138251   2.233   3.391   5.116  0.1815  0.6720 -0.0621
 5612TIP3    H238252   2.135   3.277   5.096  0.7617  0.3453 -1.1494
 5613TIP3   OH238253   5.925   5.813  16.502  0.6608 -0.2636  0.4292
 5613TIP3    H138254   5.901   5.721  16.512 -0.0887 -0.5075 -2.6005
 5613TIP3    H238255   5.863   5.860  16.557 -1.4116 -1.4198 -0.7960
 5614TIP3   OH238256   1.065   0.817   3.188 -0.6784  0.1039  0.2042
 5614TIP3    H138257   1.135   0.765   3.149 -0.3917  0.5495  0.1094
 5614TIP3    H238258   1.110   0.874   3.251 -0.7498  1.4211 -0.9033
 5615TIP3   OH238259   1.209   1.305  15.760 -0.8349 -0.4141  0.0573
 5615TIP3    H138260   1.250   1.233  15.711 -1.1725 -2.0131  2.0106
 5615TIP3    H238261   1.206   1.378  15.697 -0.1907 -1.9843 -1.8969
 5616TIP3   OH238262   6.042   4.626  16.296 -0.1302  0.2132  0.2201
 5616TIP3    H138263   5.973   4.560  16.301 -0.2041  0.2473 -0.3186
 5616TIP3    H238264   6.123   4.575  16.291 -0.1773  0.1610 -0.0382
 5617TIP3   OH238265   3.751   5.626  16.722 -0.1148  0.1448 -0.3033
 5617TIP3    H138266   3.829   5.681  16.725 -0.8551  1.1721  1.6469
 5617TIP3    H238267   3.678   5.687  16.711 -0.8597 -0.5288  0.7022
 5618TIP3   OH238268   1.111   1.042  12.286  0.3915  0.4564 -0.1237
 5618TIP3    H138269   1.202   1.058  12.259  0.4097 -1.1845 -1.1707
 5618TIP3    H238270   1.119   0.998  12.371  0.4781  1.7471  0.5745
 5619TIP3   OH238271   5.682   2.835  12.244  0.8209 -0.4969 -0.3404
 5619TIP3    H138272   5.678   2.749  12.285  0.6949 -0.1234  0.4356
 5619TIP3    H238273   5.762   2.874  12.279  3.1028 -1.7444 -3.5852
 5620TIP3   OH238274   3.868   5.911   2.351 -0.8462 -0.1906  0.1662
 5620TIP3    H138275   3.864   5.998   2.391 -0.6597 -0.0226 -0.1782
 5620TIP3    H238276   3.956   5.878   2.372 -0.9638 -0.3549  0.4119
 5621TIP3   OH238277   3.682   2.740   2.230  0.1908 -0.7947  0.1802
 5621TIP3    H138278   3.762   2.725   2.179  1.1881 -0.1887  1.5160
 5621TIP3    H238279   3.710   2.791   2.306 -1.5433 -0.2113  0.4816
 5622TIP3   OH238280   5.641   4.012  13.397  0.7085  0.7316  0.0665
 5622TIP3    H138281   5.661   3.921  13.375  1.0501  0.4892  1.2726
 5622TIP3    H238282   5.622   4.054  13.313 -0.7902 -0.7600 -0.4000
 5623TIP3   OH238283   0.778   0.942   5.235  0.0248  0.2008  0.0548
 5623TIP3    H138284   0.797   0.895   5.154 -0.8703 -0.6564  0.3158
 5623TIP3    H238285   0.687   0.919   5.255  0.2487  0.3498  1.3329
 5624TIP3   OH238286   3.743   0.635   6.229 -0.8758 -0.7236  0.6573
 5624TIP3    H138287   3.667   0.614   6.284 -1.3845 -0.6441  0.0043
 5624TIP3    H238288   3.710   0.699   6.167 -0.4951 -1.3189 -0.1771
 5625TIP3   OH238289   5.688   1.137   5.800 -0.1400  0.3850  0.0942
 5625TIP3    H138290   5.713   1.225   5.827 -0.7770  0.6902 -0.2677
 5625TIP3    H238291   5.746   1.117   5.726  1.0617 -0.1347  1.1508
 5626TIP3   OH238292   0.524   3.451  15.789  0.1644  0.0628  0.1662
 5626TIP3    H138293   0.556   3.483  15.705  1.7351  0.9258  1.0343
 5626TIP3    H238294   0.453   3.510  15.813 -0.9074 -0.7351 -0.9309
 5627TIP3   OH238295   5.706   2.353  17.277 -0.4533  0.2087 -0.9111
 5627TIP3    H138296   5.745   2.311  17.200 -1.4257  0.8590 -1.7798
 5627TIP3    H238297   5.653   2.284  17.317  0.3322 -0.2324 -0.5977
 5628TIP3   OH238298   6.696   6.100   5.684 -0.6057  0.1007  0.0492
 5628TIP3    H138299   6.746   6.081   5.604 -0.8719 -0.4386  0.0029
 5628TIP3    H238300   6.626   6.034   5.684 -0.5799  0.0684  0.7552
 5629TIP3   OH238301   2.375   3.972   6.585 -0.2141  0.0724  0.1083
 5629TIP3    H138302   2.363   3.950   6.677  1.3147 -1.4554 -0.0044
 5629TIP3    H238303   2.434   4.047   6.584  2.1140 -1.6574  0.3859
 5630TIP3   OH238304   2.854   1.068   3.809  0.6249 -0.0408 -0.0690
 5630TIP3    H138305   2.928   1.103   3.858 -0.2364  0.4639  0.8986
 5630TIP3    H238306   2.790   1.139   3.807  0.8144  0.1318 -2.3724
 5631TIP3   OH238307   3.894   2.961  11.305  0.2830 -0.4331 -0.1027
 5631TIP3    H138308   3.984   2.931  11.289 -0.0654 -1.3635 -0.4212
 5631TIP3    H238309   3.881   3.033  11.244  0.7473 -0.4368 -0.2102
 5632TIP3   OH238310   1.818   0.054   5.438 -0.0893  0.4630  0.5545
 5632TIP3    H138311   1.820   0.022   5.348 -1.7988 -1.0358  0.9888
 5632TIP3    H238312   1.741   0.110   5.442 -1.2437 -1.1047  1.5261
 5633TIP3   OH238313   6.086   6.585  16.923  0.8273 -0.1996  0.2260
 5633TIP3    H138314   6.053   6.499  16.949  1.6521 -1.2431 -1.9613
 5633TIP3    H238315   6.178   6.584  16.950  1.5372 -1.0730 -2.0202
 5634TIP3   OH238316   3.654   2.777  10.309 -0.3654  0.5598 -0.3095
 5634TIP3    H138317   3.690   2.723  10.239 -0.3057  1.8823 -1.3461
 5634TIP3    H238318   3.699   2.862  10.299 -1.0309  1.0570  0.7546
 5635TIP3   OH238319   1.354   2.132  14.583 -0.2789 -0.2675  0.0430
 5635TIP3    H138320   1.390   2.142  14.671 -0.2998 -1.2513  0.1645
 5635TIP3    H238321   1.262   2.111  14.597 -0.0068 -1.6698 -0.1762
 5636TIP3   OH238322   4.904   2.563   3.531  0.2049  0.2347 -0.2148
 5636TIP3    H138323   4.893   2.570   3.437 -1.0185  1.2821 -0.0159
 5636TIP3    H238324   4.819   2.589   3.568  1.4837  2.7225  1.2734
 5637TIP3   OH238325   3.952   3.818   5.160 -0.3697 -0.4373  0.1521
 5637TIP3    H138326   3.883   3.862   5.112 -0.5392 -0.0233  0.7643
 5637TIP3    H238327   3.932   3.834   5.252  1.6050  1.3926  0.3504
 5638TIP3   OH238328   3.135   5.384   3.762  0.0856 -0.0060 -0.1014
 5638TIP3    H138329   3.143   5.445   3.689  1.8556 -0.2887 -0.1774
 5638TIP3    H238330   3.172   5.432   3.837 -0.8746 -0.0604  0.4334
 5639TIP3   OH238331   4.736   0.496   1.053  0.0501  0.6269  0.7412
 5639TIP3    H138332   4.799   0.472   1.121 -1.0205 -1.7996  0.9837
 5639TIP3    H238333   4.790   0.520   0.978  1.4855 -3.6878  0.1135
 5640TIP3   OH238334   0.889   1.375   0.244 -0.5071 -0.4965  0.1536
 5640TIP3    H138335   0.793   1.379   0.242 -0.4781  0.3255 -0.8236
 5640TIP3    H238336   0.913   1.345   0.156  0.1554  0.5201 -0.0278
 5641TIP3   OH238337   2.777   3.985  12.526  0.5050  0.5871 -0.6445
 5641TIP3    H138338   2.849   4.022  12.577 -0.0233 -0.1606  0.7063
 5641TIP3    H238339   2.786   4.024  12.439  1.3405  2.0576  0.0602
 5642TIP3   OH238340   3.289   1.329  14.644  0.1129  0.4239 -0.1334
 5642TIP3    H138341   3.293   1.378  14.726 -0.2461  2.8669 -1.4734
 5642TIP3    H238342   3.380   1.310  14.623  0.2306  0.1378  0.6157
 5643TIP3   OH238343   2.288   5.760  13.685  0.3447 -0.1903  0.1044
 5643TIP3    H138344   2.234   5.778  13.608  0.3149 -0.9481 -0.0586
 5643TIP3    H238345   2.329   5.844  13.706  0.5211 -0.0214 -0.8647
 5644TIP3   OH238346   5.199   2.895  14.924 -0.1725  0.6925  0.0262
 5644TIP3    H138347   5.178   2.879  14.832 -0.3736 -0.4577  0.2646
 5644TIP3    H238348   5.160   2.981  14.942  1.0296  1.5637 -1.3064
 5645TIP3   OH238349   2.083   6.689   2.822  0.2590  0.4617  1.0474
 5645TIP3    H138350   2.117   6.769   2.782 -0.4181  0.6869  0.9125
 5645TIP3    H238351   2.145   6.621   2.796 -0.2561  0.5674 -0.5458
 5646TIP3   OH238352   5.470   2.069  15.799  0.2876  0.0749  0.4253
 5646TIP3    H138353   5.551   2.104  15.834 -0.6826  0.1951  2.7807
 5646TIP3    H238354   5.408   2.142  15.804 -0.9709 -1.0269  2.5754
 5647TIP3   OH238355   4.284   1.245   6.114 -0.3117 -0.3528  0.3581
 5647TIP3    H138356   4.244   1.330   6.097 -2.0647 -0.7735  1.9847
 5647TIP3    H238357   4.209   1.186   6.128  0.8319 -2.3047 -1.2180
 5648TIP3   OH238358   5.144   6.681  12.478 -0.0237  0.0500 -0.2396
 5648TIP3    H138359   5.190   6.760  12.507 -1.7716  0.9561  0.1934
 5648TIP3    H238360   5.211   6.629  12.434  1.0077  2.1564 -1.3173
 5649TIP3   OH238361   3.569   4.812  12.727  0.5514  0.5638 -0.5536
 5649TIP3    H138362   3.547   4.816  12.820  1.7424  2.0232 -0.3063
 5649TIP3    H238363   3.556   4.901  12.695  1.0879  0.2968 -1.5540
 5650TIP3   OH238364   0.393   3.230   0.453  0.7675  0.3556  0.4654
 5650TIP3    H138365   0.407   3.224   0.547 -0.1059  3.7209  0.9390
 5650TIP3    H238366   0.459   3.292   0.422 -0.4356  1.0922 -0.7241
 5651TIP3   OH238367   5.981   2.008  11.746  0.4176 -0.0028 -0.2294
 5651TIP3    H138368   5.985   2.070  11.673 -0.4039  1.0587  0.5951
 5651TIP3    H238369   5.964   2.062  11.823  0.4184 -1.1837  0.6341
 5652TIP3   OH238370   4.925   4.201   3.704  0.0996  0.6832 -0.4192
 5652TIP3    H138371   4.911   4.228   3.613  0.6188  0.4140 -0.5823
 5652TIP3    H238372   4.955   4.110   3.697  3.0022  1.5341 -0.1527
 5653TIP3   OH238373   0.624   5.741  17.318  0.0855 -0.3860 -0.5077
 5653TIP3    H138374   0.670   5.767  17.239 -0.0195  3.0664  0.3785
 5653TIP3    H238375   0.559   5.810  17.331 -1.7559 -2.3028  1.1297
 5654TIP3   OH238376   0.536   4.205   0.017 -0.3727 -0.1669 -0.3357
 5654TIP3    H138377   0.481   4.180  -0.058 -1.2875  1.4976 -0.2627
 5654TIP3    H238378   0.620   4.226  -0.022 -0.7187  0.2758 -0.8659
 5655TIP3   OH238379   6.079   0.114  15.130 -0.4553  0.3748 -0.0955
 5655TIP3    H138380   6.159   0.147  15.088  0.1159 -0.9476 -0.0743
 5655TIP3    H238381   6.025   0.084  15.057  0.0545 -0.8658  0.0255
 5656TIP3   OH238382   2.892   0.078  15.877  0.3140 -0.1886 -0.1197
 5656TIP3    H138383   2.890   0.169  15.845 -0.2280 -0.4965 -1.0091
 5656TIP3    H238384   2.985   0.059  15.890  0.4494  0.4084 -0.1731
 5657TIP3   OH238385   0.181   6.422   3.167 -0.1982  0.0280  0.5273
 5657TIP3    H138386   0.267   6.444   3.131  0.7357 -0.0170  2.5756
 5657TIP3    H238387   0.189   6.440   3.260 -2.0955 -1.0084  0.9424
 5658TIP3   OH238388   0.961   3.441   4.545  0.6345 -0.1433 -0.1911
 5658TIP3    H138389   0.976   3.399   4.461  0.8771  0.3124 -0.3761
 5658TIP3    H238390   0.986   3.375   4.610  2.2674  0.1590 -0.4764
 5659TIP3   OH238391   2.254   1.869  14.502  0.7373 -0.9525 -0.4507
 5659TIP3    H138392   2.310   1.861  14.578 -1.4896 -2.0215  1.2015
 5659TIP3    H238393   2.231   1.779  14.479 -0.4028 -0.5646 -0.9398
 5660TIP3   OH238394   0.227   0.950   6.305 -0.0774  0.4047  0.1466
 5660TIP3    H138395   0.285   0.892   6.355  1.7769  1.2679 -0.9017
 5660TIP3    H238396   0.226   1.032   6.355  1.7751  1.2680 -1.1293
 5661TIP3   OH238397   2.679   0.369  14.417 -0.3413 -0.2156 -0.4805
 5661TIP3    H138398   2.631   0.287  14.429 -0.4766 -0.4218 -2.2274
 5661TIP3    H238399   2.765   0.342  14.385 -0.4691  0.3177 -1.2932
 5662TIP3   OH238400   2.574   1.141  13.164 -0.1025 -0.5050  0.2775
 5662TIP3    H138401   2.601   1.049  13.163  0.5397 -0.3365  0.7338
 5662TIP3    H238402   2.607   1.174  13.248 -1.9623 -0.3223  0.9865
 5663TIP3   OH238403   6.501   5.644   2.597  0.1279 -0.5236  0.0473
 5663TIP3    H138404   6.470   5.735   2.601 -2.2040 -1.1164 -2.0839
 5663TIP3    H238405   6.517   5.629   2.504 -0.5755 -2.5722  0.2121
 5664TIP3   OH238406   6.129   5.569  10.616  0.4982 -0.1101 -0.3352
 5664TIP3    H138407   6.073   5.620  10.556 -0.3738  1.3553  1.6033
 5664TIP3    H238408   6.092   5.481  10.614  0.1032  0.0600 -1.4496
 5665TIP3   OH238409   1.733   0.878   5.989  0.5643  0.1852 -0.4548
 5665TIP3    H138410   1.828   0.879   5.981  0.5978  1.5366 -0.2106
 5665TIP3    H238411   1.702   0.934   5.917 -0.1719 -1.5202 -1.5404
 5666TIP3   OH238412   4.478   0.979  14.690  0.3311  0.2625 -0.6517
 5666TIP3    H138413   4.389   1.014  14.696 -0.3221 -1.3677 -0.3229
 5666TIP3    H238414   4.526   1.045  14.640 -1.0390  1.2114 -0.7798
 5667TIP3   OH238415   4.295   4.712   3.672  0.6428  0.1940  0.8651
 5667TIP3    H138416   4.303   4.623   3.640  1.9877  0.2326  1.0125
 5667TIP3    H238417   4.245   4.705   3.753  0.6744 -0.4170  0.8323
 5668TIP3   OH238418   6.636   5.976  12.196  0.4947  0.3051  0.1350
 5668TIP3    H138419   6.580   6.031  12.250  0.6377 -1.4077  2.1477
 5668TIP3    H238420   6.578   5.944  12.127 -0.8527 -0.7430  1.6735
 5669TIP3   OH238421   3.352   3.214  12.712  0.5920  0.4151  0.3058
 5669TIP3    H138422   3.332   3.160  12.636 -1.7346  0.4926  0.7916
 5669TIP3    H238423   3.420   3.165  12.759 -0.0478 -1.1067 -0.2940
 5670TIP3   OH238424   1.891   6.109  12.965  0.1668 -0.5399 -0.1932
 5670TIP3    H138425   1.955   6.038  12.966  0.4345 -0.2973  0.8544
 5670TIP3    H238426   1.831   6.087  13.036  0.7441  0.7233  0.7147
 5671TIP3   OH238427   2.623   4.373   1.089 -0.0547 -0.4614  0.3757
 5671TIP3    H138428   2.702   4.344   1.134 -1.0780 -1.2251  1.7728
 5671TIP3    H238429   2.578   4.292   1.064 -0.2493 -0.0406 -0.6696
 5672TIP3   OH238430   1.369   1.083  12.150  0.3486  0.0034  0.4234
 5672TIP3    H138431   1.436   1.139  12.191  0.3784  0.1854  0.1286
 5672TIP3    H238432   1.340   1.133  12.074  2.0492 -1.3765 -1.2143
 5673TIP3   OH238433   4.824   3.220   4.398  0.5354  0.4948  0.6501
 5673TIP3    H138434   4.799   3.153   4.462  0.8966  1.6900  2.1218
 5673TIP3    H238435   4.819   3.302   4.448  2.6748  1.2753 -0.3384
 5674TIP3   OH238436   1.597   1.083  15.021 -0.0811  0.3066 -0.2417
 5674TIP3    H138437   1.550   1.160  15.053  0.7580  0.5878  0.3525
 5674TIP3    H238438   1.608   1.099  14.927  0.5611  1.1917 -0.0333
 5675TIP3   OH238439   2.480   3.749   0.865 -0.3068  0.0455 -0.4773
 5675TIP3    H138440   2.526   3.761   0.948  1.6264  1.4228 -1.6565
 5675TIP3    H238441   2.425   3.673   0.879  1.6060 -1.1104  1.3833
 5676TIP3   OH238442   2.777   5.449   2.058  0.4389  0.3906  0.3351
 5676TIP3    H138443   2.707   5.433   1.994 -1.2578  0.0222  2.1720
 5676TIP3    H238444   2.814   5.534   2.032  0.7424 -0.3444 -1.8713
 5677TIP3   OH238445   2.083   1.595  11.300 -0.4617 -0.4215  0.1995
 5677TIP3    H138446   2.157   1.577  11.358 -1.4561 -1.4389  1.2191
 5677TIP3    H238447   2.106   1.551  11.218  0.6416  0.4171  0.0331
 5678TIP3   OH238448   4.691   1.105  12.203  0.2226 -0.5837 -0.3427
 5678TIP3    H138449   4.665   1.193  12.179 -2.3950 -0.8412  1.2055
 5678TIP3    H238450   4.755   1.117  12.274  0.0038  0.0514 -0.2536
 5679TIP3   OH238451   4.532   6.533   0.768  0.0102 -0.4683 -0.1906
 5679TIP3    H138452   4.540   6.446   0.729  1.7372 -0.8188  0.8423
 5679TIP3    H238453   4.587   6.589   0.713 -1.8324  0.2568 -1.4313
 5680TIP3   OH238454   5.506   3.648   3.659  0.7054 -0.2168 -0.3337
 5680TIP3    H138455   5.428   3.671   3.610  0.0577  1.0482  1.2336
 5680TIP3    H238456   5.539   3.569   3.616 -1.5128 -0.8726 -0.9213
 5681TIP3   OH238457   5.200   0.560  15.581  0.4093  0.1617  0.5367
 5681TIP3    H138458   5.160   0.626  15.525  1.2694  1.1844  1.0928
 5681TIP3    H238459   5.130   0.496  15.596 -0.2153  0.5479 -0.6064
 5682TIP3   OH238460   1.569   0.235  13.776 -0.0006 -0.1601 -0.3899
 5682TIP3    H138461   1.571   0.249  13.681  0.0072 -0.2183 -0.3986
 5682TIP3    H238462   1.656   0.203  13.797  0.4422  1.1312 -0.1627
 5683TIP3   OH238463   1.813   4.905  13.249  0.0541 -0.4925 -0.0540
 5683TIP3    H138464   1.822   4.912  13.344 -0.1978  1.2623 -0.1415
 5683TIP3    H238465   1.878   4.965  13.214  0.9737 -1.9904 -1.0587
 5684TIP3   OH238466   0.751   6.046  16.493 -0.2332 -0.3921  0.0302
 5684TIP3    H138467   0.709   6.083  16.415 -1.7726  1.5751  1.7066
 5684TIP3    H238468   0.712   5.959  16.502  0.5679 -1.0063 -1.7649
 5685TIP3   OH238469   4.411   2.645  14.701 -0.2614 -0.3426  0.3642
 5685TIP3    H138470   4.493   2.653  14.652 -0.1307 -0.8601  0.4888
 5685TIP3    H238471   4.403   2.727  14.749  0.7260 -0.6919  1.1687
 5686TIP3   OH238472   6.305   1.224  14.687  0.6340  0.0917  0.1536
 5686TIP3    H138473   6.361   1.264  14.752  1.0873  1.2326 -0.9068
 5686TIP3    H238474   6.292   1.292  14.620 -1.4280 -0.3632  0.0122
 5687TIP3   OH238475   3.681   5.786  13.116  0.1287 -0.2295 -0.1514
 5687TIP3    H138476   3.709   5.848  13.048  1.3599 -0.8199 -0.2028
 5687TIP3    H238477   3.757   5.729  13.129 -0.2133 -0.3559  1.4667
 5688TIP3   OH238478   6.222   1.448  12.939 -0.0276  0.0838 -0.1071
 5688TIP3    H138479   6.263   1.526  12.975 -0.8151 -0.6531  2.6406
 5688TIP3    H238480   6.286   1.378  12.952 -0.0454 -0.0750 -0.8298
 5689TIP3   OH238481   2.588   2.872  13.608 -0.0359 -0.1552 -0.1933
 5689TIP3    H138482   2.655   2.896  13.545 -0.4381  1.2016 -0.1412
 5689TIP3    H238483   2.615   2.914  13.689 -0.2753 -0.6738  0.1578
 5690TIP3   OH238484   1.630   6.732   5.674 -0.2119 -0.8538  0.3477
 5690TIP3    H138485   1.704   6.693   5.627  0.4921 -0.3340  0.9978
 5690TIP3    H238486   1.555   6.722   5.615  0.4647 -1.0075 -0.4961
 5691TIP3   OH238487   4.948   5.581  16.699  0.7064  0.1572 -0.2317
 5691TIP3    H138488   4.867   5.583  16.751 -0.9634 -1.5429 -2.5727
 5691TIP3    H238489   4.953   5.668  16.661  0.0894  0.3458  0.0962
 5692TIP3   OH238490   5.465   0.559   5.505  0.2125 -0.2082 -0.1382
 5692TIP3    H138491   5.527   0.631   5.518  1.2666 -1.0503 -0.3728
 5692TIP3    H238492   5.430   0.542   5.592 -0.5422  0.9886 -0.1715
 5693TIP3   OH238493   5.919   3.869  14.348 -0.2739 -0.1839  0.1910
 5693TIP3    H138494   5.871   3.812  14.287  0.0291 -0.2527  0.0156
 5693TIP3    H238495   5.945   3.944  14.294  1.8048 -1.1957 -0.3132
 5694TIP3   OH238496   6.121   6.747  17.253 -0.0590  0.4793 -0.4649
 5694TIP3    H138497   6.065   6.770  17.179  0.4889 -1.2883 -1.4706
 5694TIP3    H238498   6.067   6.766  17.330 -0.5171  2.6814 -1.2516
 5695TIP3   OH238499   6.752   3.522  14.907 -0.1233  0.2651  0.1693
 5695TIP3    H138500   6.711   3.545  14.991  0.6541  2.9788 -0.0735
 5695TIP3    H238501   6.679   3.509  14.847 -0.6734  0.2107  0.8402
 5696TIP3   OH238502   6.060   6.718  15.576 -0.0387  0.1906 -0.0867
 5696TIP3    H138503   6.051   6.752  15.665 -0.7192  0.2818 -0.1918
 5696TIP3    H238504   6.051   6.794  15.520 -1.6220 -0.1376 -0.3231
 5697TIP3   OH238505   5.774   2.659   2.969  0.7411 -0.0716  0.0217
 5697TIP3    H138506   5.700   2.619   3.015  0.0852  2.6431  1.5636
 5697TIP3    H238507   5.851   2.634   3.021  0.2907  0.9196  1.2311
 5698TIP3   OH238508   0.051   4.226  15.021  0.0313 -0.2211  0.2000
 5698TIP3    H138509   0.089   4.313  15.037 -1.3557  0.2002  1.3992
 5698TIP3    H238510  -0.023   4.243  14.963 -0.0944 -0.6392  0.2348
 5699TIP3   OH238511   3.761   6.325  10.761  0.2335  0.1620  0.1966
 5699TIP3    H138512   3.722   6.401  10.718 -0.6583 -1.1934 -1.5181
 5699TIP3    H238513   3.704   6.309  10.837  0.1102  0.8665  0.2626
 5700TIP3   OH238514   3.645   0.640  14.805 -0.1406 -0.0679 -0.0031
 5700TIP3    H138515   3.678   0.729  14.797 -0.2670  0.2566  2.3776
 5700TIP3    H238516   3.558   0.650  14.844 -0.4833 -1.2091 -0.4391
 5701TIP3   OH238517   3.465   1.953   2.134 -0.1745 -0.4445  0.3188
 5701TIP3    H138518   3.543   2.008   2.143 -0.0718 -0.4464 -0.5384
 5701TIP3    H238519   3.440   1.934   2.225  1.1622 -0.9139  0.6291
 5702TIP3   OH238520   5.947   1.379  12.652  0.0302  0.2881 -0.1042
 5702TIP3    H138521   5.965   1.294  12.612 -0.3395  0.9324 -1.7477
 5702TIP3    H238522   5.883   1.420  12.593  0.0126  1.6048  0.7820
 5703TIP3   OH238523   4.163   3.716   1.892 -0.0553  0.2254  0.4749
 5703TIP3    H138524   4.173   3.714   1.796  1.9564 -2.0907  0.6250
 5703TIP3    H238525   4.250   3.692   1.925 -1.1876 -0.9689  2.8041
 5704TIP3   OH238526   3.373   0.612  12.120  0.7592  0.1062 -0.0566
 5704TIP3    H138527   3.353   0.521  12.102  3.8457 -1.0296  1.4773
 5704TIP3    H238528   3.365   0.656  12.035 -0.5951 -1.5851 -0.8482
 5705TIP3   OH238529   6.506   6.387  14.416 -0.5948  0.2746 -0.2405
 5705TIP3    H138530   6.583   6.343  14.454 -0.3765  0.9115  0.0622
 5705TIP3    H238531   6.521   6.384  14.322 -1.0558 -1.1711 -0.3037
 5706TIP3   OH238532   2.411   4.999  14.164 -0.1591 -0.2806 -0.9650
 5706TIP3    H138533   2.468   4.931  14.127 -1.4366 -0.9127 -1.8446
 5706TIP3    H238534   2.384   4.965  14.249 -0.2742 -0.5858 -1.1227
 5707TIP3   OH238535   1.064   1.309   0.566 -0.1016  0.5845 -0.7056
 5707TIP3    H138536   1.067   1.330   0.659 -0.8382 -0.6010 -0.3957
 5707TIP3    H238537   1.140   1.354   0.529  0.7094  0.3551  0.6150
 5708TIP3   OH238538   1.610   3.154  13.391  0.8123 -0.2656  0.6821
 5708TIP3    H138539   1.665   3.232  13.401 -0.8102  0.8412  1.2429
 5708TIP3    H238540   1.592   3.150  13.297  1.1232 -0.1477  0.6142
 5709TIP3   OH238541   4.412   0.734  13.050  0.4405  0.0685  0.0106
 5709TIP3    H138542   4.503   0.703  13.044  0.4482  0.3169 -1.7210
 5709TIP3    H238543   4.410   0.811  12.993 -1.0418 -0.4156 -0.6304
 5710TIP3   OH238544   3.088   3.302  11.321 -0.2279 -0.1727  0.0290
 5710TIP3    H138545   3.039   3.263  11.248 -1.3520  1.4388 -0.1257
 5710TIP3    H238546   3.179   3.303  11.291 -0.4379 -1.0040 -0.6819
 5711TIP3   OH238547   2.309   5.475   1.265 -0.4185  0.0004 -0.0869
 5711TIP3    H138548   2.232   5.427   1.293  0.2441 -0.6614  0.6457
 5711TIP3    H238549   2.382   5.416   1.283  0.2106  0.3460 -1.3932
 5712TIP3   OH238550   1.413   1.123   1.953  0.4676  0.7576 -0.1965
 5712TIP3    H138551   1.491   1.068   1.950  1.1461  1.7288 -0.9699
 5712TIP3    H238552   1.385   1.120   2.044  0.7273 -0.5147 -0.1362
 5713TIP3   OH238553   6.623   5.016  14.979  0.3846 -0.0290  0.0929
 5713TIP3    H138554   6.709   5.001  14.940  0.2665 -0.0733 -0.1537
 5713TIP3    H238555   6.626   4.969  15.062  1.1661  1.3100  0.8401
 5714TIP3   OH238556   4.833   0.424   2.884 -0.7949 -0.4112 -0.2477
 5714TIP3    H138557   4.914   0.412   2.834 -0.7112  1.0864 -0.5152
 5714TIP3    H238558   4.816   0.338   2.922  0.8631 -0.7926 -0.2754
 5715TIP3   OH238559   1.186   4.340  10.976  0.3658  0.0070  0.4311
 5715TIP3    H138560   1.248   4.401  10.935 -1.3906  0.2584 -2.0792
 5715TIP3    H238561   1.233   4.306  11.052  2.8150  1.6560 -0.2160
 5716TIP3   OH238562   4.859   0.830  16.744 -0.3149 -0.3176  0.1062
 5716TIP3    H138563   4.869   0.739  16.775 -0.1170 -0.3060  0.0779
 5716TIP3    H238564   4.765   0.843  16.737 -0.3356 -1.2290 -1.9889
 5717TIP3   OH238565   4.046   1.849   5.914 -0.4624  0.5023  0.0889
 5717TIP3    H138566   4.091   1.801   5.984 -0.1087 -1.0590 -1.1635
 5717TIP3    H238567   4.108   1.849   5.841 -0.1775  3.4971  0.2224
 5718TIP3   OH238568   0.814   1.057   4.863 -0.3275  0.8629  0.2809
 5718TIP3    H138569   0.749   1.101   4.918  0.9523  1.1754  1.6259
 5718TIP3    H238570   0.852   0.990   4.920  0.0266  0.1855 -0.7179
 5719TIP3   OH238571   3.024   0.415   5.720  0.3002 -0.0764 -0.0479
 5719TIP3    H138572   2.993   0.370   5.799 -0.0958 -0.1872 -0.2607
 5719TIP3    H238573   2.946   0.420   5.664  0.7906 -0.8398 -0.8264
 5720TIP3   OH238574   6.627   1.748  14.270 -0.7042 -0.4962  0.5813
 5720TIP3    H138575   6.640   1.824  14.326  1.2531  0.0274 -0.4803
 5720TIP3    H238576   6.579   1.685  14.324 -0.5648  0.7081  2.1563
 5721TIP3   OH238577   1.523   1.823   4.425 -0.0870 -0.6558  0.1403
 5721TIP3    H138578   1.467   1.874   4.367  1.9660  0.5193 -0.9253
 5721TIP3    H238579   1.514   1.864   4.510  0.2945  0.5053 -0.3606
 5722TIP3   OH238580   5.093   3.933  13.110 -0.1108 -0.3650  1.2891
 5722TIP3    H138581   5.001   3.938  13.133 -0.6990  0.2063 -0.9805
 5722TIP3    H238582   5.094   3.925  13.015  2.1293 -2.6537  1.3848
 5723TIP3   OH238583   6.052   3.900   3.108  0.4891 -0.2536  0.3615
 5723TIP3    H138584   6.100   3.818   3.119  0.0044 -0.6228 -0.1988
 5723TIP3    H238585   6.079   3.932   3.022 -1.2332 -1.1499 -0.5695
 5724TIP3   OH238586   6.516   2.454  12.328 -0.0863  0.2575 -0.3931
 5724TIP3    H138587   6.553   2.542  12.325  3.9119 -1.2191 -0.5335
 5724TIP3    H238588   6.518   2.431  12.421  2.8332 -0.9734 -0.6358
 5725TIP3   OH238589   5.078   3.680  14.071  0.3122 -0.1489  0.0351
 5725TIP3    H138590   5.082   3.585  14.077 -0.3055 -0.2227 -0.5936
 5725TIP3    H238591   5.054   3.709  14.159 -2.0344 -0.7503 -0.3364
 5726TIP3   OH238592   0.271   2.127   4.659  0.1888 -0.1472 -0.2048
 5726TIP3    H138593   0.177   2.128   4.637  0.4016 -0.5786 -1.1723
 5726TIP3    H238594   0.294   2.035   4.661  0.0996 -0.1609  2.3391
 5727TIP3   OH238595   3.955   4.403  13.013  0.0316  0.2185  0.0344
 5727TIP3    H138596   3.909   4.475  13.056  0.3968  0.0091  0.7994
 5727TIP3    H238597   3.946   4.329  13.072  1.8571  0.3332  0.5383
 5728TIP3   OH238598   4.706   5.733   2.414 -0.0297  0.0520  0.3048
 5728TIP3    H138599   4.656   5.774   2.485 -0.6310  0.8299 -0.5385
 5728TIP3    H238600   4.696   5.639   2.430 -0.8579  0.2060  0.7826
 5729TIP3   OH238601   2.994   2.580   4.868  0.7296  0.1438 -0.0002
 5729TIP3    H138602   2.993   2.529   4.788  0.2986  0.1212  0.0191
 5729TIP3    H238603   2.945   2.660   4.847  2.1113  0.9565 -0.2892
 5730TIP3   OH238604   2.311   0.940  16.406  0.1611 -0.2141 -0.0440
 5730TIP3    H138605   2.356   0.936  16.491  1.1806  1.0780 -0.4989
 5730TIP3    H238606   2.242   1.005  16.418 -1.0901 -1.5748  0.3957
 5731TIP3   OH238607   5.912   4.214   0.704  0.2189 -0.2448  0.1198
 5731TIP3    H138608   5.859   4.282   0.745 -0.9550 -2.0406  1.7825
 5731TIP3    H238609   5.852   4.169   0.645  0.3931 -1.0743  0.5484
 5732TIP3   OH238610   3.649   6.201  14.958  0.2105 -0.2146  0.3057
 5732TIP3    H138611   3.708   6.215  15.032  0.0188 -0.2646  0.4713
 5732TIP3    H238612   3.698   6.145  14.898  0.6138  0.3793  0.0852
 5733TIP3   OH238613   1.716   2.350  14.263  0.0519 -0.0981  0.9548
 5733TIP3    H138614   1.803   2.384  14.245  0.5148 -0.6320  2.0855
 5733TIP3    H238615   1.662   2.381  14.190  0.9479  1.1298  0.7982
 5734TIP3   OH238616   6.013   4.536   1.002 -0.2147  0.5063 -0.2896
 5734TIP3    H138617   5.975   4.449   1.016  0.5045  0.4994  2.0503
 5734TIP3    H238618   6.100   4.518   0.966 -0.1952  0.2703 -0.1302
 5735TIP3   OH238619   3.786   2.361   1.876 -0.0350 -0.1485 -0.1580
 5735TIP3    H138620   3.782   2.275   1.834 -0.8943 -0.4130  0.4177
 5735TIP3    H238621   3.715   2.359   1.941  2.3777 -0.5368  2.7152
 5736TIP3   OH238622   2.807   4.047  11.898  0.1276 -0.2352 -0.0174
 5736TIP3    H138623   2.846   4.022  11.814  3.2293  1.1566  0.8805
 5736TIP3    H238624   2.809   3.968  11.951 -1.1582 -0.9298 -0.9401
 5737TIP3   OH238625   5.643   1.153   4.357 -0.6880  0.2455 -0.5403
 5737TIP3    H138626   5.638   1.093   4.283  0.0571  0.1472 -0.5184
 5737TIP3    H238627   5.652   1.240   4.318  0.1022  0.1548 -0.5690
 5738TIP3   OH238628   4.041   6.256  14.973  0.0873 -0.1033  0.2733
 5738TIP3    H138629   4.076   6.272  14.885  1.5051  0.5418  0.9221
 5738TIP3    H238630   4.027   6.344  15.009  0.8037 -0.3341  1.1641
 5739TIP3   OH238631   2.963   4.268   3.416 -0.0257  0.0865  0.8481
 5739TIP3    H138632   2.890   4.330   3.420 -1.3297 -1.4220  1.7836
 5739TIP3    H238633   2.956   4.228   3.329  0.0706  0.4066  0.6953
 5740TIP3   OH238634   5.863   1.099   1.940  0.4940  0.8039 -0.3134
 5740TIP3    H138635   5.845   1.126   1.850 -0.8495  3.3417  0.6104
 5740TIP3    H238636   5.946   1.140   1.962  1.0318 -0.1591 -0.4952
 5741TIP3   OH238637   3.771   2.238  14.400 -0.0104 -0.1868 -0.2130
 5741TIP3    H138638   3.776   2.237  14.304 -1.4673 -0.7387 -0.3110
 5741TIP3    H238639   3.678   2.226  14.419 -0.1770  2.5449  1.2305
 5742TIP3   OH238640   1.824   4.563  11.605  0.7520  0.2919 -0.5268
 5742TIP3    H138641   1.782   4.632  11.656  2.0957  0.1091  0.8676
 5742TIP3    H238642   1.811   4.591  11.514  1.6763  2.6532 -0.0058
 5743TIP3   OH238643   5.198   0.374  16.659  0.2181 -0.1871 -0.4906
 5743TIP3    H138644   5.263   0.307  16.681  0.1908  0.0403  0.2902
 5743TIP3    H238645   5.118   0.345  16.703 -0.1607 -0.3410 -1.2508
 5744TIP3   OH238646   3.721   2.718  11.222  0.2853 -0.1313  0.4481
 5744TIP3    H138647   3.759   2.655  11.283  1.3775  1.2976  1.3376
 5744TIP3    H238648   3.788   2.787  11.216 -0.7307  0.7876 -0.7114
 5745TIP3   OH238649   1.959   4.359  14.459  0.0230 -0.5399 -0.1360
 5745TIP3    H138650   2.049   4.386  14.440 -0.3086  0.4274 -0.3441
 5745TIP3    H238651   1.970   4.289  14.524  0.9563 -1.0115 -0.7622
 5746TIP3   OH238652   3.452   4.028  11.211  0.6778  0.1349 -0.3423
 5746TIP3    H138653   3.481   3.956  11.156  1.4686  0.0748  0.1302
 5746TIP3    H238654   3.454   4.105  11.154 -0.4231 -0.2454 -0.9199
 5747TIP3   OH238655   4.419   6.202  13.831  0.6031  0.0492  0.5868
 5747TIP3    H138656   4.372   6.254  13.896  1.3006  0.9085  0.4178
 5747TIP3    H238657   4.504   6.245  13.822  1.1589 -1.0538  0.3536
 5748TIP3   OH238658   2.746   3.541  13.952 -0.2333 -0.0153  0.4806
 5748TIP3    H138659   2.819   3.546  14.014  1.1931 -3.4895 -0.6723
 5748TIP3    H238660   2.694   3.466  13.983 -1.3121  0.1993 -0.7482
 5749TIP3   OH238661   1.023   1.052   5.297  0.3040  0.1229 -0.3681
 5749TIP3    H138662   0.933   1.046   5.266  1.2002  1.3725 -3.5768
 5749TIP3    H238663   1.052   0.961   5.305 -0.5069 -0.2921 -1.7877
 5750TIP3   OH238664   5.322   1.613  15.382 -0.0194 -0.0095  0.7939
 5750TIP3    H138665   5.319   1.709  15.379 -0.4554 -0.0378 -1.3103
 5750TIP3    H238666   5.251   1.589  15.442 -0.6975  0.9741  0.4256
 5751TIP3   OH238667   4.061   5.025  15.928 -0.3774 -0.0595 -0.3958
 5751TIP3    H138668   4.044   5.095  15.864  0.2831  0.8608  0.3909
 5751TIP3    H238669   4.098   5.071  16.003  0.6069 -1.3303 -0.0645
 5752TIP3   OH238670   2.084   3.361  11.827 -0.0296 -0.1993  0.1344
 5752TIP3    H138671   2.073   3.292  11.892 -1.0862  0.5345  0.7560
 5752TIP3    H238672   1.996   3.375  11.792  0.0155  1.3425  0.5575
 5753TIP3   OH238673   0.154   3.623   6.811  0.1172  0.2041  0.4218
 5753TIP3    H138674   0.097   3.684   6.764  1.5425  1.8461  0.7310
 5753TIP3    H238675   0.182   3.672   6.888  0.1557 -1.3980  1.4572
 5754TIP3   OH238676   2.673   6.535  12.343 -0.2928  0.1197  0.0919
 5754TIP3    H138677   2.728   6.528  12.265 -0.7653 -0.1075 -0.2328
 5754TIP3    H238678   2.593   6.579  12.312 -0.1991  0.6632  0.6056
 5755TIP3   OH238679   3.675   4.489   3.866 -0.1056 -0.2923 -0.3764
 5755TIP3    H138680   3.581   4.476   3.880  0.6137 -3.2929  3.1715
 5755TIP3    H238681   3.701   4.420   3.805  0.1947 -1.6019  1.1585
 5756TIP3   OH238682   5.764   4.141  12.767  0.0027  0.0799  0.0255
 5756TIP3    H138683   5.762   4.227  12.724  1.0404  0.4230  0.6166
 5756TIP3    H238684   5.726   4.157  12.854 -1.4526 -0.4611 -0.4825
 5757TIP3   OH238685   3.847   4.586   5.233 -0.0786  0.4729  0.7823
 5757TIP3    H138686   3.844   4.546   5.320  1.1506 -0.4076  0.4606
 5757TIP3    H238687   3.917   4.651   5.239  0.1820  0.2326  0.3948
 5758TIP3   OH238688   0.462   5.763   5.483  0.8210  0.5074  0.1799
 5758TIP3    H138689   0.487   5.758   5.391 -0.1129 -0.8561 -0.0382
 5758TIP3    H238690   0.543   5.784   5.529  2.0347 -1.8998 -0.6726
 5759TIP3   OH238691   4.394   1.039   6.278  0.7006  0.4115 -0.1804
 5759TIP3    H138692   4.333   0.967   6.293  2.0965 -0.8064 -0.0449
 5759TIP3    H238693   4.350   1.096   6.215 -0.5485 -0.4250 -0.0988
 5760TIP3   OH238694   3.958   6.097   3.501  0.3649  0.0823 -0.6789
 5760TIP3    H138695   4.053   6.103   3.491  0.4760  1.5496  0.9701
 5760TIP3    H238696   3.930   6.186   3.521 -1.3463 -0.3655 -0.9598
 5761TIP3   OH238697   2.478   1.060   6.502 -0.0301 -0.0934  0.5595
 5761TIP3    H138698   2.451   1.123   6.569 -3.7247 -0.0196 -0.8103
 5761TIP3    H238699   2.414   0.989   6.508  0.1159 -0.5707 -2.1776
 5762TIP3   OH238700   4.369   5.241  12.857  0.5770 -0.2090 -0.0968
 5762TIP3    H138701   4.314   5.286  12.920 -0.7880 -0.5734 -0.9945
 5762TIP3    H238702   4.405   5.310  12.802  1.5598  0.0861  0.8837
 5763TIP3   OH238703   4.397   2.377  15.339 -0.0232 -0.7803  0.1522
 5763TIP3    H138704   4.436   2.463  15.353 -0.0459 -0.8804  0.8738
 5763TIP3    H238705   4.348   2.385  15.256  2.6479 -1.0587 -1.5604
 5764TIP3   OH238706   0.236   1.999   6.287 -0.3921 -0.3620  0.3011
 5764TIP3    H138707   0.258   2.060   6.358  0.2764 -0.1649 -0.0656
 5764TIP3    H238708   0.163   1.948   6.321 -0.8021  0.4789  0.7151
 5765TIP3   OH238709   6.020   4.672  12.291 -0.1973 -0.5830  0.2887
 5765TIP3    H138710   6.047   4.581  12.277  3.1496  0.1858  0.8965
 5765TIP3    H238711   6.031   4.713  12.205  2.0112 -0.0063  0.7815
 5766TIP3   OH238712   5.662   3.505   5.693  0.1161  0.0632  0.3124
 5766TIP3    H138713   5.674   3.581   5.749  0.9145  0.2427 -0.0861
 5766TIP3    H238714   5.635   3.541   5.608 -1.1018 -0.2066  0.5629
 5767TIP3   OH238715   1.290   4.131  16.416  0.5890 -0.1030  0.1577
 5767TIP3    H138716   1.258   4.190  16.348 -0.1837 -1.7436 -0.9695
 5767TIP3    H238717   1.340   4.187  16.475 -2.4847  2.2563  0.8031
 5768TIP3   OH238718   0.341   1.412   5.022  0.1350  0.0460 -0.2034
 5768TIP3    H138719   0.408   1.370   5.076 -0.2336 -0.2878 -0.0045
 5768TIP3    H238720   0.371   1.503   5.014 -0.1404  0.2790  1.1256
 5769TIP3   OH238721   4.889   5.942  12.154  0.2398  1.0219  0.0205
 5769TIP3    H138722   4.863   5.983  12.236  1.8117  2.0532  0.0369
 5769TIP3    H238723   4.839   5.989  12.087 -1.7031 -0.3947  0.3929
 5770TIP3   OH238724   4.345   6.388   5.848  0.4851 -0.2506  0.2504
 5770TIP3    H138725   4.416   6.447   5.822  1.1764 -1.3658 -0.4554
 5770TIP3    H238726   4.293   6.440   5.909  2.0415  0.5114  0.9883
 5771TIP3   OH238727   0.152   5.339  14.417 -0.4180  0.0996  0.4035
 5771TIP3    H138728   0.086   5.387  14.467  0.2250  0.5606  0.8145
 5771TIP3    H238729   0.213   5.406  14.388 -1.1127 -0.0476 -1.5675
 5772TIP3   OH238730   6.705   1.717   5.427 -0.0029 -0.4330 -0.2825
 5772TIP3    H138731   6.630   1.776   5.434 -0.3077 -0.9067  0.5117
 5772TIP3    H238732   6.749   1.745   5.347  0.6230  1.7494  0.7574
 5773TIP3   OH238733   0.728   3.974  12.300 -0.7062 -0.0563 -0.3183
 5773TIP3    H138734   0.817   3.944  12.318 -0.0717  0.1107 -2.7442
 5773TIP3    H238735   0.682   3.895  12.269 -0.7159  0.2882 -1.2169
 5774TIP3   OH238736   6.393   2.092  16.255 -0.0613  0.0825  0.1114
 5774TIP3    H138737   6.304   2.057  16.261 -0.1149  0.3637  1.2688
 5774TIP3    H238738   6.438   2.056  16.332  0.7557  0.1591 -0.3143
 5775TIP3   OH238739   3.070   0.879   3.527 -0.0163 -0.1636  0.5230
 5775TIP3    H138740   3.148   0.934   3.521 -2.1640  2.9515 -1.2981
 5775TIP3    H238741   3.105   0.790   3.531  3.6264  1.1479  1.9803
 5776TIP3   OH238742   0.437   1.396   5.632 -0.6062 -0.3018  0.3437
 5776TIP3    H138743   0.422   1.372   5.541 -0.7409  1.4684 -0.1383
 5776TIP3    H238744   0.491   1.325   5.667 -1.1390 -1.3641 -0.9006
 5777TIP3   OH238745   4.237   1.263   0.584 -0.0125  0.3125 -0.2509
 5777TIP3    H138746   4.270   1.178   0.557  1.4518  0.5871  0.5611
 5777TIP3    H238747   4.279   1.325   0.524 -1.3392  0.4696 -1.0642
 5778TIP3   OH238748   5.511   4.837   2.773 -0.0595 -0.3611  0.8053
 5778TIP3    H138749   5.560   4.783   2.834 -0.0742 -1.3527 -0.0424
 5778TIP3    H238750   5.420   4.810   2.785 -0.3219  0.8217  1.7123
 5779TIP3   OH238751   5.851   1.573  14.940 -0.0413 -0.1844  0.1134
 5779TIP3    H138752   5.757   1.570  14.927 -0.0797 -0.5337  0.4657
 5779TIP3    H238753   5.874   1.665  14.927 -0.5756  0.0909  0.9958
 5780TIP3   OH238754   1.458   2.906   0.323 -0.2973  0.3112 -0.0376
 5780TIP3    H138755   1.450   2.986   0.271 -0.6640  0.8633  0.8382
 5780TIP3    H238756   1.490   2.937   0.408  0.3270 -0.5713  0.0574
 5781TIP3   OH238757   1.018   6.247   5.341 -0.3443 -0.1721 -0.0371
 5781TIP3    H138758   1.008   6.341   5.322  0.8026 -0.3551 -1.6696
 5781TIP3    H238759   1.048   6.245   5.432  1.0595  1.1309 -0.4320
 5782TIP3   OH238760   0.035   2.341   0.445  0.4226 -0.3886 -0.1278
 5782TIP3    H138761   0.022   2.316   0.537 -0.5511  0.6594  0.0433
 5782TIP3    H238762  -0.033   2.293   0.397  0.5480 -0.4756 -0.2187
 5783TIP3   OH238763   6.183   4.223   0.714 -0.0330  0.0234 -0.4525
 5783TIP3    H138764   6.199   4.170   0.636 -1.3393 -0.2390 -0.5645
 5783TIP3    H238765   6.089   4.241   0.712 -0.0594  0.1467  0.9860
 5784TIP3   OH238766   1.538   1.185  15.388 -0.0810  0.1515  0.2023
 5784TIP3    H138767   1.540   1.277  15.414  2.0587  0.1893  0.1213
 5784TIP3    H238768   1.625   1.152  15.412 -0.5601 -1.6701 -0.4087
 5785TIP3   OH238769   1.952   2.982  17.317 -0.4605 -0.0980  0.4050
 5785TIP3    H138770   2.045   2.983  17.295  0.8852 -0.2867  4.9425
 5785TIP3    H238771   1.913   2.918  17.257  2.6043 -1.0322 -0.7620
 5786TIP3   OH238772   3.078   6.100  15.611 -0.2379 -0.6891  0.9410
 5786TIP3    H138773   3.087   6.031  15.545  0.1169 -0.4914  0.7817
 5786TIP3    H238774   3.160   6.099  15.659  0.4039  0.6410 -0.0561
 5787TIP3   OH238775   2.849   6.097  10.581  0.0014 -0.3945 -0.3161
 5787TIP3    H138776   2.770   6.051  10.610 -1.4455 -0.7340 -4.1287
 5787TIP3    H238777   2.830   6.189  10.599 -1.2802 -0.4851 -1.0558
 5788TIP3   OH238778   3.561   3.616   5.136  0.2336  0.1546  0.4983
 5788TIP3    H138779   3.622   3.643   5.067 -0.0540  1.3659  0.6847
 5788TIP3    H238780   3.478   3.658   5.112 -0.1788 -0.3849  0.9531
 5789TIP3   OH238781   4.949   2.381  11.126 -0.3861 -0.0256 -0.0843
 5789TIP3    H138782   4.924   2.298  11.167 -1.1582  1.1553  2.0293
 5789TIP3    H238783   5.011   2.357  11.057  0.1180 -2.2684  1.0635
 5790TIP3   OH238784   5.700   2.981   2.571 -0.2674  0.1946  0.2766
 5790TIP3    H138785   5.686   2.992   2.476 -0.7922  0.2330  0.3546
 5790TIP3    H238786   5.793   2.996   2.583 -0.0386 -0.6316 -0.3534
 5791TIP3   OH238787   0.269   5.800   5.993 -0.1939 -0.5493 -0.0302
 5791TIP3    H138788   0.261   5.892   5.968  2.7254 -0.4778 -1.0232
 5791TIP3    H238789   0.202   5.756   5.940 -0.3903  0.7820 -0.9616
 5792TIP3   OH238790   3.681   4.949   2.462 -0.2766 -0.3852  0.3861
 5792TIP3    H138791   3.660   4.988   2.547 -1.2503 -1.1943  0.5318
 5792TIP3    H238792   3.662   5.019   2.399 -0.5274 -0.1100  0.7567
 5793TIP3   OH238793   2.978   2.883   5.122 -0.0636 -0.0251 -0.4848
 5793TIP3    H138794   3.002   2.798   5.085 -1.7291 -1.1222  0.8018
 5793TIP3    H238795   3.035   2.893   5.198  1.0202  0.6494 -1.3562
 5794TIP3   OH238796   6.750   2.467   3.679 -0.0746 -0.0185 -0.1684
 5794TIP3    H138797   6.814   2.522   3.725  0.5137 -0.1958 -0.7644
 5794TIP3    H238798   6.677   2.526   3.661  0.6392  0.6354 -0.9984
 5795TIP3   OH238799   1.609   5.096   1.389  0.8112 -0.4603  0.3768
 5795TIP3    H138800   1.531   5.137   1.425  0.5367 -0.4628 -0.2029
 5795TIP3    H238801   1.678   5.115   1.453  0.6241  0.6340  0.2685
 5796TIP3   OH238802   3.497   2.429  11.430 -0.7358 -0.2688 -0.2271
 5796TIP3    H138803   3.572   2.417  11.488 -1.0315  0.1927  0.2638
 5796TIP3    H238804   3.484   2.524  11.428 -1.9607 -0.3963  0.5576
 5797TIP3   OH238805   5.839   2.820   3.186  0.4381 -0.7752 -0.1358
 5797TIP3    H138806   5.862   2.912   3.175  0.0551 -0.4458  1.6124
 5797TIP3    H238807   5.823   2.789   3.097  0.4492  0.8712 -0.7416
 5798TIP3   OH238808   6.497   2.924   6.773  0.1983 -0.2225  0.4153
 5798TIP3    H138809   6.533   2.845   6.813 -0.0697 -1.7433 -2.1346
 5798TIP3    H238810   6.409   2.898   6.744  0.8797  0.2688 -2.3748
 5799TIP3   OH238811   5.859   2.922   1.860 -0.1031  0.0116 -0.1213
 5799TIP3    H138812   5.823   2.910   1.948 -0.1931  1.2993  0.0375
 5799TIP3    H238813   5.911   2.843   1.844 -2.4998 -1.6704 -0.1428
 5800TIP3   OH238814   2.608   5.646  10.589 -0.0782  0.4422  0.1234
 5800TIP3    H138815   2.627   5.733  10.553  0.7850 -0.3112 -1.3353
 5800TIP3    H238816   2.640   5.585  10.522  0.6364 -1.0329  1.7405
 5801TIP3   OH238817   2.148   4.432   4.273  0.2210  0.3963 -0.6203
 5801TIP3    H138818   2.217   4.387   4.322  1.0555  1.6914 -0.5739
 5801TIP3    H238819   2.101   4.361   4.227 -1.8990 -1.2070  3.4785
 5802TIP3   OH238820   5.933   0.376  12.961  0.0423  0.5530  0.2143
 5802TIP3    H138821   5.960   0.388  12.870  1.1315 -1.7340  0.1735
 5802TIP3    H238822   6.003   0.416  13.012  1.0592 -0.9299  0.0387
 5803TIP3   OH238823   0.941   2.167   0.191  0.3837  0.0367 -0.2300
 5803TIP3    H138824   0.983   2.214   0.263  1.8005 -1.1735 -0.2153
 5803TIP3    H238825   0.966   2.215   0.113  0.0960  0.4864 -0.0481
 5804TIP3   OH238826   2.835   2.877   5.687  0.5081 -0.1800 -0.3771
 5804TIP3    H138827   2.901   2.898   5.753  1.2163 -1.0736 -0.7748
 5804TIP3    H238828   2.833   2.954   5.631  0.6499  0.1702  0.0906
 5805TIP3   OH238829   2.505   0.056  13.771  0.4871  0.1977  0.1222
 5805TIP3    H138830   2.575   0.090  13.827 -0.3847  1.0693  0.7165
 5805TIP3    H238831   2.450   0.005  13.830 -0.6205  1.3872  0.1757
 5806TIP3   OH238832   2.396   2.408  16.984 -0.0492  0.4518  0.4371
 5806TIP3    H138833   2.433   2.477  17.039 -1.5111 -0.0106  2.0901
 5806TIP3    H238834   2.438   2.328  17.013  1.3863  0.5138 -1.2465
 5807TIP3   OH238835   0.263   6.747   5.378 -0.2691  0.4044 -0.2209
 5807TIP3    H138836   0.300   6.672   5.425  0.1509  0.1054 -1.0154
 5807TIP3    H238837   0.168   6.735   5.384 -0.2050 -0.2073 -0.3555
 5808TIP3   OH238838   0.905   0.778  15.051 -0.6280 -0.3476  0.1361
 5808TIP3    H138839   0.984   0.819  15.086 -0.1637 -1.6619  0.6863
 5808TIP3    H238840   0.884   0.830  14.973 -0.1131  0.9512  0.8188
 5809TIP3   OH238841   5.343   3.196  11.032  0.1413 -0.2498  0.0823
 5809TIP3    H138842   5.280   3.171  10.964 -0.3493  0.2082  0.3650
 5809TIP3    H238843   5.426   3.156  11.004 -0.0555 -0.0586 -0.7932
 5810TIP3   OH238844   6.502   5.223  11.829  0.0334  0.2140  0.2960
 5810TIP3    H138845   6.567   5.235  11.898 -0.8128 -0.8479  1.3351
 5810TIP3    H238846   6.552   5.225  11.748  1.3604 -0.4706  1.0516
 5811TIP3   OH238847   1.465   2.567  15.213 -0.3055  0.5217 -0.1187
 5811TIP3    H138848   1.513   2.497  15.258  1.0125  0.9765 -0.7623
 5811TIP3    H238849   1.434   2.527  15.132  2.0580  1.0842 -1.4060
 5812TIP3   OH238850   6.282   1.954   3.224  0.2651 -0.0302  0.3132
 5812TIP3    H138851   6.227   1.928   3.150 -0.7353 -1.5436  1.5470
 5812TIP3    H238852   6.364   1.984   3.183 -1.1804  1.6466 -1.5170
 5813TIP3   OH238853   0.733   5.494   1.568  0.1177 -0.3261 -0.0854
 5813TIP3    H138854   0.697   5.505   1.656 -0.8366 -0.3037 -0.4675
 5813TIP3    H238855   0.714   5.577   1.524  0.9228 -0.1964 -0.2057
 5814TIP3   OH238856   4.745   2.602   2.458  0.3531 -0.0220  0.0897
 5814TIP3    H138857   4.663   2.629   2.498 -0.6558 -1.4499 -0.9306
 5814TIP3    H238858   4.813   2.640   2.515 -0.9796  1.3268  0.8458
 5815TIP3   OH238859   2.133   2.703  17.029 -0.1230  0.4388  0.6187
 5815TIP3    H138860   2.115   2.652  17.108  0.3906 -0.5969  0.0970
 5815TIP3    H238861   2.118   2.641  16.957 -0.5074  1.3418 -0.0866
 5816TIP3   OH238862   3.539   0.034  14.164  0.5094 -0.2428  0.1067
 5816TIP3    H138863   3.511  -0.038  14.106  0.7109  0.1068 -0.4377
 5816TIP3    H238864   3.584  -0.010  14.236 -1.2903 -0.8103  0.9333
 5817TIP3   OH238865   3.391   4.218   3.809  0.1869  0.2698 -0.5776
 5817TIP3    H138866   3.318   4.251   3.861  0.7290  0.2952  0.1909
 5817TIP3    H238867   3.426   4.145   3.860 -0.8457 -1.4102 -2.1418
 5818TIP3   OH238868   6.033   1.288   0.920 -0.3514  0.2014  0.1847
 5818TIP3    H138869   5.982   1.318   0.995 -2.0372  0.3454 -0.9811
 5818TIP3    H238870   5.983   1.316   0.843  0.2870 -1.7046 -0.9932
 5819TIP3   OH238871   3.006   6.714  13.485  0.4225  0.2515 -0.4717
 5819TIP3    H138872   3.058   6.781  13.529 -1.3026  1.4164 -0.1006
 5819TIP3    H238873   2.944   6.763  13.431 -1.1153 -1.0143  0.0645
 5820TIP3   OH238874   1.089   6.597   6.212  0.1764 -0.0045  0.2954
 5820TIP3    H138875   1.082   6.693   6.220 -0.6864 -0.0455  0.1264
 5820TIP3    H238876   1.004   6.565   6.241 -0.3113 -0.5999 -1.6558
 5821TIP3   OH238877   0.441   2.473  12.846 -0.7530  0.0049  0.5407
 5821TIP3    H138878   0.398   2.482  12.931 -1.6053 -1.8904  0.3642
 5821TIP3    H238879   0.370   2.469  12.782 -0.2300 -0.6323 -0.0300
 5822TIP3   OH238880   5.078   2.893   2.635 -0.4853 -0.1420 -0.0166
 5822TIP3    H138881   5.026   2.814   2.620 -2.1024  0.8820  0.0622
 5822TIP3    H238882   5.044   2.930   2.716  0.3848  0.5573  0.0513
 5823TIP3   OH238883   3.160   2.838  13.772  0.5770 -0.3374  0.6728
 5823TIP3    H138884   3.126   2.860  13.685  2.5377 -0.7568 -0.2570
 5823TIP3    H238885   3.083   2.812  13.822 -0.4768 -1.1562 -1.2681
 5824TIP3   OH238886   4.858   1.212  12.422 -0.3676  0.2046  0.5050
 5824TIP3    H138887   4.870   1.196  12.515  1.0462 -0.9436  0.1629
 5824TIP3    H238888   4.947   1.207  12.385 -1.0786 -1.2932 -1.1582
 5825TIP3   OH238889   2.320   5.497   0.483  0.6376  0.8805 -0.4157
 5825TIP3    H138890   2.268   5.535   0.412 -0.4878  2.0486  0.9596
 5825TIP3    H238891   2.287   5.408   0.493 -1.8720  1.8716  1.0241
 5826TIP3   OH238892   1.478   2.284  14.796 -0.3142 -0.5375 -0.7348
 5826TIP3    H138893   1.444   2.326  14.716 -1.6453 -1.3310 -0.6173
 5826TIP3    H238894   1.448   2.340  14.867  0.2454 -0.2304 -0.7334
 5827TIP3   OH238895   3.830   0.357   3.048  0.1732 -0.0763 -0.0950
 5827TIP3    H138896   3.865   0.275   3.082  0.9024  0.6000  0.8279
 5827TIP3    H238897   3.881   0.375   2.969  2.5498  1.2511  1.5882
 5828TIP3   OH238898   4.107   4.208   3.497  0.0082  0.0907  0.1346
 5828TIP3    H138899   4.149   4.294   3.490 -2.6652  1.4759 -0.0815
 5828TIP3    H238900   4.060   4.197   3.415  0.8965 -1.9808 -0.1546
 5829TIP3   OH238901   2.574   4.519   3.717 -0.2953  0.3402  0.5877
 5829TIP3    H138902   2.569   4.424   3.727  0.9308  0.2647  0.7245
 5829TIP3    H238903   2.524   4.537   3.637 -2.3285 -0.1455  1.6939
 5830TIP3   OH238904   0.217   2.297   3.283 -0.0845 -0.2239  0.6400
 5830TIP3    H138905   0.286   2.239   3.251 -0.2878 -0.4513  0.6126
 5830TIP3    H238906   0.230   2.379   3.235  0.3524 -0.1643  0.8583
 5831TIP3   OH238907   2.394   5.775   2.764 -0.1483  0.7752  0.6204
 5831TIP3    H138908   2.475   5.800   2.808 -1.9630  1.6419  3.8392
 5831TIP3    H238909   2.419   5.758   2.674  3.9645 -1.0716  1.8908
 5832TIP3   OH238910   4.233   2.930   2.692 -0.2744 -0.2356  0.3193
 5832TIP3    H138911   4.208   2.855   2.638  0.1736  0.7453 -1.3490
 5832TIP3    H238912   4.150   2.967   2.721 -0.5479 -0.4772 -0.1401
 5833TIP3   OH238913   1.088   1.209   2.545  0.0622 -0.7917  0.3244
 5833TIP3    H138914   1.045   1.287   2.508 -0.6779 -1.8081 -1.0530
 5833TIP3    H238915   1.054   1.203   2.634 -1.7486 -0.8592 -0.3226
 5834TIP3   OH238916   6.612   3.795   4.950  0.5813 -0.6780 -0.4408
 5834TIP3    H138917   6.702   3.808   4.919  1.3166  0.4976  1.9832
 5834TIP3    H238918   6.571   3.881   4.943 -0.6579 -1.3606 -2.2394
 5835TIP3   OH238919   2.291   5.034   0.942 -0.9814 -0.2974 -0.0637
 5835TIP3    H138920   2.236   5.076   0.876 -0.6191 -0.3953 -0.4342
 5835TIP3    H238921   2.276   4.940   0.929  0.6770 -0.4184 -1.4340
 5836TIP3   OH238922   2.959   6.740  15.342 -0.3280  0.0681  0.1258
 5836TIP3    H138923   2.870   6.732  15.306 -0.5802  2.1404  0.1580
 5836TIP3    H238924   2.946   6.745  15.436 -0.5253  3.0574  0.0425
 5837TIP3   OH238925   3.875   5.402  15.501  0.0478  0.3110  0.3251
 5837TIP3    H138926   3.819   5.453  15.560 -0.3454  1.2600 -0.8305
 5837TIP3    H238927   3.958   5.449  15.500 -0.5844  1.4619 -1.3983
 5838TIP3   OH238928   2.273   0.624  15.716 -0.2597  0.3032 -0.2099
 5838TIP3    H138929   2.192   0.639  15.764 -0.2260 -0.1368 -0.0189
 5838TIP3    H238930   2.253   0.652  15.626 -0.9873 -0.9130 -0.4394
 5839TIP3   OH238931   2.378   5.218   2.527  0.9453 -0.2425  0.0279
 5839TIP3    H138932   2.436   5.144   2.545  2.1734 -0.0302 -2.6180
 5839TIP3    H238933   2.437   5.292   2.516  0.1810  0.1213 -2.0570
 5840TIP3   OH238934   1.267   1.771   6.534 -0.2026  0.6196  0.0360
 5840TIP3    H138935   1.223   1.686   6.540  1.1973 -0.2073 -0.8121
 5840TIP3    H238936   1.293   1.779   6.443  2.2528  0.5725  0.6410
 5841TIP3   OH238937   1.498   6.041   3.398  0.0490  0.3341 -0.7395
 5841TIP3    H138938   1.589   6.010   3.404 -0.0910  0.1305  2.2546
 5841TIP3    H238939   1.449   5.967   3.364  0.5979 -0.6947  0.6183
 5842TIP3   OH238940   0.159   2.747  14.660  0.5361  0.0344 -0.2063
 5842TIP3    H138941   0.139   2.772  14.750 -2.6894  1.7641 -1.2367
 5842TIP3    H238942   0.171   2.652  14.663  0.4809  0.0479  2.0139
 5843TIP3   OH238943   1.650   5.646   0.768  0.7917  0.2076 -0.2024
 5843TIP3    H138944   1.555   5.640   0.776  0.5460  0.0161 -2.6225
 5843TIP3    H238945   1.683   5.608   0.849 -1.1846  0.1087  0.6089
 5844TIP3   OH238946   0.302   5.948   6.719  0.7443  0.3856 -0.2406
 5844TIP3    H138947   0.258   5.886   6.777  0.6506 -0.4048 -1.1270
 5844TIP3    H238948   0.244   5.954   6.643 -0.2713  3.1124  0.6374
 5845TIP3   OH238949   3.576   5.733   5.661  0.0407 -0.1193  0.3818
 5845TIP3    H138950   3.502   5.689   5.703 -1.0528  1.3427  0.0756
 5845TIP3    H238951   3.567   5.825   5.688  0.8167  0.3686 -0.9445
 5846TIP3   OH238952   1.005   0.214   2.177  0.2093 -0.7790  0.5770
 5846TIP3    H138953   1.068   0.248   2.114 -0.7765  1.3081  0.6183
 5846TIP3    H238954   0.959   0.144   2.130  0.4571 -0.2125 -0.5456
 5847TIP3   OH238955   6.462   5.890  17.361 -0.5341 -0.1481 -0.4666
 5847TIP3    H138956   6.497   5.891  17.450 -1.5672 -0.6565 -0.0322
 5847TIP3    H238957   6.451   5.982  17.337  2.0222  0.0808 -1.0356
 5848TIP3   OH238958   5.511   1.283   1.543  0.3604 -0.0092 -0.2447
 5848TIP3    H138959   5.454   1.219   1.500 -1.9686  2.3622 -0.9667
 5848TIP3    H238960   5.471   1.298   1.628  0.0268  1.4343 -0.6236
 5849TIP3   OH238961   2.191   1.753  15.816  0.7031  0.2539  0.5032
 5849TIP3    H138962   2.148   1.836  15.836  0.9993  0.5770 -0.1828
 5849TIP3    H238963   2.277   1.778  15.780 -0.0523 -0.2639 -1.8084
 5850TIP3   OH238964   0.190   4.789  12.142 -0.2045  0.4430 -0.0521
 5850TIP3    H138965   0.164   4.865  12.090  0.9533  0.6005 -0.4265
 5850TIP3    H238966   0.156   4.714  12.094 -3.0405  0.7360  1.2818
 5851TIP3   OH238967   5.595   6.097   4.314  0.2649 -0.6420  0.2950
 5851TIP3    H138968   5.521   6.157   4.307  1.5000  0.7613 -2.6550
 5851TIP3    H238969   5.556   6.010   4.311 -1.4052  0.0024  1.9254
 5852TIP3   OH238970   4.467   2.584   4.225 -0.2881 -0.1099 -0.6589
 5852TIP3    H138971   4.500   2.602   4.313 -0.9249 -1.5477 -0.0851
 5852TIP3    H238972   4.394   2.645   4.214 -1.4326 -1.1632  0.6195
 5853TIP3   OH238973   2.307   3.863  12.276  0.4025 -0.4263  0.5398
 5853TIP3    H138974   2.316   3.946  12.230 -0.3600 -0.4285  0.3729
 5853TIP3    H238975   2.381   3.810  12.245 -1.5715 -1.5136 -3.0349
 5854TIP3   OH238976   1.798   4.652   5.065 -0.6239 -0.1009 -0.3656
 5854TIP3    H138977   1.817   4.593   4.992  0.2932  0.3814 -0.5265
 5854TIP3    H238978   1.780   4.736   5.024  1.5667  0.6105 -0.0011
 5855TIP3   OH238979   4.017   3.157  16.580  0.8109 -0.3928  0.2321
 5855TIP3    H138980   4.082   3.181  16.645 -0.4357  0.3086  1.2821
 5855TIP3    H238981   3.933   3.167  16.625  0.0113 -3.1801 -0.4493
 5856TIP3   OH238982   0.620   3.378   5.753 -0.0428 -0.1936  0.4879
 5856TIP3    H138983   0.535   3.406   5.719  0.2200 -0.9430 -0.8079
 5856TIP3    H238984   0.599   3.321   5.827 -0.6670 -0.6013 -0.0048
 5857TIP3   OH238985   1.979   1.198  11.265  0.1445  0.2989 -0.2201
 5857TIP3    H138986   1.964   1.268  11.202  0.0377  0.1254 -0.3921
 5857TIP3    H238987   1.955   1.235  11.350  1.2918  0.8716 -0.1351
 5858TIP3   OH238988   4.417   5.544  13.058  0.2740  0.7032 -0.3077
 5858TIP3    H138989   4.457   5.573  13.140  0.3161  0.4910 -0.2526
 5858TIP3    H238990   4.451   5.603  12.992  0.8673  0.3767 -0.2982
 5859TIP3   OH238991   2.821   0.439  13.939 -0.6509  0.0180  0.0256
 5859TIP3    H138992   2.865   0.495  14.003 -3.2900  0.5242  1.5437
 5859TIP3    H238993   2.786   0.500  13.873 -1.7798 -0.0027  0.5796
 5860TIP3   OH238994   4.642   1.164  14.567  0.1022 -0.5564 -0.2744
 5860TIP3    H138995   4.682   1.177  14.481 -0.5642 -0.8759 -0.6404
 5860TIP3    H238996   4.717   1.153  14.627  0.6930  2.2861 -0.3301
 5861TIP3   OH238997   3.058   3.720   1.993  0.4550  0.1857  0.5295
 5861TIP3    H138998   3.009   3.653   2.040 -0.1079 -0.6878 -1.2191
 5861TIP3    H238999   3.002   3.798   1.997  0.0903 -0.0858  0.7117
 5862TIP3   OH239000   2.008   2.589   2.871 -0.6193 -0.5006  0.7094
 5862TIP3    H139001   1.977   2.633   2.950 -0.1084  2.0920 -0.4313
 5862TIP3    H239002   2.103   2.581   2.884 -0.3264  1.2156 -0.1779
 5863TIP3   OH239003   4.451   1.350   4.724  0.2976 -0.3893  0.3067
 5863TIP3    H139004   4.411   1.305   4.798  0.1735 -0.9770 -0.1057
 5863TIP3    H239005   4.409   1.436   4.721 -0.7518 -0.8951  0.0399
 5864TIP3   OH239006   3.488   2.485   1.652  0.2977 -0.3666  0.4081
 5864TIP3    H139007   3.396   2.505   1.671  0.3195 -0.5496  0.7170
 5864TIP3    H239008   3.484   2.406   1.597  0.1961  0.6610 -1.1223
 5865TIP3   OH239009   3.000   0.002  14.754 -0.0211  0.2782 -0.2788
 5865TIP3    H139010   3.064  -0.029  14.690 -0.3269 -1.0151  0.0179
 5865TIP3    H239011   2.982   0.092  14.728  2.1745  0.7949 -0.1498
 5866TIP3   OH239012   5.834   2.355   4.694 -0.0229  0.4651  0.4463
 5866TIP3    H139013   5.877   2.269   4.691 -0.9701 -0.0171  0.1975
 5866TIP3    H239014   5.818   2.371   4.787 -1.5266 -0.5291  0.4082
 5867TIP3   OH239015   0.940   1.840  13.489 -0.4302 -0.2218  0.9989
 5867TIP3    H139016   0.870   1.778  13.510 -1.3660  0.1297 -0.9109
 5867TIP3    H239017   0.919   1.919  13.539 -1.9714  0.2145 -0.2775
 5868TIP3   OH239018   3.017   3.478   3.876 -0.3293  0.2995  0.3513
 5868TIP3    H139019   2.983   3.558   3.836  0.2045  0.6429  0.5753
 5868TIP3    H239020   3.081   3.444   3.813 -0.4321  0.1372  0.3325
 5869TIP3   OH239021   2.479   2.802  15.086  0.6942 -0.7065 -1.2482
 5869TIP3    H139022   2.389   2.782  15.108  0.4872 -0.0833 -1.4946
 5869TIP3    H239023   2.475   2.887  15.042  1.4706 -0.3399 -0.6396
 5870TIP3   OH239024   5.380   0.964  13.064 -0.4030  0.1207 -0.0963
 5870TIP3    H139025   5.324   0.921  12.999 -0.4397 -1.7087  1.0581
 5870TIP3    H239026   5.363   0.916  13.145 -0.4771  2.4455  1.3368
 5871TIP3   OH239027   3.990   3.787  13.261 -0.0548  0.3707 -0.1557
 5871TIP3    H139028   4.019   3.747  13.179 -2.8330 -0.0022 -1.0448
 5871TIP3    H239029   3.975   3.714  13.320 -1.4140  0.3553 -0.5005
 5872TIP3   OH239030   2.896   0.371  13.554  0.3257  0.3714  0.3712
 5872TIP3    H139031   2.901   0.463  13.528  0.3140 -0.2139 -1.8880
 5872TIP3    H239032   2.815   0.340  13.515  0.3682 -0.6155  1.0596
 5873TIP3   OH239033   0.221   2.975   4.382  0.1395 -0.3886 -0.0203
 5873TIP3    H139034   0.198   3.018   4.465  0.0987  0.3700 -0.4198
 5873TIP3    H239035   0.217   2.882   4.403  2.2160 -0.2268  1.4201
 5874TIP3   OH239036   5.718   2.562  13.344 -0.1077 -0.2591  0.1020
 5874TIP3    H139037   5.729   2.490  13.283 -1.3108 -0.4071  0.0401
 5874TIP3    H239038   5.704   2.520  13.429  0.1367 -0.0793  0.2326
 5875TIP3   OH239039   4.702   1.215  12.850 -0.3714 -0.1668 -0.1708
 5875TIP3    H139040   4.704   1.222  12.945  1.8320  0.9903 -0.2370
 5875TIP3    H239041   4.635   1.277  12.821 -1.7458 -1.2277  0.6188
 5876TIP3   OH239042   2.560   5.479  13.703  0.4369 -0.5482  0.0828
 5876TIP3    H139043   2.614   5.402  13.720  0.7228 -0.1450  1.0386
 5876TIP3    H239044   2.569   5.533  13.781  1.3793  1.1380 -1.1185
 5877TIP3   OH239045   3.004   1.336   0.093  0.1923 -0.6379 -0.2255
 5877TIP3    H139046   3.019   1.394   0.018  1.7808 -1.3402 -0.4961
 5877TIP3    H239047   3.028   1.249   0.061  1.3894 -0.8762  1.2208
 5878TIP3   OH239048   5.112   2.659  14.031  0.5166  0.2976 -0.4687
 5878TIP3    H139049   5.160   2.689  14.108  0.7729 -2.5302  0.6004
 5878TIP3    H239050   5.038   2.718  14.024  0.0435  0.1889  2.5015
 5879TIP3   OH239051   5.038   1.871   3.546  0.5346 -0.1824 -0.1545
 5879TIP3    H139052   5.015   1.943   3.605  1.1350  0.7194 -0.9865
 5879TIP3    H239053   5.011   1.901   3.459 -0.6983 -1.6514 -0.3270
 5880TIP3   OH239054   2.747   6.528   2.994 -0.0578 -0.1749 -0.6284
 5880TIP3    H139055   2.787   6.609   2.963 -0.2191  0.1790  0.0620
 5880TIP3    H239056   2.707   6.489   2.916  0.4095  0.1783 -1.0491
 5881TIP3   OH239057   0.117   1.699   1.367 -0.0444  0.0304  0.3139
 5881TIP3    H139058   0.114   1.775   1.310  1.0830 -1.7949 -2.3918
 5881TIP3    H239059   0.047   1.642   1.336  0.8950 -1.2195  0.3798
 5882TIP3   OH239060   6.592   5.551   1.292 -0.1707  0.1492 -0.0380
 5882TIP3    H139061   6.636   5.632   1.317  1.0436 -0.7977  1.0044
 5882TIP3    H239062   6.615   5.489   1.361 -1.9081 -0.8221 -0.2831
 5883TIP3   OH239063   4.235   2.000  15.137  0.2270  0.1473 -0.2227
 5883TIP3    H139064   4.238   2.048  15.054  1.0725 -0.5945 -0.6386
 5883TIP3    H239065   4.187   2.058  15.196 -1.6571  0.0881 -1.5976
 5884TIP3   OH239066   2.290   2.789  13.052  0.6535  0.4810 -0.1598
 5884TIP3    H139067   2.231   2.864  13.057 -0.3890 -0.2973 -0.5242
 5884TIP3    H239068   2.241   2.723  13.003  1.7891 -0.2237 -0.3720
 5885TIP3   OH239069   3.349   2.951   3.004  0.3003 -0.2724  0.2848
 5885TIP3    H139070   3.333   2.898   3.083 -0.9568 -1.8032 -0.9234
 5885TIP3    H239071   3.444   2.959   3.000  0.4936 -1.6905  1.0364
 5886TIP3   OH239072   5.796   1.473   3.455  0.3763 -0.6731  0.3102
 5886TIP3    H139073   5.734   1.411   3.494 -0.0210 -1.1019 -0.9508
 5886TIP3    H239074   5.794   1.549   3.514 -1.0394 -0.8447  0.5236
 5887TIP3   OH239075   0.303   4.418   0.295 -0.0210  0.0448  0.0504
 5887TIP3    H139076   0.351   4.469   0.360 -0.0993 -1.2499  1.1601
 5887TIP3    H239077   0.227   4.384   0.341 -1.5693  1.2882 -1.4459
 5888TIP3   OH239078   1.776   5.021  15.459  0.1534 -0.0117 -0.0567
 5888TIP3    H139079   1.749   4.937  15.498  0.0840  0.2383  0.4472
 5888TIP3    H239080   1.776   5.005  15.365  0.3567 -0.6467  0.0448
 5889TIP3   OH239081   2.919   6.419  14.155  0.0639  0.0869  0.0205
 5889TIP3    H139082   2.831   6.395  14.123  1.2155 -2.6311 -1.4191
 5889TIP3    H239083   2.913   6.513  14.170 -3.1461 -0.0014  0.1819
 5890TIP3   OH239084   0.051   5.443   4.166  0.2243 -0.2931  0.3019
 5890TIP3    H139085   0.106   5.461   4.241 -1.1695  2.5880  0.7699
 5890TIP3    H239086  -0.031   5.411   4.203  0.7173 -2.4485 -0.2839
 5891TIP3   OH239087   5.927   2.656  11.710  0.3593 -0.6369  0.1265
 5891TIP3    H139088   5.952   2.712  11.783  1.5637 -2.4462  1.1859
 5891TIP3    H239089   6.010   2.623  11.675 -0.2456 -4.3118  1.6809
 5892TIP3   OH239090   5.999   5.868  12.801  0.5543 -0.3306 -0.0151
 5892TIP3    H139091   6.039   5.846  12.717  1.6147  0.4157  0.2701
 5892TIP3    H239092   6.034   5.955  12.823 -0.7429  0.0622  0.5690
 5893TIP3   OH239093   3.110   6.410  13.328 -0.4392  0.1911 -0.0917
 5893TIP3    H139094   3.065   6.489  13.297 -0.8512  0.1194  0.3129
 5893TIP3    H239095   3.103   6.414  13.423 -0.4067 -0.3012 -0.0661
 5894TIP3   OH239096   6.412   4.670   3.443 -0.0768 -0.5425  1.0596
 5894TIP3    H139097   6.502   4.640   3.431 -0.4418 -1.7835  1.2990
 5894TIP3    H239098   6.420   4.764   3.459  1.1173 -0.5149  0.3940
 5895TIP3   OH239099   3.191   0.692   1.990  0.2462  0.2312 -0.0755
 5895TIP3    H139100   3.271   0.639   1.991 -0.2980 -0.6649  2.2772
 5895TIP3    H239101   3.203   0.753   2.063  0.1295  2.3131 -1.7039
 5896TIP3   OH239102   3.295   1.771   1.263  0.2585 -0.1129 -0.2295
 5896TIP3    H139103   3.373   1.820   1.237  0.2870 -0.4561 -0.7921
 5896TIP3    H239104   3.327   1.682   1.280  0.2763  0.1301  1.1566
 5897TIP3   OH239105   3.138   5.420  12.354  0.3522  0.2209  0.1214
 5897TIP3    H139106   3.053   5.463  12.353  0.0506 -0.3679  0.2503
 5897TIP3    H239107   3.127   5.346  12.413  0.8906  0.0073 -0.0393
 5898TIP3   OH239108   0.143   5.713   1.016 -0.4336  0.3728 -0.2003
 5898TIP3    H139109   0.183   5.686   1.099 -0.5854 -1.3974 -0.6720
 5898TIP3    H239110   0.209   5.770   0.976  0.5277 -0.4070  0.2117
 5899TIP3   OH239111   0.542   3.264   3.794  0.2342 -0.5717  0.0961
 5899TIP3    H139112   0.555   3.358   3.781 -0.0203 -0.5782 -0.2286
 5899TIP3    H239113   0.529   3.230   3.706 -0.5908 -0.7723  0.2857
 5900TIP3   OH239114   5.408   1.165   5.425 -0.2423  0.3611  0.3125
 5900TIP3    H139115   5.350   1.122   5.361 -0.0930  0.5141  0.0724
 5900TIP3    H239116   5.349   1.219   5.477 -0.4275 -0.1052  0.5938
 5901TIP3   OH239117   1.153   2.656  16.841 -0.0382  0.3106 -0.3393
 5901TIP3    H139118   1.172   2.704  16.922 -0.4792  0.0548 -0.0792
 5901TIP3    H239119   1.226   2.593  16.833  0.4835  0.9414 -0.6230
 5902TIP3   OH239120   2.972   1.508   1.288  0.1521 -0.0738 -0.3291
 5902TIP3    H139121   3.060   1.533   1.318  0.9259 -2.4211 -0.3887
 5902TIP3    H239122   2.968   1.539   1.198  0.9253  0.1278 -0.3065
 5903TIP3   OH239123   1.116   4.988  14.659 -0.2101 -0.1810  0.5903
 5903TIP3    H139124   1.108   4.895  14.638  3.6996 -0.8721  1.3597
 5903TIP3    H239125   1.169   5.025  14.589 -0.2432  1.0632  1.1853
 5904TIP3   OH239126   1.298   0.369  12.902 -0.1714 -0.6470  0.2789
 5904TIP3    H139127   1.216   0.319  12.892 -0.5072  0.0374 -0.5431
 5904TIP3    H239128   1.361   0.304  12.932 -1.3526 -0.8902  2.4330
 5905TIP3   OH239129   4.359   1.769   0.838 -0.2573  0.2733  0.2862
 5905TIP3    H139130   4.336   1.851   0.883 -2.6964 -0.4280  0.4420
 5905TIP3    H239131   4.454   1.774   0.827 -0.0881  2.2333  2.0275
 5906TIP3   OH239132   0.944   1.738  12.359 -0.2842 -0.2626 -0.2248
 5906TIP3    H139133   0.903   1.673  12.417 -1.2934  1.3359  0.9515
 5906TIP3    H239134   1.020   1.769  12.408 -0.6796  0.5246 -0.1052
 5907TIP3   OH239135   1.443   1.704  12.199  0.3746 -0.0696  0.1733
 5907TIP3    H139136   1.429   1.715  12.105 -0.0082  1.7263  0.4042
 5907TIP3    H239137   1.354   1.701  12.235  0.5244 -0.3584  0.5197
 5908TIP3   OH239138   0.049   4.396   5.119  0.1533 -0.2141 -0.0183
 5908TIP3    H139139   0.056   4.363   5.209 -0.5228 -2.4425 -0.7243
 5908TIP3    H239140  -0.044   4.415   5.108  0.2815  0.3387 -0.1526
 5909TIP3   OH239141   4.769   1.141  14.862 -0.6327  0.0301 -0.0760
 5909TIP3    H139142   4.839   1.106  14.916 -0.6853  1.5105  1.0272
 5909TIP3    H239143   4.694   1.084  14.879 -0.1955 -0.4739  0.1557
 5910TIP3   OH239144   0.490   5.779  14.072  0.5998 -0.0035  0.2075
 5910TIP3    H139145   0.527   5.697  14.038  0.5034 -0.5483  1.3761
 5910TIP3    H239146   0.396   5.762  14.077  0.7779 -0.6816  2.5804
 5911TIP3   OH239147   4.593   4.816  17.392  0.4150  0.2783  0.1099
 5911TIP3    H139148   4.572   4.789  17.481  1.0130  2.0651  0.8279
 5911TIP3    H239149   4.564   4.907  17.387  0.2655  0.1668 -1.5712
 5912TIP3   OH239150   5.862   2.821  13.374 -0.1512  0.1031  0.3488
 5912TIP3    H139151   5.804   2.855  13.441 -0.1439 -1.6849  1.3063
 5912TIP3    H239152   5.818   2.743  13.340  1.4151 -0.9983  0.7420
 5913TIP3   OH239153   4.034   4.288  12.774  0.2026 -0.0252  0.1000
 5913TIP3    H139154   3.983   4.344  12.833 -0.1397 -2.1586  1.9419
 5913TIP3    H239155   3.997   4.201  12.786  1.4680 -0.8824 -1.8273
 5914TIP3   OH239156   5.822   0.756  12.063  0.2996 -0.3061  0.2053
 5914TIP3    H139157   5.906   0.799  12.043  0.9836 -0.7887  1.8787
 5914TIP3    H239158   5.772   0.822  12.111 -0.2126 -0.0899 -0.6099
 5915TIP3   OH239159   3.952   2.445  16.689 -0.2523  0.0890  0.6422
 5915TIP3    H139160   4.043   2.463  16.710 -0.0754  1.6573 -1.2131
 5915TIP3    H239161   3.956   2.372  16.627 -0.2081  0.5210  0.1324
 5916TIP3   OH239162   2.728   3.731  10.999 -0.3061 -0.9257  0.0116
 5916TIP3    H139163   2.730   3.752  10.905 -0.3120  0.2425  0.2568
 5916TIP3    H239164   2.671   3.798  11.037  1.9498  0.3993  1.2620
 5917TIP3   OH239165   1.984   0.041   1.847 -0.1305  0.4381 -0.2171
 5917TIP3    H139166   2.066   0.035   1.798 -0.5248  0.3631 -0.8669
 5917TIP3    H239167   2.011   0.032   1.939  0.6927  1.3890 -0.3527
 5918TIP3   OH239168   4.133   5.838   0.412 -0.0236  0.1352 -0.1340
 5918TIP3    H139169   4.087   5.863   0.332  0.6986  0.5740 -0.4106
 5918TIP3    H239170   4.147   5.744   0.403 -0.8374 -0.0086 -0.0540
 5919TIP3   OH239171   4.351   1.936   4.842  0.3094  0.2965  0.0175
 5919TIP3    H139172   4.338   2.029   4.826 -1.1402 -0.0678 -1.0770
 5919TIP3    H239173   4.360   1.929   4.937  0.6485  1.5588  0.0947
 5920TIP3   OH239174   2.684   2.286   4.223  0.2483  0.4426  0.2721
 5920TIP3    H139175   2.712   2.357   4.281  3.6163  0.8981 -1.6478
 5920TIP3    H239176   2.650   2.331   4.146  0.1450 -0.0707  0.0198
 5921TIP3   OH239177   4.471   5.462  15.901  0.3587  0.0034 -0.2632
 5921TIP3    H139178   4.533   5.513  15.849  0.0648 -0.1663 -0.7895
 5921TIP3    H239179   4.386   5.501  15.881  0.4614  1.6203  2.0635
 5922TIP3   OH239180   4.808   6.717   3.751 -0.6329 -0.3779 -0.4768
 5922TIP3    H139181   4.785   6.725   3.844  1.3833 -1.2002  0.1372
 5922TIP3    H239182   4.900   6.740   3.747 -1.2370  2.1363 -2.7331
 5923TIP3   OH239183   5.523   2.154  12.938 -0.5235 -0.1487 -0.3388
 5923TIP3    H139184   5.587   2.107  12.992 -0.5442  1.5495  1.2729
 5923TIP3    H239185   5.555   2.145  12.849  1.5009 -0.0534  0.3309
 5924TIP3   OH239186   3.680   1.708  12.542  0.5013 -0.1023  0.1384
 5924TIP3    H139187   3.597   1.669  12.571  0.0711  1.3966  1.0316
 5924TIP3    H239188   3.688   1.789  12.593  2.1627  0.1585 -0.4651
 5925TIP3   OH239189   3.363   5.628   2.855 -0.4718 -0.1706 -0.3376
 5925TIP3    H139190   3.383   5.605   2.764  1.4003  1.6844 -0.4829
 5925TIP3    H239191   3.287   5.575   2.877 -1.2930 -0.3210 -3.1396
 5926TIP3   OH239192   2.920   0.690  11.484  0.4011  0.0870  0.1518
 5926TIP3    H139193   2.895   0.742  11.560  0.0980  0.5580 -0.2618
 5926TIP3    H239194   3.012   0.713  11.468  0.2214  0.6209 -0.1246
 5927TIP3   OH239195   5.559   6.039   2.757  0.0976 -0.1980  0.0564
 5927TIP3    H139196   5.492   6.025   2.824 -0.4451  0.3367 -0.3526
 5927TIP3    H239197   5.589   6.129   2.773  1.6242 -0.8439  1.0090
 5928TIP3   OH239198   2.444   2.051  11.399 -0.1801  0.3765  0.0320
 5928TIP3    H139199   2.439   2.137  11.439 -0.4938  1.0529 -1.3795
 5928TIP3    H239200   2.536   2.040  11.377  0.2864 -0.6640  2.2370
 5929TIP3   OH239201   1.907   0.783   3.046  0.3799  0.4211 -0.8015
 5929TIP3    H139202   1.910   0.787   3.142  1.1715 -0.0870 -0.8045
 5929TIP3    H239203   1.909   0.875   3.018 -1.5505  0.6620 -0.2990
 5930TIP3   OH239204   1.541   2.370  17.386 -0.1705 -0.3078 -0.0943
 5930TIP3    H139205   1.501   2.416  17.312  1.3847  0.7062 -0.3459
 5930TIP3    H239206   1.515   2.278  17.373 -1.3540  0.1099 -0.9176
 5931TIP3   OH239207   2.414   5.839   4.005  0.2186 -0.1318  0.0045
 5931TIP3    H139208   2.418   5.778   4.079  0.7918 -0.6839 -0.4651
 5931TIP3    H239209   2.333   5.816   3.959  1.8667 -2.7444 -1.9512
 5932TIP3   OH239210   0.079   1.477  17.306 -0.1687  0.3834 -0.5164
 5932TIP3    H139211   0.172   1.487  17.284 -0.0622  1.4627  0.3350
 5932TIP3    H239212   0.075   1.492  17.400 -1.1369 -0.2400 -0.4486
 5933TIP3   OH239213   2.950   1.150   2.382  0.2314  0.6176 -0.3531
 5933TIP3    H139214   2.871   1.107   2.415  0.8925 -0.3685 -0.0080
 5933TIP3    H239215   2.934   1.163   2.289 -0.4344  0.6478 -0.2354
 5934TIP3   OH239216   1.820   0.226  12.023  0.2805 -0.1105 -0.1199
 5934TIP3    H139217   1.873   0.271  12.088 -0.4180  0.3751  0.1271
 5934TIP3    H239218   1.730   0.255  12.041 -0.0653 -0.8826 -0.5518
 5935TIP3   OH239219   2.656   2.850   2.520 -1.2081  0.0384 -0.2071
 5935TIP3    H139220   2.578   2.849   2.576 -2.6967  0.5242 -2.1630
 5935TIP3    H239221   2.623   2.876   2.434  0.4976 -3.1233 -2.0027
 5936TIP3   OH239222   3.629   5.387   3.687  0.1900  0.7142  0.2851
 5936TIP3    H139223   3.712   5.427   3.661 -0.1900  1.4096  0.1169
 5936TIP3    H239224   3.574   5.395   3.610 -0.3472  1.1363  0.7015
 5937TIP3   OH239225   3.907   4.044  12.863 -0.0431 -0.1942  0.6608
 5937TIP3    H139226   3.941   4.038  12.952 -0.0383 -0.6954  0.6292
 5937TIP3    H239227   3.881   3.954  12.841  1.4178 -0.3850 -0.4199
 5938TIP3   OH239228   6.267   1.755   5.108 -0.0262 -0.1127  0.5325
 5938TIP3    H139229   6.268   1.844   5.141 -0.2684 -0.3016  1.0652
 5938TIP3    H239230   6.204   1.756   5.036  1.0599  0.4755 -0.4390
 5939TIP3   OH239231   5.453   3.670  13.261  0.2462 -0.3550 -0.4660
 5939TIP3    H139232   5.537   3.683  13.307 -0.4072  0.0920  0.6336
 5939TIP3    H239233   5.478   3.659  13.169  1.5420 -0.5867 -0.1077
 5940TIP3   OH239234   1.051   1.993  14.347 -0.4495  0.2254 -0.0906
 5940TIP3    H139235   1.095   2.012  14.430 -1.9193  1.0392  0.5194
 5940TIP3    H239236   1.114   1.937  14.300  0.3802 -0.3173  1.5791
 5941TIP3   OH239237   1.437   3.723  13.339 -0.3760 -0.3761  0.2878
 5941TIP3    H139238   1.502   3.675  13.389 -0.0748  1.8902  2.1972
 5941TIP3    H239239   1.391   3.655  13.289  3.3516 -2.0840 -1.1944
 5942TIP3   OH239240   1.887   1.781  15.630  0.2268  0.0630 -0.1462
 5942TIP3    H139241   1.798   1.812  15.612 -0.8859 -1.1594  2.6726
 5942TIP3    H239242   1.899   1.708  15.569  0.3881  1.8084 -2.3320
 5943TIP3   OH239243   2.989   3.504  17.141 -0.4705  0.1264  0.3641
 5943TIP3    H139244   2.927   3.509  17.213  0.2801  0.3538  1.0101
 5943TIP3    H239245   3.058   3.445  17.173 -0.4178 -0.2312 -0.3883
 5944TIP3   OH239246   0.432   4.109   6.124  0.0312 -0.3889 -0.0477
 5944TIP3    H139247   0.493   4.162   6.073 -0.5324 -1.0138 -1.4281
 5944TIP3    H239248   0.486   4.070   6.193  1.4445 -1.7109 -1.8030
 5945TIP3   OH239249   0.009   3.297  16.647  0.7739  0.3989 -0.4394
 5945TIP3    H139250   0.084   3.271  16.595 -0.1606 -1.0013 -1.1476
 5945TIP3    H239251   0.012   3.239  16.724 -0.7817 -1.2685 -1.5583
 5946TIP3   OH239252   2.671   4.474  11.489 -0.4746  0.1835 -0.2306
 5946TIP3    H139253   2.715   4.429  11.561  0.2708  0.8259 -0.2725
 5946TIP3    H239254   2.589   4.506  11.527 -0.9379 -1.0400 -0.1559
 5947TIP3   OH239255   4.857   2.183  11.886 -0.1784  0.1120  0.1711
 5947TIP3    H139256   4.869   2.138  11.802  1.6472  1.3829 -0.3075
 5947TIP3    H239257   4.804   2.260  11.865  0.6117  0.6435  0.0831
 5948TIP3   OH239258   3.674   5.985  10.730  0.3696  0.0889 -0.1102
 5948TIP3    H139259   3.643   6.069  10.695  0.8399  0.4915  0.4079
 5948TIP3    H239260   3.599   5.927  10.723  0.4117  0.1902 -1.6344
 5949TIP3   OH239261   3.517   1.566   4.202 -0.1297 -0.5244 -0.8213
 5949TIP3    H139262   3.542   1.653   4.170 -0.0469 -0.4627 -0.5872
 5949TIP3    H239263   3.478   1.581   4.287  2.2180 -0.9427  0.4147
 5950TIP3   OH239264   1.524   0.408  15.900 -1.0875  0.2550  0.3264
 5950TIP3    H139265   1.530   0.414  15.805 -0.6277  0.5955  0.3708
 5950TIP3    H239266   1.553   0.319  15.920  2.5861  1.2691  0.3847
 5951TIP3   OH239267   4.992   4.041  10.765 -0.1948  0.4734  0.2812
 5951TIP3    H139268   4.991   4.119  10.710  1.2864  0.2531 -0.1047
 5951TIP3    H239269   5.082   4.010  10.761 -0.6476 -0.9983  0.8145
 5952TIP3   OH239270   2.135   4.292   3.647 -0.4738 -0.5315  0.1988
 5952TIP3    H139271   2.171   4.322   3.730 -1.0575 -1.7086  0.8899
 5952TIP3    H239272   2.074   4.223   3.670 -0.1265 -1.3707 -1.2695
 5953TIP3   OH239273   4.520   6.541  16.589  0.6908  1.1337 -0.2429
 5953TIP3    H139274   4.600   6.582  16.623  0.6236  0.6126  0.5552
 5953TIP3    H239275   4.550   6.457  16.553  0.2616  0.0475  1.7839
 5954TIP3   OH239276   3.706   4.065  14.520  0.1760  0.6510  0.4813
 5954TIP3    H139277   3.676   3.998  14.582  1.4346  1.6345  2.2402
 5954TIP3    H239278   3.630   4.081  14.463 -0.2101 -2.1320  0.0589
 5955TIP3   OH239279   6.557   4.627  15.976 -0.0271  0.1430  0.5689
 5955TIP3    H139280   6.531   4.609  15.886  1.9270 -1.4266  0.2598
 5955TIP3    H239281   6.548   4.722  15.985  0.2906  0.4092 -1.4618
 5956TIP3   OH239282   6.329   5.126  14.396  0.5265 -0.2255  0.7136
 5956TIP3    H139283   6.304   5.194  14.459  0.5648  0.9474 -0.4891
 5956TIP3    H239284   6.247   5.092  14.363  0.3362 -3.3584  3.8268
 5957TIP3   OH239285   1.569   3.623  17.060 -0.1044 -0.8705 -0.0543
 5957TIP3    H139286   1.534   3.598  17.145 -0.3513 -1.2497 -0.2673
 5957TIP3    H239287   1.655   3.660  17.079 -0.8237  0.5612  0.5301
 5958TIP3   OH239288   3.891   3.834  15.052 -0.3944 -0.2104 -0.2275
 5958TIP3    H139289   3.921   3.779  14.979  0.1998  0.3184 -0.3904
 5958TIP3    H239290   3.972   3.862  15.095 -0.6911  0.5265 -0.1462
 5959TIP3   OH239291   1.491   1.986  12.140  0.0715 -0.3614 -0.1308
 5959TIP3    H139292   1.484   1.898  12.177  1.6665  0.2985  1.9468
 5959TIP3    H239293   1.404   2.003  12.102 -0.9959 -1.9652  1.4307
 5960TIP3   OH239294   3.865   0.671  10.728 -0.3750  0.3233 -0.4638
 5960TIP3    H139295   3.795   0.663  10.664 -0.7238  0.3098 -0.0822
 5960TIP3    H239296   3.926   0.600  10.707 -0.5855  0.2012 -0.6567
 5961TIP3   OH239297   0.142   1.488  11.462  0.2677 -0.2121 -0.0869
 5961TIP3    H139298   0.195   1.430  11.518  0.3871 -0.7353 -0.7338
 5961TIP3    H239299   0.200   1.511  11.390 -0.0779  0.0010 -0.2970
 5962TIP3   OH239300   3.142   1.166   0.905  0.3257  0.3779  0.2565
 5962TIP3    H139301   3.168   1.116   0.828  0.4309 -0.0599  0.5760
 5962TIP3    H239302   3.111   1.250   0.869  1.0930  0.4746 -0.2104
 5963TIP3   OH239303   0.885   2.985  16.327  0.1780 -0.0697  0.5313
 5963TIP3    H139304   0.883   2.946  16.240 -1.2509 -0.2994  0.6409
 5963TIP3    H239305   0.822   3.057  16.322 -0.7578 -0.7673  1.6509
 5964TIP3   OH239306   3.329   1.458  17.067  0.1191  0.4535 -0.0646
 5964TIP3    H139307   3.329   1.551  17.091  0.3117  0.6856 -0.9123
 5964TIP3    H239308   3.422   1.435  17.061  0.1185  0.8093 -2.0088
 5965TIP3   OH239309   1.643   2.951  16.691  0.1746  0.0046  0.0576
 5965TIP3    H139310   1.718   2.982  16.741 -0.0631 -0.1866  0.5343
 5965TIP3    H239311   1.589   2.903  16.754 -0.2464 -0.0378 -0.3245
 5966TIP3   OH239312   5.518   6.657   2.800  0.3113 -0.3388 -0.8375
 5966TIP3    H139313   5.551   6.744   2.777 -2.9822  0.3506 -3.7009
 5966TIP3    H239314   5.561   6.598   2.738  1.1612 -0.5047 -0.1048
 5967TIP3   OH239315   5.691   6.754  13.592  0.2976 -0.1532  0.0927
 5967TIP3    H139316   5.700   6.672  13.639  1.1062 -1.5436 -2.3297
 5967TIP3    H239317   5.766   6.757  13.533  0.3411  2.3878  0.1360
 5968TIP3   OH239318   5.862   3.007   2.200 -0.4092 -0.1835  0.0719
 5968TIP3    H139319   5.947   2.962   2.201  0.2037  0.9313 -0.3037
 5968TIP3    H239320   5.798   2.936   2.193  0.2749 -1.3176  3.3207
 5969TIP3   OH239321   3.672   1.810   4.094 -0.5319  0.1157  0.4564
 5969TIP3    H139322   3.680   1.804   3.999 -1.1442  1.3842  0.2984
 5969TIP3    H239323   3.634   1.896   4.109  1.0279  0.5947  1.9458
 5970TIP3   OH239324   6.067   4.957   1.677  0.2342 -0.3554 -0.4834
 5970TIP3    H139325   6.138   4.942   1.614  0.8334 -2.0575  0.5369
 5970TIP3    H239326   6.109   4.958   1.762 -1.0689 -2.7554  0.2722
 5971TIP3   OH239327   3.705   1.171  13.150  0.0487 -0.5633 -0.1876
 5971TIP3    H139328   3.797   1.195  13.158  0.1459  0.2588 -2.9689
 5971TIP3    H239329   3.658   1.244  13.190  0.5664  0.4943 -1.4360
 5972TIP3   OH239330   3.265   3.734   5.356 -0.1193 -0.5852  0.1102
 5972TIP3    H139331   3.197   3.688   5.308  0.8859 -1.2932 -0.6780
 5972TIP3    H239332   3.278   3.816   5.308  1.9218 -1.9387 -1.7891
 5973TIP3   OH239333   0.991   5.465   3.757  0.0711 -0.2550  0.0623
 5973TIP3    H139334   0.958   5.554   3.755  1.5896  0.3310 -0.0563
 5973TIP3    H239335   0.960   5.426   3.674  1.3883  0.9233 -1.0310
 5974TIP3   OH239336   1.979   0.803  15.583  0.1223 -0.1252 -0.5806
 5974TIP3    H139337   2.044   0.822  15.516 -0.4684  0.4937 -0.9958
 5974TIP3    H239338   1.987   0.875  15.646  0.6671 -0.6983  0.0183
 5975TIP3   OH239339   6.608   6.539   5.958  0.3195 -0.3354  0.7032
 5975TIP3    H139340   6.535   6.484   5.986  2.3405 -2.7629  1.5563
 5975TIP3    H239341   6.567   6.613   5.912 -2.7614 -0.1137  3.4980
 5976TIP3   OH239342   1.338   2.871   5.064  0.4314 -0.2623  0.0944
 5976TIP3    H139343   1.275   2.872   4.992  0.1083  2.7192  0.3085
 5976TIP3    H239344   1.289   2.835   5.138 -0.5939  0.6121 -0.1332
 5977TIP3   OH239345   1.242   3.636  14.925  0.3788  0.2509  0.0047
 5977TIP3    H139346   1.332   3.671  14.929 -0.5869  2.9068  0.5801
 5977TIP3    H239347   1.213   3.638  15.017 -0.7257  0.8258 -0.3425
 5978TIP3   OH239348   1.414   0.567  14.834  0.9560 -0.0307  0.3392
 5978TIP3    H139349   1.431   0.632  14.766  0.6499 -1.2210 -0.9134
 5978TIP3    H239350   1.490   0.572  14.891  1.5491  0.5195 -0.4773
 5979TIP3   OH239351   4.099   3.713   2.414 -0.0833  0.2572 -0.4866
 5979TIP3    H139352   4.104   3.802   2.378 -0.9765  0.9511  0.9864
 5979TIP3    H239353   4.188   3.694   2.443 -0.0019  0.9183 -0.2853
 5980TIP3   OH239354   3.918   5.353   1.192 -0.3207  0.2914  0.0286
 5980TIP3    H139355   3.964   5.432   1.163  1.2405 -0.7051 -0.3112
 5980TIP3    H239356   3.880   5.377   1.277  1.0104  1.1040  0.4203
 5981TIP3   OH239357   0.818   2.209  15.649 -0.1082 -0.5453 -0.3241
 5981TIP3    H139358   0.749   2.192  15.713 -0.2014 -1.5999 -0.6851
 5981TIP3    H239359   0.794   2.293  15.609  0.0834  0.2632  1.1794
 5982TIP3   OH239360   2.229   5.749  16.656  0.0305  0.1026 -0.6023
 5982TIP3    H139361   2.317   5.752  16.620 -0.0811 -1.3603 -1.0612
 5982TIP3    H239362   2.226   5.668  16.706 -0.5584  0.9430  0.7993
 5983TIP3   OH239363   3.675   2.849   3.302  0.0476 -0.2740  0.3595
 5983TIP3    H139364   3.675   2.782   3.370 -1.5098 -0.4717  0.2064
 5983TIP3    H239365   3.699   2.802   3.222 -4.2961 -1.5580 -0.4459
 5984TIP3   OH239366   1.378   3.224  14.586  0.2517 -0.0564  0.1083
 5984TIP3    H139367   1.333   3.157  14.639  0.8140 -0.6516 -0.1615
 5984TIP3    H239368   1.379   3.301  14.642 -0.9979 -0.0641  0.1720
 5985TIP3   OH239369   0.747   3.023  14.482  0.4487 -0.5040 -1.0199
 5985TIP3    H139370   0.834   2.996  14.452  2.2321  0.2669  2.8267
 5985TIP3    H239371   0.735   3.110  14.445  0.0782 -1.5625 -3.6117
 5986TIP3   OH239372   4.397   6.008   1.743  0.1943  0.1893  0.1910
 5986TIP3    H139373   4.456   5.993   1.817  1.0202  2.1730  0.0023
 5986TIP3    H239374   4.455   6.017   1.668 -0.4398  0.9447 -0.2180
 5987TIP3   OH239375   6.493   4.699   6.613 -0.1659 -0.1384  0.1187
 5987TIP3    H139376   6.501   4.642   6.689  2.7542 -0.2739 -0.1674
 5987TIP3    H239377   6.488   4.788   6.649 -1.5751 -0.3328  0.4766
 5988TIP3   OH239378   4.204   3.300   0.885  0.9509 -0.6749 -0.2313
 5988TIP3    H139379   4.120   3.264   0.857  0.9857 -2.2590  1.5094
 5988TIP3    H239380   4.235   3.350   0.809 -0.3920 -2.0993 -1.8107
 5989TIP3   OH239381   4.455   3.609  11.920  0.4979 -0.0660  0.3974
 5989TIP3    H139382   4.427   3.627  11.830 -2.9280  0.6441  1.4584
 5989TIP3    H239383   4.479   3.517  11.919 -1.0155 -0.5031 -0.9611
 5990TIP3   OH239384   4.622   4.719   0.241 -0.3050 -0.0417  0.2262
 5990TIP3    H139385   4.660   4.764   0.317  0.0418 -0.6715  0.4375
 5990TIP3    H239386   4.679   4.643   0.229 -1.3236 -0.8334  0.3487
 5991TIP3   OH239387   1.262   6.193   5.058 -0.0932 -0.5916 -0.0103
 5991TIP3    H139388   1.200   6.195   4.985  0.8555 -1.1365 -0.8590
 5991TIP3    H239389   1.302   6.281   5.057 -0.1833 -0.5506 -0.0595
 5992TIP3   OH239390   4.190   3.236   0.414  0.5831 -0.2715 -0.3989
 5992TIP3    H139391   4.177   3.287   0.493 -0.3583 -0.3390 -0.4895
 5992TIP3    H239392   4.279   3.255   0.386  0.6714  0.3188  0.2717
 5993TIP3   OH239393   5.623   3.618  11.656  0.7991 -0.2795 -0.2975
 5993TIP3    H139394   5.595   3.596  11.745 -0.2309 -0.6673 -0.7051
 5993TIP3    H239395   5.668   3.702  11.666 -0.2297  0.2115  0.4568
 5994TIP3   OH239396   6.254   3.572  13.448 -0.2302 -0.6471 -0.2953
 5994TIP3    H139397   6.194   3.569  13.522  0.3770 -0.9166  0.1936
 5994TIP3    H239398   6.200   3.602  13.374 -0.8824 -0.5747  0.2048
 5995TIP3   OH239399   3.237   5.974  10.868  0.3889 -0.5669  0.3233
 5995TIP3    H139400   3.285   5.892  10.855  1.5795  0.0377  0.7673
 5995TIP3    H239401   3.302   6.043  10.854 -0.7009  0.3314 -0.4987
 5996TIP3   OH239402   0.432   5.186  14.225 -0.2488 -0.3871 -0.2562
 5996TIP3    H139403   0.410   5.277  14.208  3.8217  1.1811  1.5253
 5996TIP3    H239404   0.377   5.161  14.299 -0.0906  1.3532  0.5073
 5997TIP3   OH239405   6.569   0.757   2.093  0.1986 -0.4935  0.0858
 5997TIP3    H139406   6.619   0.826   2.137  0.7426 -1.2794  0.7252
 5997TIP3    H239407   6.632   0.714   2.036 -0.2348 -0.2266 -0.6164
 5998TIP3   OH239408   5.451   3.531  16.511  0.6381  0.4453  0.0939
 5998TIP3    H139409   5.491   3.465  16.455  1.3509  0.3994  0.6408
 5998TIP3    H239410   5.418   3.597  16.450 -1.1273 -0.9429 -0.5376
 5999TIP3   OH239411   5.407   0.873  12.307 -0.0302  0.2076  0.3179
 5999TIP3    H139412   5.457   0.951  12.333  0.8227 -0.6397  1.3742
 5999TIP3    H239413   5.383   0.832  12.390 -1.3553 -0.1275 -0.2067
 6000TIP3   OH239414   0.313   1.029  16.169 -0.1659  0.0496 -0.4980
 6000TIP3    H139415   0.353   1.102  16.217  0.1713  1.1490 -2.3201
 6000TIP3    H239416   0.365   0.953  16.193  1.5750  1.0206 -0.9754
 6001TIP3   OH239417   2.695   6.732   0.572 -0.6745  0.4210  0.1102
 6001TIP3    H139418   2.746   6.654   0.595  2.7421  1.3913 -3.2453
 6001TIP3    H239419   2.719   6.796   0.639 -0.1212 -0.1417  0.4617
 6002TIP3   OH239420   1.513   5.683  11.845 -0.0584  0.5976  0.3167
 6002TIP3    H139421   1.559   5.724  11.772 -0.6276  2.9414  1.1814
 6002TIP3    H239422   1.483   5.756  11.899  0.5158 -1.0201  3.0333
 6003TIP3   OH239423   6.470   2.613  13.469 -0.1009  0.2432 -0.2447
 6003TIP3    H139424   6.492   2.661  13.549  0.3780  1.5888 -1.1609
 6003TIP3    H239425   6.462   2.680  13.402  1.3429 -0.9920 -1.7323
 6004TIP3   OH239426   2.514   4.394  12.858  0.4376  0.1606  0.2930
 6004TIP3    H139427   2.481   4.454  12.791 -0.0185 -0.8689 -0.4304
 6004TIP3    H239428   2.587   4.350  12.815 -0.7728 -1.5751 -0.0983
 6005TIP3   OH239429   1.505   5.969  14.822  0.1241 -0.1936  0.1166
 6005TIP3    H139430   1.497   6.051  14.773  0.3180 -0.1776  0.1113
 6005TIP3    H239431   1.574   5.986  14.886 -1.1974  0.3268  1.4705
 6006TIP3   OH239432   1.531   4.498   4.982 -0.5637  0.6717  0.6721
 6006TIP3    H139433   1.592   4.527   5.049  1.3084  1.4867 -1.2399
 6006TIP3    H239434   1.579   4.430   4.934 -0.5553  2.1950 -1.6711
 6007TIP3   OH239435   5.140   4.830  13.299  0.7676  0.1524  0.2826
 6007TIP3    H139436   5.149   4.742  13.337 -0.7428  0.6844  2.0180
 6007TIP3    H239437   5.104   4.883  13.370  1.9374  2.2918 -0.6206
 6008TIP3   OH239438   2.493   4.644   4.636  0.0723 -0.5021  0.0566
 6008TIP3    H139439   2.509   4.646   4.542  1.3039  0.3630  0.2651
 6008TIP3    H239440   2.575   4.612   4.674  0.5374  1.6853  1.0088
 6009TIP3   OH239441   3.608   1.968  11.716  0.1642 -0.4795 -0.1188
 6009TIP3    H139442   3.693   1.963  11.760  0.5844  0.8413 -0.7404
 6009TIP3    H239443   3.584   1.877  11.700  1.4563 -0.8746  0.0890
 6010TIP3   OH239444   6.250   4.212  13.865 -0.0448 -0.3794 -0.4167
 6010TIP3    H139445   6.230   4.285  13.806 -3.6260 -1.2535 -0.4907
 6010TIP3    H239446   6.212   4.238  13.949 -0.8137 -1.8446 -0.2819
 6011TIP3   OH239447   5.357   2.291  14.401 -0.1979  0.3385  0.5315
 6011TIP3    H139448   5.397   2.233  14.466  0.7724  1.6526  1.1763
 6011TIP3    H239449   5.412   2.281  14.324 -1.5668 -1.5013 -0.2770
 6012TIP3   OH239450   4.254   3.843   0.604  0.1761 -0.0562 -0.1223
 6012TIP3    H139451   4.182   3.905   0.591 -1.0256 -1.5153 -0.7577
 6012TIP3    H239452   4.285   3.825   0.515  0.1375 -0.7636  0.0041
 6013TIP3   OH239453   0.083   3.963  14.847 -0.4546  0.3400 -0.3762
 6013TIP3    H139454   0.077   3.977  14.941  0.4337 -1.1384 -0.0671
 6013TIP3    H239455   0.169   3.998  14.823 -1.2494  1.9993 -0.9161
 6014TIP3   OH239456   4.102   6.649   0.115 -0.0625 -0.1147 -0.1064
 6014TIP3    H139457   4.151   6.727   0.141 -0.5756 -0.2959  1.5486
 6014TIP3    H239458   4.169   6.587   0.087  0.2552  1.4856 -3.3104
 6015TIP3   OH239459   0.325   2.232  14.609  0.3705  0.1576  0.1380
 6015TIP3    H139460   0.230   2.232  14.600  0.3383  0.8989  0.4307
 6015TIP3    H239461   0.348   2.323  14.629  0.8092 -0.5907  3.5661
 6016TIP3   OH239462   6.726   2.467   1.486 -0.2257 -0.5653 -0.3526
 6016TIP3    H139463   6.706   2.406   1.415 -1.9025 -0.9525  0.4015
 6016TIP3    H239464   6.796   2.424   1.536  0.7318 -0.4381 -1.5488
 6017TIP3   OH239465   2.081   2.954  13.050 -0.3922  0.0842 -0.0314
 6017TIP3    H139466   1.991   2.966  13.080 -0.8931 -1.2889 -0.8797
 6017TIP3    H239467   2.073   2.944  12.955  0.6004 -0.4799 -0.0692
 6018TIP3   OH239468   4.321   0.801   4.763  0.6889 -0.3007 -0.0072
 6018TIP3    H139469   4.323   0.731   4.828  4.2038 -0.4012 -0.0478
 6018TIP3    H239470   4.270   0.765   4.690 -0.3095 -1.5138  1.2472
 6019TIP3   OH239471   2.826   4.701  16.894 -0.9203  0.5091 -0.3106
 6019TIP3    H139472   2.886   4.667  16.960  1.2329  0.5674 -2.1116
 6019TIP3    H239473   2.797   4.624  16.845 -0.8206  0.6824 -0.6407
 6020TIP3   OH239474   2.021   5.910  16.591  0.4299 -0.0569 -0.6621
 6020TIP3    H139475   1.967   5.834  16.570 -1.7973  1.0105  0.7045
 6020TIP3    H239476   2.102   5.874  16.625 -0.0391 -1.7928 -1.2764
 6021TIP3   OH239477   5.646   0.379   0.145 -0.0904  0.0197  0.0424
 6021TIP3    H139478   5.587   0.409   0.214 -0.2271 -0.0565 -0.0390
 6021TIP3    H239479   5.628   0.285   0.137 -0.2309  0.0691 -0.2438
 6022TIP3   OH239480   1.009   1.724   4.908 -0.4053  0.4544 -0.3561
 6022TIP3    H139481   1.038   1.776   4.983 -1.3790  0.6672 -0.1100
 6022TIP3    H239482   1.087   1.714   4.854  0.2094  0.6742  0.4637
 6023TIP3   OH239483   5.178   3.711   5.004 -0.5925  0.0420 -0.2345
 6023TIP3    H139484   5.126   3.635   4.979  0.2014 -0.8767  0.7902
 6023TIP3    H239485   5.200   3.696   5.096  1.1224  0.5884 -0.5089
 6024TIP3   OH239486   6.655   1.370   0.763  0.2298  0.7274 -0.7087
 6024TIP3    H139487   6.720   1.430   0.725 -1.2075  2.9830  0.2071
 6024TIP3    H239488   6.574   1.420   0.763 -0.6368 -0.4993  1.9450
 6025TIP3   OH239489   1.046   3.952   2.223  0.1837  0.2396 -0.0283
 6025TIP3    H139490   1.136   3.938   2.252  0.1917  0.4660  0.0559
 6025TIP3    H239491   1.027   3.877   2.167 -0.9684 -2.0427  3.1366
 6026TIP3   OH239492   4.149   4.864   3.478  0.2405 -0.0539  0.2151
 6026TIP3    H139493   4.138   4.806   3.403 -0.0433  0.3171 -0.0319
 6026TIP3    H239494   4.186   4.808   3.547  2.0102 -0.0430 -0.6775
 6027TIP3   OH239495   6.688   6.720  11.551  0.2678  0.6277 -0.7325
 6027TIP3    H139496   6.732   6.762  11.477  0.5864  1.0386 -0.3191
 6027TIP3    H239497   6.653   6.792  11.603 -2.3090  0.2774 -1.8568
 6028TIP3   OH239498   1.862   5.497   4.700 -0.1862 -0.2413 -0.3008
 6028TIP3    H139499   1.804   5.518   4.773  1.7339  0.9312  0.9948
 6028TIP3    H239500   1.930   5.441   4.738  1.5794  1.4437 -0.7762
 6029TIP3   OH239501   3.883   1.603  14.158 -0.6462 -0.7368  0.3228
 6029TIP3    H139502   3.837   1.534  14.110  1.1944 -2.1077  0.3986
 6029TIP3    H239503   3.926   1.557  14.230 -0.0029  0.6326  0.8406
 6030TIP3   OH239504   6.468   4.464   1.690 -0.1620  0.3963  0.5293
 6030TIP3    H139505   6.392   4.407   1.684  1.0125 -1.2503  0.5847
 6030TIP3    H239506   6.478   4.501   1.602  0.2550 -1.1364 -0.0968
 6031TIP3   OH239507   5.811   1.335  16.210  0.0679  0.0370 -0.2428
 6031TIP3    H139508   5.747   1.278  16.251 -1.3520  1.7264  0.0285
 6031TIP3    H239509   5.863   1.369  16.283  0.3402 -0.2275 -0.3119
 6032TIP3   OH239510   1.009   5.863  11.754  0.4314  0.2116 -0.6934
 6032TIP3    H139511   0.946   5.847  11.685  1.3297  1.0912 -1.7655
 6032TIP3    H239512   1.013   5.959  11.761  1.5734  0.1800 -0.6125
 6033TIP3   OH239513   5.270   5.287   3.144  0.0117  0.0944 -0.6808
 6033TIP3    H139514   5.231   5.228   3.080  0.9091  0.4854 -1.6206
 6033TIP3    H239515   5.211   5.283   3.219 -1.7227  0.5247 -1.9550
 6034TIP3   OH239516   6.641   0.576  12.873 -0.0547 -0.0009  0.2876
 6034TIP3    H139517   6.649   0.503  12.935 -1.7102 -0.0663  0.4645
 6034TIP3    H239518   6.599   0.645  12.924 -0.8281  0.1762 -0.5709
 6035TIP3   OH239519   0.851   0.080   6.197 -0.4590  0.6905  0.2197
 6035TIP3    H139520   0.871   0.094   6.289  0.1914 -1.0014  0.3601
 6035TIP3    H239521   0.779   0.017   6.197  0.2705 -0.1577 -0.4355
 6036TIP3   OH239522   1.571   6.014   0.607  0.4916 -0.7274 -0.1129
 6036TIP3    H139523   1.516   6.032   0.683  1.4666 -1.1461  0.7152
 6036TIP3    H239524   1.509   6.001   0.535 -0.4220  2.8472 -0.1926
 6037TIP3   OH239525   2.849   1.372  11.493 -0.2929 -0.4131 -0.7532
 6037TIP3    H139526   2.942   1.387  11.473 -0.3442  0.1639 -0.5724
 6037TIP3    H239527   2.809   1.458  11.485  0.0213  0.3835  3.7755
 6038TIP3   OH239528   2.551   1.685   1.643 -0.5295  0.0462 -0.1436
 6038TIP3    H139529   2.480   1.678   1.580 -0.9090 -1.7253  0.4238
 6038TIP3    H239530   2.622   1.633   1.605 -0.5709 -0.5855  0.6245
 6039TIP3   OH239531   6.387   3.765  13.725 -0.3117 -0.6772  0.1153
 6039TIP3    H139532   6.408   3.780  13.633 -0.9358 -0.0266  0.0668
 6039TIP3    H239533   6.332   3.687  13.725 -3.5336  1.3976 -0.5476
 6040TIP3   OH239534   5.122   5.452  10.766  0.0359 -0.0533  0.0589
 6040TIP3    H139535   5.086   5.422  10.850  0.8870  0.9102  0.7987
 6040TIP3    H239536   5.206   5.406  10.759  0.2434  0.3201  0.0452
 6041TIP3   OH239537   1.799   3.316  13.446  0.3250  0.1522 -0.0896
 6041TIP3    H139538   1.836   3.298  13.532 -0.2888 -0.7223  0.0011
 6041TIP3    H239539   1.875   3.320  13.387  0.8898  2.2876  0.7160
 6042TIP3   OH239540   2.269   0.202   5.589  0.0590  0.3327  0.5924
 6042TIP3    H139541   2.210   0.270   5.555  0.8370 -0.0299 -1.6717
 6042TIP3    H239542   2.213   0.125   5.598 -0.1878  0.4526  0.1460
 6043TIP3   OH239543   2.018   2.281  16.567 -1.0544 -0.0363 -0.3740
 6043TIP3    H139544   2.043   2.255  16.656 -1.0791 -1.4323 -0.7492
 6043TIP3    H239545   2.075   2.355  16.547 -0.3136 -0.3731  0.4167
 6044TIP3   OH239546   5.192   4.118   3.464 -0.6648 -0.3051  0.2437
 6044TIP3    H139547   5.153   4.033   3.482  0.1761 -0.3344  2.1697
 6044TIP3    H239548   5.209   4.156   3.550  0.4775  1.1164 -0.5483
 6045TIP3   OH239549   5.753   0.647  12.350  0.0210  0.1919 -0.6647
 6045TIP3    H139550   5.840   0.605  12.352  0.5180  1.1464 -1.4142
 6045TIP3    H239551   5.718   0.623  12.264 -0.5120 -0.2913 -0.3127
 6046TIP3   OH239552   0.163   5.965   6.499  0.1683  0.1687  0.5242
 6046TIP3    H139553   0.082   5.916   6.481  0.7204 -0.6511  0.2407
 6046TIP3    H239554   0.179   6.015   6.419  0.3557 -0.2578  0.2957
 6047TIP3   OH239555   1.616   5.163   2.983 -0.4019 -0.7261  0.0665
 6047TIP3    H139556   1.642   5.255   2.988 -0.5849 -0.5888 -1.2179
 6047TIP3    H239557   1.690   5.119   2.942 -0.4461 -1.1105  0.3879
 6048TIP3   OH239558   5.103   4.017  12.575 -0.1431 -0.0865 -1.2128
 6048TIP3    H139559   5.121   4.004  12.482  1.5326 -0.6493 -0.8395
 6048TIP3    H239560   5.022   3.968  12.591 -0.2354 -0.3065 -2.2923
 6049TIP3   OH239561   4.999   2.925  14.442 -0.4794  0.5333  0.0091
 6049TIP3    H139562   4.906   2.902  14.439 -0.4608  0.4924 -0.2951
 6049TIP3    H239563   5.016   2.968  14.358  0.1577 -0.9561 -0.6686
 6050TIP3   OH239564   4.128   1.240  16.106 -0.2293  0.3970  0.6748
 6050TIP3    H139565   4.180   1.246  16.026 -0.5080  0.0940  0.4709
 6050TIP3    H239566   4.127   1.329  16.140  1.2662  0.2401  1.2180
 6051TIP3   OH239567   3.895   1.276  17.297 -0.6252  0.0893 -0.2354
 6051TIP3    H139568   3.864   1.346  17.356 -0.4374  1.0266 -1.2315
 6051TIP3    H239569   3.864   1.302  17.211 -0.8748 -1.2679 -0.5832
 6052TIP3   OH239570   5.293   3.568   2.858  0.1600  0.8268 -0.0723
 6052TIP3    H139571   5.288   3.656   2.895 -1.1966  0.5552  0.4301
 6052TIP3    H239572   5.307   3.511   2.934  1.2137  0.6047 -0.4120
 6053TIP3   OH239573   4.031   4.991  13.938  0.3800 -0.0757  0.5523
 6053TIP3    H139574   4.077   4.986  14.022  0.7780 -1.6107  0.2757
 6053TIP3    H239575   3.982   4.909  13.932 -1.1702  0.8322  0.1159
 6054TIP3   OH239576   3.722   3.590   4.036  0.4777 -0.0304 -0.1383
 6054TIP3    H139577   3.642   3.586   3.984 -2.0536  1.6533  3.2697
 6054TIP3    H239578   3.717   3.515   4.094  1.0625  0.4259  0.5129
 6055TIP3   OH239579   2.915   2.871   1.428 -0.0136  0.4046 -0.2285
 6055TIP3    H139580   2.825   2.841   1.444 -0.1869  0.4905 -0.9952
 6055TIP3    H239581   2.930   2.852   1.335  0.7170  0.5166 -0.1380
 6056TIP3   OH239582   5.157   3.950   2.826 -0.2633 -0.5668 -0.5568
 6056TIP3    H139583   5.227   3.995   2.778  0.6687  0.1348  1.3631
 6056TIP3    H239584   5.087   3.939   2.762  0.4147  1.4743 -1.7415
 6057TIP3   OH239585   6.339   6.238   2.966 -0.4315  0.0818 -0.0035
 6057TIP3    H139586   6.307   6.204   2.882  1.6467  0.9142 -1.2067
 6057TIP3    H239587   6.372   6.161   3.012  1.4213 -0.0476 -1.4054
 6058TIP3   OH239588   4.280   2.168  11.854  0.2371  0.3392  0.3930
 6058TIP3    H139589   4.247   2.234  11.793  0.2528 -1.1730 -1.2971
 6058TIP3    H239590   4.362   2.205  11.887  0.4980  0.9596 -0.8920
 6059TIP3   OH239591   0.042   0.307   5.320  0.2437 -0.1848  0.3645
 6059TIP3    H139592   0.059   0.302   5.414  1.8995 -1.7316  0.0492
 6059TIP3    H239593  -0.034   0.251   5.306  1.0477 -1.3537  0.5843
 6060TIP3   OH239594   2.514   2.119   3.420  0.3459  0.2416  0.3549
 6060TIP3    H139595   2.578   2.061   3.462  0.7104  1.0110  0.8954
 6060TIP3    H239596   2.464   2.061   3.362  0.3134 -0.7138  1.2988
 6061TIP3   OH239597   5.245   3.869  13.326  0.2072  0.2469  0.5885
 6061TIP3    H139598   5.314   3.813  13.290  1.4548  2.4825 -0.7812
 6061TIP3    H239599   5.204   3.909  13.249  0.7333  2.6797  1.4733
 6062TIP3   OH239600   3.970   3.494   5.582 -0.2978  1.4344  0.1682
 6062TIP3    H139601   3.891   3.505   5.529  0.4474 -1.2187 -1.7358
 6062TIP3    H239602   3.944   3.519   5.670 -3.2385  0.8001 -0.4114
 6063TIP3   OH239603   0.966   1.962   4.703  0.1113  0.3957 -0.0993
 6063TIP3    H139604   0.951   1.976   4.797  3.7633  0.1801  0.6669
 6063TIP3    H239605   0.909   1.889   4.680 -1.5264  1.0270  1.7066
 6064TIP3   OH239606   3.694   3.003  10.986  0.7206  0.1596 -0.0350
 6064TIP3    H139607   3.634   3.070  11.019  0.0514 -0.6966  0.5297
 6064TIP3    H239608   3.780   3.044  10.990  0.4890  0.5707  1.5297
 6065TIP3   OH239609   2.241   5.004  15.171 -0.1025  0.2471  0.1952
 6065TIP3    H139610   2.259   5.037  15.083  0.2948 -1.3633 -0.3738
 6065TIP3    H239611   2.245   5.081  15.227  1.1452  1.0949 -0.9856
 6066TIP3   OH239612   0.065   1.849  13.257  0.0027 -0.4771  0.0791
 6066TIP3    H139613  -0.019   1.880  13.225 -0.1658 -0.1776  0.7924
 6066TIP3    H239614   0.043   1.770  13.307  0.1625 -0.4689  0.1618
 6067TIP3   OH239615   6.625   5.197   5.169  0.5523 -0.0489  0.4177
 6067TIP3    H139616   6.694   5.263   5.156  0.0176  0.0851 -2.3183
 6067TIP3    H239617   6.660   5.118   5.127 -1.0867  0.1435 -1.4085
 6068TIP3   OH239618   5.185   6.474   1.861 -0.2113 -0.1505  0.1114
 6068TIP3    H139619   5.132   6.412   1.811 -0.1195 -0.1666  0.0340
 6068TIP3    H239620   5.274   6.442   1.852 -0.3994 -1.3518  2.0180
 6069TIP3   OH239621   0.574   1.177  15.701 -0.7435  0.4461  0.4026
 6069TIP3    H139622   0.508   1.170  15.769 -1.3872  0.5639 -0.1968
 6069TIP3    H239623   0.650   1.216  15.744 -0.5764 -0.9306  1.4284
 6070TIP3   OH239624   0.426   1.346  14.159  0.8820 -0.7312 -0.5808
 6070TIP3    H139625   0.477   1.283  14.109  1.8381  0.0446 -0.6153
 6070TIP3    H239626   0.473   1.429  14.149 -0.9714  0.2624 -1.4825
 6071TIP3   OH239627   1.903   2.439  11.419 -0.3656  0.3022  0.6798
 6071TIP3    H139628   1.973   2.495  11.454 -0.1595 -0.3558  1.3568
 6071TIP3    H239629   1.943   2.394  11.345 -0.9121  1.9775 -0.6928
 6072TIP3   OH239630   3.756   6.710  11.613  0.4950 -0.0664  0.4210
 6072TIP3    H139631   3.698   6.786  11.605  0.7948  0.1038 -0.1657
 6072TIP3    H239632   3.790   6.716  11.703 -0.4319 -0.2034  0.7938
 6073TIP3   OH239633   4.377   5.232   4.785  0.3042  0.0934  0.3774
 6073TIP3    H139634   4.351   5.322   4.806  1.5185  1.5515 -3.4863
 6073TIP3    H239635   4.463   5.222   4.825 -0.5644 -0.1087  2.3365
 6074TIP3   OH239636   3.334   0.252  15.496  0.4399 -0.4439 -0.1053
 6074TIP3    H139637   3.261   0.231  15.438 -3.8043  2.2608  3.6590
 6074TIP3    H239638   3.352   0.344  15.479 -0.4235  0.2068  2.2230
 6075TIP3   OH239639   3.176   0.363  13.359 -0.1438  0.1304  0.5677
 6075TIP3    H139640   3.231   0.292  13.326  1.1847  0.8385  1.1897
 6075TIP3    H239641   3.114   0.320  13.418  1.5205 -0.3905  2.0199
 6076TIP3   OH239642   0.791   1.775   4.646 -0.0575 -0.1693  0.3204
 6076TIP3    H139643   0.753   1.764   4.559  0.6365  1.3473 -0.1921
 6076TIP3    H239644   0.834   1.691   4.663  0.1847 -0.3389 -0.9989
 6077TIP3   OH239645   3.642   6.668  13.525  0.2295  0.1995  0.2614
 6077TIP3    H139646   3.705   6.655  13.596 -0.3787  0.3460  0.8379
 6077TIP3    H239647   3.593   6.586  13.521 -0.9575  0.8186  1.2536
 6078TIP3   OH239648   4.302   0.808  14.501 -0.4469 -0.2113 -0.7070
 6078TIP3    H139649   4.391   0.838  14.483 -0.3316 -0.2624 -0.2157
 6078TIP3    H239650   4.294   0.808  14.596  0.2338 -3.6807 -0.5317
 6079TIP3   OH239651   6.098   1.024  15.666  0.1992 -0.2746  0.1545
 6079TIP3    H139652   6.143   1.016  15.582 -1.2233 -3.6307 -0.4898
 6079TIP3    H239653   6.023   1.081  15.648 -0.0099 -0.8482 -0.8832
 6080TIP3   OH239654   0.900   3.621   0.904 -0.0237 -0.3780  0.0992
 6080TIP3    H139655   0.971   3.659   0.955  1.2334 -1.8905 -0.4533
 6080TIP3    H239656   0.922   3.640   0.813 -0.9871  0.2046 -0.0291
 6081TIP3   OH239657   1.162   1.353  14.165  0.7341  0.0237 -0.0192
 6081TIP3    H139658   1.225   1.410  14.210  3.6760 -1.6035 -1.7378
 6081TIP3    H239659   1.159   1.274  14.219 -0.9967  0.5983  0.7782
 6082TIP3   OH239660   3.477   2.762   5.180 -0.0288  0.1902  0.5027
 6082TIP3    H139661   3.415   2.733   5.246 -1.0545  0.1175 -0.4578
 6082TIP3    H239662   3.511   2.681   5.141  1.6216  0.1885  1.8276
 6083TIP3   OH239663   1.135   3.630   4.422  0.2966  0.5654  0.3450
 6083TIP3    H139664   1.196   3.686   4.470  0.0034  0.7825  0.4633
 6083TIP3    H239665   1.075   3.595   4.488 -0.3167  1.1311  0.0990
 6084TIP3   OH239666   2.607   0.667   3.314 -0.2622  0.7910 -0.5487
 6084TIP3    H139667   2.695   0.653   3.351  0.0499  0.8153 -1.2572
 6084TIP3    H239668   2.549   0.616   3.370  0.3982 -0.4520 -0.9412
 6085TIP3   OH239669   5.788   5.638  15.966 -0.3183  0.1939  0.0288
 6085TIP3    H139670   5.724   5.709  15.971  1.3735  1.8723 -0.6128
 6085TIP3    H239671   5.833   5.654  15.883  0.5847 -1.2337  0.2219
 6086TIP3   OH239672   2.598   3.512  14.233  0.6581  0.1889 -0.2845
 6086TIP3    H139673   2.564   3.423  14.223 -1.2585  0.8580 -0.0271
 6086TIP3    H239674   2.567   3.540  14.319  2.3077  0.6976  0.1919
 6087TIP3   OH239675   1.105   5.442   7.011 -0.3011  0.3858 -0.1092
 6087TIP3    H139676   1.083   5.427   6.919  1.2086 -2.4791 -0.1098
 6087TIP3    H239677   1.200   5.438   7.014 -0.3049  0.9893  1.5151
 6088TIP3   OH239678   1.172   5.730  11.546  0.4780  0.1255  0.1012
 6088TIP3    H139679   1.216   5.812  11.568  1.4384 -0.5455  0.7660
 6088TIP3    H239680   1.081   5.755  11.529  0.9821  1.4716 -0.7710
 6089TIP3   OH239681   5.508   0.434  17.312 -0.5458  0.3019 -0.1124
 6089TIP3    H139682   5.586   0.409  17.361 -0.8600  0.7500  0.6437
 6089TIP3    H239683   5.451   0.475  17.377 -0.0583  2.9942 -1.2503
 6090TIP3   OH239684   5.650   5.565  13.097 -0.0995 -0.1605 -0.0489
 6090TIP3    H139685   5.613   5.646  13.062 -1.1877 -0.3444  0.6329
 6090TIP3    H239686   5.692   5.523  13.022 -1.9863 -0.3380 -1.0588
 6091TIP3   OH239687   4.146   6.521   5.360 -0.0219 -0.0856 -0.1498
 6091TIP3    H139688   4.171   6.515   5.267  1.1775 -0.7739  0.1932
 6091TIP3    H239689   4.227   6.542   5.405 -0.5009 -0.2612  0.8060
 6092TIP3   OH239690   6.278   2.129  12.908 -0.2311 -0.0526 -0.1978
 6092TIP3    H139691   6.244   2.105  12.994  0.2045 -0.6901 -0.1903
 6092TIP3    H239692   6.264   2.051  12.854  2.3658 -0.8703  0.1518
 6093TIP3   OH239693   6.517   1.882   2.671 -0.0111 -0.0985  0.0930
 6093TIP3    H139694   6.445   1.929   2.629  0.8296  2.4211  1.2943
 6093TIP3    H239695   6.560   1.947   2.726  1.7390 -2.1186  1.2874
 6094TIP3   OH239696   5.302   4.488   4.883  0.7007  0.1425  0.2312
 6094TIP3    H139697   5.295   4.572   4.929 -0.4691 -0.2065  0.7242
 6094TIP3    H239698   5.336   4.428   4.950 -0.6609 -0.2848  0.5631
 6095TIP3   OH239699   5.219   5.823  15.374 -0.2786 -0.3180 -0.1011
 6095TIP3    H139700   5.129   5.792  15.373 -0.4023  0.0442 -0.2621
 6095TIP3    H239701   5.272   5.744  15.366 -0.5232 -0.7799  2.0114
 6096TIP3   OH239702   4.492   5.182   4.229  0.2215 -0.1332 -0.2861
 6096TIP3    H139703   4.451   5.137   4.303  0.6371 -1.9914 -1.1226
 6096TIP3    H239704   4.433   5.255   4.209 -2.0030 -1.8954 -0.5643
 6097TIP3   OH239705   3.964   4.475  13.861  0.4858  0.2906 -0.0933
 6097TIP3    H139706   4.001   4.422  13.791  0.3078 -1.2500  0.9359
 6097TIP3    H239707   4.036   4.485  13.924  0.2682  0.5502  0.1173
 6098TIP3   OH239708   3.875   4.209   3.804  0.5329 -0.1868 -0.2968
 6098TIP3    H139709   3.911   4.297   3.813 -0.4437  0.0848  1.3734
 6098TIP3    H239710   3.791   4.222   3.760  0.9414 -0.4481 -1.1797
 6099TIP3   OH239711   4.551   0.381   1.729 -0.2351 -0.4969 -0.3604
 6099TIP3    H139712   4.514   0.441   1.794 -0.5599  0.5693 -1.4734
 6099TIP3    H239713   4.538   0.294   1.766  0.8730  0.1201  1.6187
 6100TIP3   OH239714   1.355   1.922   1.637  0.4338  0.3021 -0.0187
 6100TIP3    H139715   1.409   1.989   1.679 -0.6652  2.0238 -1.2761
 6100TIP3    H239716   1.326   1.867   1.710 -0.4610  2.5118  1.3952
 6101TIP3   OH239717   2.658   5.115   2.017  0.4512 -0.0567  0.6731
 6101TIP3    H139718   2.679   5.138   2.107  0.9913 -0.7847  0.7384
 6101TIP3    H239719   2.613   5.193   1.983  2.0870  1.0652  0.9309
 6102TIP3   OH239720   6.592   3.167   5.042 -0.5606 -0.0514 -0.2761
 6102TIP3    H139721   6.612   3.160   5.135 -0.7486  0.7845 -0.1672
 6102TIP3    H239722   6.570   3.259   5.028 -0.6676 -0.1897 -1.1218
 6103TIP3   OH239723   1.963   6.495  11.730 -0.0501 -0.2096  0.2878
 6103TIP3    H139724   1.981   6.588  11.719  0.7587 -0.3755  0.1133
 6103TIP3    H239725   1.868   6.488  11.728 -0.2781  0.9628  3.0070
 6104TIP3   OH239726   6.411   0.058   3.881  0.0500 -0.2909 -0.1793
 6104TIP3    H139727   6.348   0.105   3.936  0.1924  0.7476 -0.8770
 6104TIP3    H239728   6.359   0.022   3.810  0.2489  0.7332 -0.8629
 6105TIP3   OH239729   3.818   1.151  16.141  0.1391 -0.0504  0.2548
 6105TIP3    H139730   3.816   1.056  16.153  0.7023  0.0783  1.5060
 6105TIP3    H239731   3.865   1.184  16.218 -1.7446  1.4024  0.8689
 6106TIP3   OH239732   5.243   1.076   2.294 -0.0589 -0.6674  0.0375
 6106TIP3    H139733   5.231   1.145   2.360 -1.5796  0.4557 -1.3326
 6106TIP3    H239734   5.176   1.011   2.315  0.1890 -0.8490  0.2632
 6107TIP3   OH239735   3.520   3.803  12.815 -0.0627 -0.0252  0.1128
 6107TIP3    H139736   3.516   3.895  12.843  2.1805  1.6134 -4.0594
 6107TIP3    H239737   3.578   3.762  12.880 -2.0092  1.0823  2.7275
 6108TIP3   OH239738   2.807   4.795   2.088  0.1092  0.1197 -0.4604
 6108TIP3    H139739   2.854   4.720   2.124 -0.2194 -0.6407 -1.6007
 6108TIP3    H239740   2.854   4.817   2.008 -0.8604  0.0127 -1.0632
 6109TIP3   OH239741   3.222   0.231   0.700  0.0327  0.2575 -0.2980
 6109TIP3    H139742   3.298   0.289   0.699 -0.2445  0.6458 -1.9974
 6109TIP3    H239743   3.147   0.289   0.716 -0.0203  0.0351  0.2700
 6110TIP3   OH239744   2.227   3.665   6.715 -0.6570  0.1217  0.0209
 6110TIP3    H139745   2.261   3.750   6.742 -0.4442 -0.0190  0.2037
 6110TIP3    H239746   2.198   3.624   6.797  0.9843 -0.7528  0.2198
 6111TIP3   OH239747   1.787   1.983  12.996  0.4771  0.2330 -0.0872
 6111TIP3    H139748   1.725   1.958  12.927  0.0690 -1.6022  0.8589
 6111TIP3    H239749   1.734   2.033  13.059  0.3576  0.1345 -0.1088
 6112TIP3   OH239750   1.385   2.676  14.877  0.3501 -0.3426  0.0368
 6112TIP3    H139751   1.346   2.746  14.824 -1.6130 -0.2755  1.4691
 6112TIP3    H239752   1.430   2.722  14.948  0.0855 -0.4923  0.3046
 6113TIP3   OH239753   3.587   0.202  14.465 -0.1038  0.2023  0.0346
 6113TIP3    H139754   3.542   0.218  14.548 -0.1731 -0.6290  0.1606
 6113TIP3    H239755   3.677   0.234  14.480 -0.0317 -0.2255  0.5299
 6114TIP3   OH239756   6.477   2.000   1.126  0.0987  0.0800 -0.0856
 6114TIP3    H139757   6.445   1.938   1.060  2.0156  1.0674 -2.0760
 6114TIP3    H239758   6.547   1.953   1.171  0.3443  0.1676 -0.3693
 6115TIP3   OH239759   2.068   3.425   5.581 -0.3352  0.4282  0.5713
 6115TIP3    H139760   2.159   3.442   5.556 -0.6209  0.6459 -0.3708
 6115TIP3    H239761   2.034   3.371   5.510 -1.6247  2.3722 -0.3718
 6116TIP3   OH239762   4.094   5.854  10.856  0.0433  0.4219  0.5203
 6116TIP3    H139763   4.043   5.885  10.781  0.4868  1.6011  0.6864
 6116TIP3    H239764   4.034   5.857  10.930 -0.6854 -1.6712  0.0725
 6117TIP3   OH239765   6.462   2.834   2.294 -0.7304 -0.3834  0.4779
 6117TIP3    H139766   6.474   2.759   2.235  2.1795 -1.8546  2.6769
 6117TIP3    H239767   6.471   2.911   2.237 -0.4660 -1.7027 -1.3492
 6118TIP3   OH239768   0.743   6.213  14.382  0.2182  0.2929  0.1706
 6118TIP3    H139769   0.657   6.242  14.352  0.1009  0.2493  0.4564
 6118TIP3    H239770   0.733   6.204  14.477  0.0638 -1.2891  0.0290
 6119TIP3   OH239771   4.657   1.444   5.540  0.5183 -0.3935 -0.0187
 6119TIP3    H139772   4.671   1.511   5.608  0.2331 -1.4972  1.1517
 6119TIP3    H239773   4.573   1.467   5.501 -0.3265 -0.8988  1.4141
 6120TIP3   OH239774   2.129   0.366   5.448  0.3234  0.9107  0.1968
 6120TIP3    H139775   2.119   0.459   5.469  0.4065  1.1808 -0.9214
 6120TIP3    H239776   2.040   0.334   5.437  0.3322  1.1665 -0.6816
 6121TIP3   OH239777   4.255   3.366  13.202  0.5720 -0.0568  0.5471
 6121TIP3    H139778   4.260   3.281  13.158  0.0054  0.7722 -1.2212
 6121TIP3    H239779   4.333   3.370  13.257  1.5262 -1.0112 -0.6882
 6122TIP3   OH239780   5.431   5.851   2.900 -0.1031 -0.4678 -0.2269
 6122TIP3    H139781   5.508   5.809   2.940 -0.9295 -0.9207  0.9571
 6122TIP3    H239782   5.435   5.826   2.808  2.4078  1.3956 -0.7444
 6123TIP3   OH239783   4.968   6.491  11.394 -0.1564  0.8866 -0.9661
 6123TIP3    H139784   4.976   6.418  11.332 -0.1703  0.9311 -1.0205
 6123TIP3    H239785   4.963   6.449  11.480 -1.8657  0.7342 -1.1118
 6124TIP3   OH239786   1.664   0.329   3.351 -0.6249  0.3242  0.3929
 6124TIP3    H139787   1.749   0.286   3.354  0.9456  3.0957 -0.2191
 6124TIP3    H239788   1.640   0.341   3.442 -0.3324 -0.4423  0.5758
 6125TIP3   OH239789   3.883   6.697   0.300  0.3734  0.4551 -0.6045
 6125TIP3    H139790   3.899   6.771   0.359 -0.2365 -0.3146  0.5641
 6125TIP3    H239791   3.941   6.713   0.226  2.9532  0.2642  1.2552
 6126TIP3   OH239792   1.556   5.951   3.682  0.4128 -0.0598 -0.3461
 6126TIP3    H139793   1.466   5.983   3.680  0.2950 -0.3934 -0.4092
 6126TIP3    H239794   1.610   6.028   3.664  0.0571 -0.2586 -2.4878
 6127TIP3   OH239795   1.125   4.548  13.020 -0.1958 -0.4518 -0.2250
 6127TIP3    H139796   1.162   4.558  13.107 -0.0047 -1.6604 -0.1480
 6127TIP3    H239797   1.201   4.552  12.961 -0.4234  1.4173 -0.4594
 6128TIP3   OH239798   0.675   6.056  15.399  0.3312  0.2546 -0.2397
 6128TIP3    H139799   0.751   6.005  15.373 -0.7234 -0.5987 -1.8362
 6128TIP3    H239800   0.680   6.136  15.346 -1.0805 -0.8740 -2.2605
 6129TIP3   OH239801   4.991   0.142  12.395 -0.5188  0.0070  0.4904
 6129TIP3    H139802   4.898   0.163  12.397 -0.5935  0.0308 -1.4586
 6129TIP3    H239803   4.995   0.047  12.395 -0.5095  0.0034  1.0661
 6130TIP3   OH239804   0.307   6.636  17.291 -0.5815  0.2306  0.0939
 6130TIP3    H139805   0.324   6.543  17.280  1.3607  0.5370  0.2039
 6130TIP3    H239806   0.300   6.649  17.386 -1.4036  0.1330  0.0571
 6131TIP3   OH239807   2.814   3.960   5.628  0.1210  0.2812  0.1059
 6131TIP3    H139808   2.882   3.942   5.692 -1.1784 -1.0077  1.1988
 6131TIP3    H239809   2.782   3.874   5.601  0.2976  0.8046 -1.9466
 6132TIP3   OH239810   6.401   6.611   0.128  0.4003 -0.6642  0.3901
 6132TIP3    H139811   6.456   6.681   0.094 -0.4253  0.3770  1.1009
 6132TIP3    H239812   6.462   6.543   0.155  1.2708  0.0368  0.2417
 6133TIP3   OH239813   4.544   3.281   5.259 -0.1371 -0.3464  0.7990
 6133TIP3    H139814   4.611   3.214   5.275 -0.1373 -0.0474  2.2096
 6133TIP3    H239815   4.481   3.270   5.330 -0.7208  0.4395  0.4251
 6134TIP3   OH239816   2.798   3.258  11.743 -0.0519 -0.5762 -0.1836
 6134TIP3    H139817   2.874   3.256  11.685 -1.6767 -0.6224 -2.4238
 6134TIP3    H239818   2.729   3.298  11.691 -2.2080 -2.5379  0.9819
 6135TIP3   OH239819   1.659   5.782  14.383 -0.4281  0.0630  0.0765
 6135TIP3    H139820   1.587   5.810  14.439  0.0238 -0.1598  0.7894
 6135TIP3    H239821   1.738   5.809  14.430 -0.0402  0.6303 -0.8624
 6136TIP3   OH239822   0.012   3.969  16.962 -0.2897  0.5275 -0.3977
 6136TIP3    H139823  -0.070   3.920  16.961  0.5275 -0.9018 -0.0161
 6136TIP3    H239824   0.004   4.026  17.039 -0.2848 -0.7825  0.6073
 6137TIP3   OH239825   6.639   4.894   3.474  0.0448  0.3197  0.1088
 6137TIP3    H139826   6.720   4.945   3.463  0.2558  0.0873  0.5482
 6137TIP3    H239827   6.645   4.825   3.408  0.0184  0.5325 -0.1193
 6138TIP3   OH239828   0.543   1.305  15.199 -0.0634  0.2620 -0.0866
 6138TIP3    H139829   0.569   1.340  15.114  0.9419  0.0771  0.1256
 6138TIP3    H239830   0.585   1.219  15.204 -1.7137 -0.5995 -0.1974
 6139TIP3   OH239831   6.448   6.246   1.564  0.1884 -0.6108  0.4266
 6139TIP3    H139832   6.400   6.234   1.482  1.5398  1.4293 -0.7533
 6139TIP3    H239833   6.476   6.158   1.588  1.1228 -1.1252 -2.2136
 6140TIP3   OH239834   6.479   2.054  11.587 -0.4926  0.0940 -0.2644
 6140TIP3    H139835   6.412   2.099  11.639  0.0868  1.2527 -0.4747
 6140TIP3    H239836   6.452   1.962  11.587 -3.5444  0.8226 -2.5211
 6141TIP3   OH239837   5.205   4.636   1.109 -0.5988  0.1288  0.2848
 6141TIP3    H139838   5.205   4.701   1.179  1.2168 -0.2912  0.7238
 6141TIP3    H239839   5.292   4.643   1.069 -0.4259 -1.8481  0.1897
 6142TIP3   OH239840   4.169   6.732   4.267 -0.4488  0.6173 -0.8730
 6142TIP3    H139841   4.221   6.658   4.237 -0.4718 -0.2356  1.0739
 6142TIP3    H239842   4.081   6.696   4.282 -0.2467  0.7787  0.9274
 6143TIP3   OH239843   4.155   6.634  17.126 -0.0823  0.3680  0.3851
 6143TIP3    H139844   4.147   6.671  17.038  4.2373  2.8942  0.8181
 6143TIP3    H239845   4.076   6.663  17.171  0.0153  3.5956 -1.2403
 6144TIP3   OH239846   4.825   2.198  10.862  0.0079 -0.3551  0.9006
 6144TIP3    H139847   4.898   2.209  10.923 -0.7873  0.7835  1.6918
 6144TIP3    H239848   4.753   2.166  10.915 -0.6287  0.4212  0.5254
 6145TIP3   OH239849   5.526   3.165   2.686 -0.1415  0.1179 -0.6604
 6145TIP3    H139850   5.594   3.107   2.653  0.4930  0.4203  0.0804
 6145TIP3    H239851   5.571   3.222   2.748 -0.5475  1.9923 -1.9890
 6146TIP3   OH239852   1.350   4.708   5.493  0.1053  0.3446 -0.6708
 6146TIP3    H139853   1.367   4.789   5.541 -2.0834  1.0328 -0.9200
 6146TIP3    H239854   1.272   4.728   5.441 -0.7498 -2.0472 -0.4088
 6147TIP3   OH239855   4.957   5.311  13.592 -0.2705  0.0822  0.3049
 6147TIP3    H139856   5.040   5.345  13.626  0.3973 -0.0608 -1.1045
 6147TIP3    H239857   4.948   5.225  13.634  2.4950 -1.8380 -2.5601
 6148TIP3   OH239858   5.952   5.801  10.618 -0.1864 -0.0992 -0.2509
 6148TIP3    H139859   6.022   5.822  10.557 -0.6202  1.1667 -0.3449
 6148TIP3    H239860   5.996   5.784  10.701  0.2744  0.0316 -0.4702
 6149TIP3   OH239861   0.055   6.400   2.385 -0.4416 -0.7086  0.2579
 6149TIP3    H139862   0.138   6.443   2.406 -0.8975  1.1205 -1.4339
 6149TIP3    H239863   0.076   6.342   2.312 -0.8311  0.5768 -0.9020
 6150TIP3   OH239864   4.401   6.268   1.421  0.0128  0.7526  0.7258
 6150TIP3    H139865   4.356   6.199   1.373 -1.4082  0.1632  2.7755
 6150TIP3    H239866   4.488   6.232   1.438  0.6261  1.0678 -1.4947
 6151TIP3   OH239867   4.173   2.482  14.495  0.2921 -0.3483 -0.5045
 6151TIP3    H139868   4.081   2.500  14.479  0.3208  1.5569  1.0910
 6151TIP3    H239869   4.182   2.487  14.590  2.0351 -0.5095 -0.6279
 6152TIP3   OH239870   1.929   0.870  14.641 -0.2247 -0.1342 -0.4311
 6152TIP3    H139871   1.932   0.928  14.565  0.8897 -0.3396 -0.5597
 6152TIP3    H239872   1.835   0.861  14.660 -0.4815  0.5767 -1.2654
 6153TIP3   OH239873   2.028   4.605   1.096  0.3212 -0.0662 -0.4321
 6153TIP3    H139874   1.962   4.662   1.058  0.0327 -1.6878 -2.6158
 6153TIP3    H239875   2.110   4.631   1.054  0.2533 -0.9133 -1.1416
 6154TIP3   OH239876   2.748   2.871  11.963 -0.0403  0.1162  0.3314
 6154TIP3    H139877   2.809   2.864  12.037  2.5049 -0.5431 -1.6660
 6154TIP3    H239878   2.717   2.782  11.949  0.3677  0.0377 -0.0807
 6155TIP3   OH239879   2.502   3.809   3.470  0.0095  0.5515  0.2593
 6155TIP3    H139880   2.490   3.715   3.486  0.4769  0.4737  0.1806
 6155TIP3    H239881   2.450   3.852   3.538 -2.2711  0.2761 -1.1892
 6156TIP3   OH239882   4.318   2.505   5.428  0.0526 -0.2894  0.2837
 6156TIP3    H139883   4.248   2.570   5.422 -0.6851 -0.8282  2.2669
 6156TIP3    H239884   4.392   2.553   5.467  0.2724 -0.1013 -0.3572
 6157TIP3   OH239885   5.513   1.479   4.669 -0.5612  0.6572 -0.3376
 6157TIP3    H139886   5.582   1.431   4.622 -1.2177 -0.0518 -0.6115
 6157TIP3    H239887   5.466   1.525   4.600 -1.2945 -0.0849 -0.3484
 6158TIP3   OH239888   4.755   1.880   3.545  0.2448  0.0837  0.2864
 6158TIP3    H139889   4.819   1.852   3.611 -0.7377 -1.1081  0.7738
 6158TIP3    H239890   4.781   1.834   3.465  1.6585  1.8150 -0.3196
 6159TIP3   OH239891   1.923   6.542   3.300 -0.4028  0.0373  0.2009
 6159TIP3    H139892   1.867   6.545   3.378 -2.2765 -1.5511 -0.9957
 6159TIP3    H239893   1.867   6.507   3.231  1.2851  1.0940 -1.8307
 6160TIP3   OH239894   4.484   6.753   1.341  0.4232 -0.6880 -0.2043
 6160TIP3    H139895   4.503   6.822   1.277 -0.2273 -0.4601 -0.1594
 6160TIP3    H239896   4.534   6.677   1.309 -1.4039 -1.1869 -2.1324
 6161TIP3   OH239897   0.989   4.440   6.122  0.2480 -0.2782 -0.7654
 6161TIP3    H139898   1.048   4.473   6.054 -0.2581 -0.2162 -1.1785
 6161TIP3    H239899   0.903   4.471   6.096  0.0421 -0.2920 -0.1143
 6162TIP3   OH239900   1.724   0.282  17.083  0.2423  0.2352  0.3634
 6162TIP3    H139901   1.675   0.261  17.163  0.7395 -0.2989  0.5409
 6162TIP3    H239902   1.815   0.284  17.112  0.3985  0.3431 -0.1337
 6163TIP3   OH239903   2.860   3.696  15.185  0.0436  0.3097  0.0481
 6163TIP3    H139904   2.934   3.663  15.236 -0.2214 -0.1500  0.1434
 6163TIP3    H239905   2.854   3.636  15.111 -0.2228  0.3580  0.0301
 6164TIP3   OH239906   0.966   1.855  12.786  0.0910 -0.2094 -0.5845
 6164TIP3    H139907   0.908   1.780  12.803  1.2903 -1.2366 -0.8904
 6164TIP3    H239908   1.025   1.825  12.717  1.1248  0.7299 -0.1428
 6165TIP3   OH239909   6.241   0.605  15.799  0.1958 -0.4045 -0.2615
 6165TIP3    H139910   6.245   0.686  15.850 -3.3233 -1.4360  2.0718
 6165TIP3    H239911   6.204   0.631  15.715 -1.6557  0.4123  0.7496
 6166TIP3   OH239912   3.390   1.773   3.542 -0.0028 -0.1622 -0.1010
 6166TIP3    H139913   3.477   1.771   3.582  0.1550 -0.8550 -0.4708
 6166TIP3    H239914   3.369   1.681   3.526 -0.2580  0.0776 -1.2004
 6167TIP3   OH239915   3.161   0.879  15.683 -0.1347  0.4358  0.4257
 6167TIP3    H139916   3.090   0.914  15.738 -2.6194 -1.0911 -1.5867
 6167TIP3    H239917   3.184   0.795  15.724 -0.7176  0.1330  0.1412
 6168TIP3   OH239918   1.238   0.515  11.678  0.3710  0.1640 -0.1239
 6168TIP3    H139919   1.181   0.553  11.744 -0.1092 -0.1793 -0.3353
 6168TIP3    H239920   1.299   0.585  11.656  2.1536 -0.4535  2.4604
 6169TIP3   OH239921   4.264   5.352  13.495  0.0600  0.3459 -0.4521
 6169TIP3    H139922   4.357   5.333  13.482 -0.1745  0.3754 -2.4150
 6169TIP3    H239923   4.263   5.417  13.565  1.4631 -0.1502  0.0556
 6170TIP3   OH239924   1.973   3.374  16.370 -0.2292  0.1647 -0.0380
 6170TIP3    H139925   1.894   3.379  16.424 -1.0188 -1.8323 -0.9075
 6170TIP3    H239926   2.016   3.293  16.398  1.1688  0.8790 -0.0551
 6171TIP3   OH239927   5.705   4.849  16.000  0.7669  0.3049  0.1028
 6171TIP3    H139928   5.701   4.822  16.092  1.7958  0.6042  0.2428
 6171TIP3    H239929   5.663   4.778  15.952 -0.6507  0.5786  0.8839
 6172TIP3   OH239930   0.934   3.399  15.128  0.1473 -0.4798 -0.1380
 6172TIP3    H139931   0.976   3.405  15.214 -1.5098 -1.9994  0.8493
 6172TIP3    H239932   0.880   3.478  15.123 -0.5302 -0.8668  0.7053
 6173TIP3   OH239933   6.490   5.439  14.715 -0.0232  0.6198  0.2937
 6173TIP3    H139934   6.501   5.368  14.779 -0.5211  2.6589  2.7697
 6173TIP3    H239935   6.423   5.406  14.655 -1.9306 -0.2190  2.7117
 6174TIP3   OH239936   3.893   3.683   5.798  0.3577 -0.3086 -0.1245
 6174TIP3    H139937   3.798   3.698   5.798  0.0442 -2.0405  0.7147
 6174TIP3    H239938   3.912   3.653   5.886  0.9823 -3.8010 -1.2920
 6175TIP3   OH239939   2.899   4.609   4.171 -0.1651 -0.1910 -0.1536
 6175TIP3    H139940   2.921   4.533   4.226  1.3813  0.7313  0.5557
 6175TIP3    H239941   2.826   4.651   4.217 -0.0331 -0.4044  0.2588
 6176TIP3   OH239942   5.051   2.723   1.741 -0.2499 -0.3435  0.4397
 6176TIP3    H139943   5.109   2.798   1.751 -1.7439  0.7187  1.3912
 6176TIP3    H239944   5.105   2.648   1.766  0.8663  0.5553  0.8086
 6177TIP3   OH239945   2.413   5.215  13.975  0.2034 -0.1569  0.2412
 6177TIP3    H139946   2.423   5.182  13.886  2.2829 -1.3295  0.8643
 6177TIP3    H239947   2.373   5.143  14.023  0.3293 -0.0196  0.5554
 6178TIP3   OH239948   1.975   4.809   4.674  0.4685  0.1882  0.0812
 6178TIP3    H139949   1.964   4.714   4.663 -0.4182  0.2132  0.6721
 6178TIP3    H239950   1.970   4.844   4.585 -0.5027 -0.2023 -0.0308
 6179TIP3   OH239951   0.049   2.245  13.837  0.5643 -0.2751 -0.3268
 6179TIP3    H139952  -0.019   2.306  13.865  0.4096 -0.8626  0.5995
 6179TIP3    H239953   0.121   2.300  13.808 -0.1403  0.3526 -0.9405
 6180TIP3   OH239954   5.549   2.645  12.851 -0.6228  0.4682 -0.5401
 6180TIP3    H139955   5.503   2.591  12.915 -0.9761  2.2646  0.7858
 6180TIP3    H239956   5.615   2.586  12.813 -0.7864 -0.8121  1.0508
 6181TIP3   OH239957   5.686   4.318  14.939  0.7345 -0.2295 -0.0903
 6181TIP3    H139958   5.749   4.375  14.984  0.8742 -1.3613  1.2190
 6181TIP3    H239959   5.649   4.373  14.870  1.3953  1.2191  0.6586
 6182TIP3   OH239960   1.245   5.971   1.855 -0.1911  0.6036  0.3221
 6182TIP3    H139961   1.201   6.004   1.777  2.3834  0.4079 -1.3077
 6182TIP3    H239962   1.235   5.876   1.850 -0.3527  0.6125  0.4557
 6183TIP3   OH239963   0.915   4.131  17.021 -0.2205  0.1894 -0.1307
 6183TIP3    H139964   0.925   4.196  16.952  0.0501 -1.5088 -1.7795
 6183TIP3    H239965   0.833   4.086  17.000  0.1252 -0.6926  0.3337
 6184TIP3   OH239966   3.044   4.376   5.568  0.1816  0.1236 -0.6706
 6184TIP3    H139967   2.995   4.427   5.503  1.0997  1.5162 -0.3104
 6184TIP3    H239968   3.001   4.395   5.651  0.0879 -0.2819 -0.6219
 6185TIP3   OH239969   0.922   4.973   5.667  0.2050 -0.3205 -0.0795
 6185TIP3    H139970   0.842   5.026   5.667  0.6959  0.4318 -0.4717
 6185TIP3    H239971   0.945   4.964   5.759 -0.3379 -0.5610  0.0400
 6186TIP3   OH239972   1.036   3.868   3.080 -0.1039  0.3716  0.3822
 6186TIP3    H139973   0.954   3.823   3.098 -0.5927 -0.0278 -2.4339
 6186TIP3    H239974   1.027   3.953   3.123 -2.0995  0.4319 -0.0732
 6187TIP3   OH239975   3.984   0.110   3.722  0.2263  0.3196  0.0792
 6187TIP3    H139976   4.034   0.030   3.738 -0.6871 -0.0511  1.2237
 6187TIP3    H239977   3.892   0.083   3.730 -0.2997  0.6742 -3.3423
 6188TIP3   OH239978   1.500   0.177  11.406  0.9738  0.2481 -0.5071
 6188TIP3    H139979   1.465   0.185  11.317  2.9615  0.1572 -1.3543
 6188TIP3    H239980   1.510   0.268  11.435  0.8985  0.2956 -0.6266
 6189TIP3   OH239981   5.644   2.769   6.183 -0.1458  0.2663 -0.1580
 6189TIP3    H139982   5.730   2.794   6.217 -0.2778  0.0903  0.3086
 6189TIP3    H239983   5.663   2.718   6.104  0.1972 -0.1992  0.2220
 6190TIP3   OH239984   3.041   3.524   0.019  0.2068 -0.7666 -0.6886
 6190TIP3    H139985   3.104   3.527   0.092  0.0237 -0.2063 -0.5487
 6190TIP3    H239986   3.095   3.507  -0.058  0.7290  0.9988 -0.7671
 6191TIP3   OH239987   4.444   1.050   5.821 -0.2794 -0.0896 -0.0673
 6191TIP3    H139988   4.443   1.144   5.801  3.3590  0.3978  1.2629
 6191TIP3    H239989   4.374   1.038   5.884 -0.1659  1.9667  0.5312
 6192TIP3   OH239990   3.534   0.638   0.843  0.6495 -0.2628 -0.6874
 6192TIP3    H139991   3.463   0.696   0.815 -0.0260 -0.2225  0.9744
 6192TIP3    H239992   3.500   0.595   0.922  2.3712 -0.4474 -0.0066
 6193TIP3   OH239993   2.714   6.329  14.572  0.3028 -0.5757 -0.2211
 6193TIP3    H139994   2.775   6.327  14.646 -0.9505  0.7561  0.9020
 6193TIP3    H239995   2.706   6.421  14.549 -0.3526 -0.8463 -1.1590
 6194TIP3   OH239996   5.695   3.201   4.851 -0.0326 -0.2401 -0.1578
 6194TIP3    H139997   5.741   3.117   4.850  1.8097  0.7003  0.2747
 6194TIP3    H239998   5.684   3.223   4.759 -1.8993 -1.6047 -0.3223
 6195TIP3   OH239999   3.591   4.792  10.919 -0.5032  0.6346 -0.3020
 6195TIP3    H140000   3.529   4.753  10.980 -0.5249 -1.0589 -1.3562
 6195TIP3    H240001   3.571   4.886  10.921 -2.5862  0.2319 -0.0376
 6196TIP3   OH240002   4.624   3.984  10.878 -0.3671  0.1087  0.1727
 6196TIP3    H140003   4.606   4.035  10.799  1.4882  0.0699 -0.3219
 6196TIP3    H240004   4.705   3.937  10.858 -1.3124 -2.0700  1.0857
 6197TIP3   OH240005   3.404   2.328   4.411 -0.3496  0.4599 -0.1396
 6197TIP3    H140006   3.428   2.421   4.410 -0.4023  0.4741 -1.6975
 6197TIP3    H240007   3.311   2.327   4.388 -1.2592  0.2037  3.0537
 6198TIP3   OH240008   5.588   1.051   4.120 -0.4799  0.0130 -0.2956
 6198TIP3    H140009   5.493   1.056   4.133 -0.1517  0.5048  2.7700
 6198TIP3    H240010   5.599   1.016   4.032 -3.5276 -2.1770  0.0428
 6199TIP3   OH240011   3.176   5.787  12.022  0.0080  0.6069 -0.1620
 6199TIP3    H140012   3.183   5.880  12.043  1.6810  0.4975 -0.1296
 6199TIP3    H240013   3.089   5.779  11.982  0.4968  2.5297 -1.8125
 6200TIP3   OH240014   4.282   1.271  17.177 -0.1842  0.4479  0.5684
 6200TIP3    H140015   4.348   1.221  17.129 -0.9464  0.4962 -0.5706
 6200TIP3    H240016   4.322   1.288  17.262  1.5231  1.0667 -0.3186
 6201TIP3   OH240017   4.970   0.414   5.354  0.4106 -0.2469  0.0388
 6201TIP3    H140018   4.915   0.369   5.418  0.9848 -0.7798  0.1710
 6201TIP3    H240019   4.997   0.495   5.397 -0.0588 -0.1069  0.0695
 6202TIP3   OH240020   6.694   0.068   2.560  0.0752 -0.5181  0.0242
 6202TIP3    H140021   6.734   0.044   2.644  0.2838 -0.5643 -0.0878
 6202TIP3    H240022   6.708  -0.008   2.504  1.8701  0.3181 -0.7378
 6203TIP3   OH240023   6.603   4.747   3.235 -0.2727  0.1254  0.5522
 6203TIP3    H140024   6.561   4.661   3.230 -0.9466  0.5202 -0.9484
 6203TIP3    H240025   6.531   4.809   3.235  0.2508  0.7694 -0.7175
 6204TIP3   OH240026   6.577   5.866   5.681  0.5107  0.4866  0.2895
 6204TIP3    H140027   6.612   5.777   5.694  0.6538  0.4857 -0.0971
 6204TIP3    H240028   6.496   5.867   5.732  0.1952 -0.0665 -0.1857
 6205TIP3   OH240029   0.926   4.708  16.270 -0.0990 -0.3831 -0.2298
 6205TIP3    H140030   0.962   4.794  16.248  0.5725 -0.5559  0.1392
 6205TIP3    H240031   0.868   4.686  16.198 -0.3092  0.4023 -0.3005
 6206TIP3   OH240032   3.181   4.037  11.302  0.4820 -0.1736  0.4397
 6206TIP3    H140033   3.276   4.049  11.301  0.6017 -0.9466  1.3680
 6206TIP3    H240034   3.168   3.948  11.270  0.0662 -0.0562  0.2788
 6207TIP3   OH240035   1.845   3.123   3.500 -0.0134  0.2054  0.2426
 6207TIP3    H140036   1.883   3.046   3.541 -2.1687 -1.8641 -1.3751
 6207TIP3    H240037   1.793   3.164   3.568 -1.3358 -1.5895  0.3585
 6208TIP3   OH240038   6.529   3.213  14.138  0.2346 -0.5931  0.2813
 6208TIP3    H140039   6.464   3.280  14.118 -0.3768 -0.9316  1.0735
 6208TIP3    H240040   6.613   3.258  14.132 -0.1995  0.4540  1.5746
 6209TIP3   OH240041   2.951   3.299  13.650  0.4886 -0.6320 -0.3333
 6209TIP3    H140042   2.886   3.256  13.594 -0.1241 -1.9369  1.3128
 6209TIP3    H240043   2.993   3.363  13.592 -1.5740 -0.4148 -1.7179
 6210TIP3   OH240044   0.119   1.689  14.168  0.2128  0.6654 -0.5045
 6210TIP3    H140045   0.038   1.683  14.218 -0.4476 -0.6006 -1.6675
 6210TIP3    H240046   0.165   1.607  14.186  1.1643  1.2733 -0.0344
 6211TIP3   OH240047   0.706   6.365   5.206 -0.6931 -0.0970 -0.5332
 6211TIP3    H140048   0.696   6.391   5.114 -0.8933  2.1456  0.0790
 6211TIP3    H240049   0.793   6.395   5.230 -1.3170  0.9750  0.4806
 6212TIP3   OH240050   5.119   4.519  17.113 -0.5505  0.1600  0.1588
 6212TIP3    H140051   5.027   4.518  17.087 -0.3442  1.9959 -0.8126
 6212TIP3    H240052   5.124   4.583  17.184 -0.1283 -0.4816  0.7249
 6213TIP3   OH240053   4.910   1.045  11.544 -0.0680  0.1385  0.3470
 6213TIP3    H140054   4.988   1.029  11.598 -0.9812  3.2971  2.9599
 6213TIP3    H240055   4.876   0.958  11.525  1.1988 -1.2888  3.6765
 6214TIP3   OH240056   5.676   1.440  12.195 -0.1581  0.8335 -0.0193
 6214TIP3    H140057   5.668   1.362  12.249 -0.6181  1.1397  0.3595
 6214TIP3    H240058   5.626   1.421  12.116  0.5345  0.3753 -0.3583
 6215TIP3   OH240059   4.287   0.781  10.864  0.0923  0.4427  0.2385
 6215TIP3    H140060   4.200   0.782  10.904  0.3283  1.3913  0.7509
 6215TIP3    H240061   4.270   0.778  10.770 -0.4828  0.0051  0.3494
 6216TIP3   OH240062   1.460   4.662  11.824 -0.3860  0.3192 -0.1862
 6216TIP3    H140063   1.535   4.673  11.766 -0.1450 -0.2529  0.0138
 6216TIP3    H240064   1.494   4.682  11.911 -0.4491  0.0070 -0.0886
 6217TIP3   OH240065   2.384   0.565  11.629  0.5811  0.2355  0.4066
 6217TIP3    H140066   2.425   0.629  11.571  1.1760  1.0282  1.6616
 6217TIP3    H240067   2.369   0.488  11.573  2.3397  0.4903 -0.4781
 6218TIP3   OH240068   5.640   6.001   3.806 -0.2508 -0.0974  0.2703
 6218TIP3    H140069   5.603   6.002   3.717 -0.7765  0.9096  0.4816
 6218TIP3    H240070   5.567   6.026   3.862  0.3152  0.1840  0.8918
 6219TIP3   OH240071   2.587   2.366  12.687  0.5274  0.1908 -0.1388
 6219TIP3    H140072   2.638   2.286  12.674 -1.4331 -0.8632 -2.1801
 6219TIP3    H240073   2.643   2.437  12.657  0.9668 -0.8820 -2.0093
 6220TIP3   OH240074   2.163   3.337  14.090 -0.6986  0.6174  0.6240
 6220TIP3    H140075   2.128   3.419  14.125 -0.3631  0.9602  0.1556
 6220TIP3    H240076   2.230   3.364  14.028  0.4159 -0.0277  1.5075
 6221TIP3   OH240077   0.269   4.493  13.565 -0.1323 -0.2040  0.1019
 6221TIP3    H140078   0.357   4.456  13.553  0.0664  0.4487 -0.5640
 6221TIP3    H240079   0.220   4.425  13.611  0.5398 -0.8361 -0.0949
 6222TIP3   OH240080   0.682   5.529   3.207 -0.2710  0.8131  0.3723
 6222TIP3    H140081   0.726   5.451   3.174 -1.2278  0.5914 -0.4264
 6222TIP3    H240082   0.618   5.496   3.270 -2.5665  0.5965 -1.8862
 6223TIP3   OH240083   6.755   3.837  14.390 -0.2315 -0.5607  0.5227
 6223TIP3    H140084   6.835   3.830  14.442 -0.8311 -0.0592  1.5445
 6223TIP3    H240085   6.686   3.852  14.454 -0.8810  0.9147 -0.4810
 6224TIP3   OH240086   1.167   0.827  16.097 -0.3089  0.8300 -0.3185
 6224TIP3    H140087   1.133   0.886  16.164 -2.2199  0.8914 -1.2891
 6224TIP3    H240088   1.138   0.866  16.014  1.2460  0.2866 -1.1773
 6225TIP3   OH240089   4.417   6.240  13.179  0.5310  0.2061  0.5718
 6225TIP3    H140090   4.331   6.260  13.143  1.2130 -0.3501 -1.4717
 6225TIP3    H240091   4.400   6.175  13.247 -0.7300  0.7983  0.8637
 6226TIP3   OH240092   1.178   6.203   2.722  0.6156 -0.0755  0.8672
 6226TIP3    H140093   1.190   6.175   2.631 -0.1281 -0.9733  1.0265
 6226TIP3    H240094   1.177   6.121   2.772 -0.6105  0.2987  1.4879
 6227TIP3   OH240095   0.108   3.112   5.881  0.1085 -0.3950 -0.0489
 6227TIP3    H140096   0.189   3.062   5.875  0.0893 -0.5176  0.5851
 6227TIP3    H240097   0.121   3.170   5.956  0.1120  0.5343 -0.7492
 6228TIP3   OH240098   5.513   2.717   5.337 -0.3981 -0.0316  0.0249
 6228TIP3    H140099   5.569   2.762   5.400 -0.5576 -0.3790  0.4145
 6228TIP3    H240100   5.447   2.673   5.390 -0.0725 -0.9658 -0.3327
 6229TIP3   OH240101   3.416   4.961   6.608 -0.1392  0.0916  0.0649
 6229TIP3    H140102   3.480   4.952   6.678 -0.0239 -0.7170 -0.1341
 6229TIP3    H240103   3.465   5.000   6.535 -0.3075  1.1151  0.4876
 6230TIP3   OH240104   5.925   6.704   0.043  0.3586 -0.0971 -0.8804
 6230TIP3    H140105   5.836   6.707   0.008 -0.2519 -0.4240  0.5992
 6230TIP3    H240106   5.937   6.614   0.072  1.8399 -0.5393 -2.6218
 6231TIP3   OH240107   0.130   0.330  14.110 -0.1179  0.1261  0.5484
 6231TIP3    H140108   0.120   0.264  14.041 -2.2912 -0.6250  1.4823
 6231TIP3    H240109   0.201   0.386  14.080  1.4082 -2.2596 -0.5982
 6232TIP3   OH240110   2.107   1.311   5.924 -0.3285 -0.3134  0.4149
 6232TIP3    H140111   2.040   1.274   5.866 -1.1289 -1.1041  1.7850
 6232TIP3    H240112   2.099   1.260   6.005 -0.0277  1.4910  1.6381
 6233TIP3   OH240113   5.203   1.027  11.435 -0.1493 -0.3232 -0.0957
 6233TIP3    H140114   5.274   0.987  11.484 -0.9669  0.3645  1.7507
 6233TIP3    H240115   5.181   1.106  11.485 -0.9414  0.5157 -1.6762
 6234TIP3   OH240116   3.366   0.510  13.130 -0.1927 -0.2426 -0.0579
 6234TIP3    H140117   3.424   0.471  13.195  0.3336 -0.9705 -0.9350
 6234TIP3    H240118   3.284   0.524  13.177  0.5892  0.5332  1.1175
 6235TIP3   OH240119   1.641   3.031  15.937  0.7233 -0.1618 -0.0583
 6235TIP3    H140120   1.691   2.962  15.981 -0.8745 -1.7650 -0.6180
 6235TIP3    H240121   1.591   3.072  16.007  0.7121 -0.4393  0.0987
 6236TIP3   OH240122   2.411   5.487   2.646 -0.0218  0.8982 -0.4478
 6236TIP3    H140123   2.383   5.567   2.603 -0.2103  0.9740 -0.1816
 6236TIP3    H240124   2.347   5.473   2.716  0.1370  0.6370 -0.3534
 6237TIP3   OH240125   6.600   4.267   4.667  0.4831  0.6324  0.4110
 6237TIP3    H140126   6.641   4.265   4.581  1.0318 -0.0874  0.6819
 6237TIP3    H240127   6.670   4.292   4.727  1.1328 -2.5980  1.1664
 6238TIP3   OH240128   0.469   6.692   3.340 -0.0587  0.2420  0.0549
 6238TIP3    H140129   0.479   6.647   3.256  2.4073  1.4467 -0.3787
 6238TIP3    H240130   0.515   6.637   3.403 -0.5508  0.1390  0.3357
 6239TIP3   OH240131   1.671   4.734   2.127  0.1266  0.2241  0.4570
 6239TIP3    H140132   1.678   4.722   2.221 -1.2543 -1.0209  0.4406
 6239TIP3    H240133   1.761   4.749   2.097  0.8154 -1.1422  1.7525
 6240TIP3   OH240134   6.447   3.804   4.023  0.0131 -0.0726  0.0295
 6240TIP3    H140135   6.367   3.856   4.013 -0.7417 -1.3556 -0.8563
 6240TIP3    H240136   6.435   3.757   4.105  0.2906  0.4438  0.3712
 6241TIP3   OH240137   5.971   0.993   0.154 -0.5015  0.2759  0.0263
 6241TIP3    H140138   5.980   1.068   0.095 -0.0024  0.4927  0.3653
 6241TIP3    H240139   5.946   0.920   0.097 -1.4667  0.7988 -0.2443
 6242TIP3   OH240140   1.471   2.977  17.305  0.4479 -0.7901 -0.3459
 6242TIP3    H140141   1.556   2.964  17.346 -0.0814 -0.1092  1.0341
 6242TIP3    H240142   1.413   2.916  17.349 -0.1778  0.1030  0.1013
 6243TIP3   OH240143   3.236   3.295   0.068  0.4169  0.3498  0.8854
 6243TIP3    H140144   3.311   3.236   0.072  0.3796  0.0766 -1.2245
 6243TIP3    H240145   3.266   3.375   0.110  1.5216 -0.1383  1.0517
 6244TIP3   OH240146   2.126   4.590   4.537  0.0214 -0.1688 -0.8678
 6244TIP3    H140147   2.079   4.550   4.464 -1.4697 -1.1325  0.5431
 6244TIP3    H240148   2.165   4.669   4.500 -3.1656  1.0165 -2.0496
 6245TIP3   OH240149   5.606   4.904  14.199 -0.6833 -0.3328 -0.3475
 6245TIP3    H140150   5.670   4.967  14.167 -0.2595  1.0465  2.8353
 6245TIP3    H240151   5.524   4.954  14.205 -0.6793 -0.4393  0.8808
 6246TIP3   OH240152   3.108   5.706  11.195  0.2052 -0.0375 -0.1621
 6246TIP3    H140153   3.199   5.698  11.166  0.6257  0.6239  0.9230
 6246TIP3    H240154   3.081   5.617  11.215  0.9299 -0.1443  0.3849
 6247TIP3   OH240155   2.537   6.081   0.364  0.1309  0.4899  0.4489
 6247TIP3    H140156   2.544   6.080   0.459  1.5274 -0.2863  0.3719
 6247TIP3    H240157   2.587   6.158   0.337 -1.3664  1.4765  0.3759
 6248TIP3   OH240158   5.677   4.936  16.863  0.3372  0.0090 -0.1829
 6248TIP3    H140159   5.734   4.895  16.798 -0.8066 -1.2039 -0.4727
 6248TIP3    H240160   5.713   5.024  16.875  1.3322 -0.1925 -1.4934
 6249TIP3   OH240161   0.770   5.795   1.502 -0.3149  0.0357 -0.0223
 6249TIP3    H140162   0.690   5.845   1.518 -1.8612 -2.3487  0.1674
 6249TIP3    H240163   0.760   5.764   1.412  0.1538 -0.6905  0.1714
 6250TIP3   OH240164   1.928   1.531   3.347  0.4409 -0.1743 -0.2412
 6250TIP3    H140165   1.860   1.598   3.357  0.4381 -0.4122  1.5617
 6250TIP3    H240166   1.930   1.486   3.431  0.5578 -2.3694 -1.3712
 6251TIP3   OH240167   6.672   2.033   5.190  0.0683 -0.8049  0.5851
 6251TIP3    H140168   6.610   1.962   5.204  0.4359 -1.3374 -0.3898
 6251TIP3    H240169   6.751   1.990   5.156 -0.3557  0.2397 -1.9236
 6252TIP3   OH240170   3.983   2.620  11.694 -0.2085 -0.4421 -0.5075
 6252TIP3    H140171   3.935   2.598  11.774  2.6425  0.6517  1.6942
 6252TIP3    H240172   3.927   2.685  11.650 -1.4589 -0.3694  1.0811
 6253TIP3   OH240173   1.022   1.475  14.784 -0.1944 -0.4616  0.7380
 6253TIP3    H140174   1.085   1.475  14.711  0.1993 -1.5452  1.0615
 6253TIP3    H240175   1.071   1.438  14.857 -0.8837 -0.2772  1.2951
 6254TIP3   OH240176   6.610   6.181   3.580 -0.3344  0.2265  0.1661
 6254TIP3    H140177   6.596   6.237   3.503 -0.4996  0.2468  0.2122
 6254TIP3    H240178   6.631   6.243   3.651 -2.3876  0.3906  0.6846
 6255TIP3   OH240179   2.604   5.448   0.528  0.2143  0.4443 -0.2370
 6255TIP3    H140180   2.640   5.537   0.525 -0.9448  1.1793  3.1549
 6255TIP3    H240181   2.512   5.458   0.505  0.4793 -0.2568 -1.7250
 6256TIP3   OH240182   3.101   3.992  17.142 -0.2471 -0.1241 -0.0522
 6256TIP3    H140183   3.084   3.902  17.116 -1.5374 -0.4577  1.7658
 6256TIP3    H240184   3.184   3.988  17.191 -1.0537 -0.6280  1.3250
 6257TIP3   OH240185   3.732   0.532   1.328  0.1317 -0.6677  0.1310
 6257TIP3    H140186   3.641   0.504   1.339  0.2375 -0.8708  0.5278
 6257TIP3    H240187   3.731   0.590   1.252 -0.8024  1.4741  1.6714
 6258TIP3   OH240188   2.075   3.719  10.746 -0.1953  0.5494 -0.2289
 6258TIP3    H140189   2.096   3.788  10.683  0.2643  2.7961  2.2158
 6258TIP3    H240190   2.157   3.670  10.756  0.3526  1.5161  0.1544
 6259TIP3   OH240191   2.647   1.470   5.666  0.1292 -0.1474  0.2262
 6259TIP3    H140192   2.643   1.565   5.655  1.3828  0.0524  1.2479
 6259TIP3    H240193   2.721   1.442   5.611  0.8560 -0.2775  1.2323
 6260TIP3   OH240194   0.265   4.088  11.325  0.1762 -0.2987  0.0698
 6260TIP3    H140195   0.210   4.046  11.259  1.0747 -0.2865 -0.7147
 6260TIP3    H240196   0.318   4.150  11.275  0.8419 -0.2598  0.8090
 6261TIP3   OH240197   0.586   3.423   1.070  0.5044  0.4635 -0.3668
 6261TIP3    H140198   0.493   3.401   1.067  0.6309  0.0208 -2.0519
 6261TIP3    H240199   0.591   3.511   1.032  0.5622  1.4178  1.7363
 6262TIP3   OH240200   1.859   4.572  14.246  0.1102  0.6226  0.0031
 6262TIP3    H140201   1.871   4.511  14.318  1.3682  0.5074 -0.2793
 6262TIP3    H240202   1.879   4.658  14.283  1.4305  0.4884 -0.3450
 6263TIP3   OH240203   5.323   1.879  13.841  0.1067 -0.0534 -0.4225
 6263TIP3    H140204   5.365   1.844  13.761 -1.5437 -1.0360 -0.9108
 6263TIP3    H240205   5.261   1.945  13.809 -1.1516 -1.0222 -0.0687
 6264TIP3   OH240206   3.530   3.265   3.975 -0.0760 -0.1599 -0.4234
 6264TIP3    H140207   3.623   3.258   3.953 -0.4726 -1.0767 -2.0329
 6264TIP3    H240208   3.496   3.332   3.915 -0.6619 -0.6832 -0.6958
 6265TIP3   OH240209   4.076   4.091  15.983 -0.1848 -0.2763 -0.6279
 6265TIP3    H140210   4.132   4.137  15.922 -1.8381 -1.1319 -2.9423
 6265TIP3    H240211   4.017   4.158  16.017 -0.1375 -0.0227 -1.0400
 6266TIP3   OH240212   3.064   4.772   0.622  0.2289  0.3311 -0.1184
 6266TIP3    H140213   3.132   4.754   0.557 -0.2224  1.4003 -0.9286
 6266TIP3    H240214   2.982   4.749   0.578 -0.0085 -0.0077  0.4890
 6267TIP3   OH240215   0.512   1.590  11.431  0.2238  0.1130 -0.1454
 6267TIP3    H140216   0.457   1.658  11.393  0.7558 -0.2176 -1.5927
 6267TIP3    H240217   0.602   1.619  11.414  0.4701 -0.3544  0.3187
 6268TIP3   OH240218   2.938   0.964   0.602 -0.0137  0.3995  0.0783
 6268TIP3    H140219   2.843   0.968   0.607 -0.0507  0.4548 -0.5223
 6268TIP3    H240220   2.963   0.888   0.655 -0.3943  0.3482  0.1830
 6269TIP3   OH240221   3.709   0.099  12.084 -0.2113 -0.0179  0.2128
 6269TIP3    H140222   3.768   0.055  12.023 -0.7905 -1.0835  0.4127
 6269TIP3    H240223   3.763   0.167  12.124  0.8240 -0.8440  0.2432
 6270TIP3   OH240224   1.359   1.257  17.020 -0.0974  0.6967  0.3962
 6270TIP3    H140225   1.414   1.216  17.087  0.4603 -1.1645 -1.1222
 6270TIP3    H240226   1.417   1.267  16.944 -1.5603 -0.3961 -0.9292
 6271TIP3   OH240227   2.796   0.598  16.560 -0.0337  0.1846  0.2378
 6271TIP3    H140228   2.718   0.629  16.514 -0.5352 -2.3083 -0.7922
 6271TIP3    H240229   2.854   0.674  16.564 -2.0588  1.8382  0.0942
 6272TIP3   OH240230   4.661   1.561   2.632  0.0151  0.3007  0.1290
 6272TIP3    H140231   4.626   1.473   2.621  0.8492  0.1107 -1.2166
 6272TIP3    H240232   4.591   1.620   2.604 -0.7728  0.1173  1.6276
 6273TIP3   OH240233   6.170   3.960  10.689  0.2461 -0.1212  0.3432
 6273TIP3    H140234   6.258   3.922  10.682 -0.4187 -1.7705  0.3104
 6273TIP3    H240235   6.154   3.998  10.602  1.3324  1.2213  0.6967
 6274TIP3   OH240236   1.264   2.914  11.741  0.2940 -0.2633  0.2411
 6274TIP3    H140237   1.302   2.986  11.692 -1.9529 -0.3352 -1.7863
 6274TIP3    H240238   1.339   2.860  11.768  1.7064 -0.0957 -3.0037
 6275TIP3   OH240239   5.994   0.709  11.216 -0.0872  0.7560  0.3542
 6275TIP3    H140240   5.918   0.746  11.260  0.8390  3.0844  0.1530
 6275TIP3    H240241   5.967   0.699  11.125 -0.3393  0.9967  0.4040
 6276TIP3   OH240242   4.135   6.364  11.065  0.2804  0.4018 -0.0042
 6276TIP3    H140243   4.119   6.327  10.978 -1.3303  0.8819  0.0583
 6276TIP3    H240244   4.072   6.321  11.122  0.5797  0.8840  0.7110
 6277TIP3   OH240245   1.621   5.218  15.281 -0.8740 -0.1990 -0.3509
 6277TIP3    H140246   1.601   5.194  15.371 -1.1685 -0.2266 -0.4203
 6277TIP3    H240247   1.642   5.135  15.238  0.9795  0.0079  0.1039
 6278TIP3   OH240248   1.192   0.784   2.760  0.1065  0.3624 -0.0122
 6278TIP3    H140249   1.123   0.818   2.703 -0.0649 -0.8857 -0.5722
 6278TIP3    H240250   1.251   0.737   2.701  1.3829  1.2912  0.4790
 6279TIP3   OH240251   0.823   2.292  14.207 -0.1248  0.2630  0.3037
 6279TIP3    H140252   0.864   2.293  14.293  0.2684  1.2515  0.1179
 6279TIP3    H240253   0.896   2.295  14.145 -0.4251  0.2659 -0.0553
 6280TIP3   OH240254   6.332   5.494   2.792 -0.2512 -0.1094  0.0806
 6280TIP3    H140255   6.279   5.441   2.733 -0.5863  0.5968 -0.2686
 6280TIP3    H240256   6.379   5.554   2.735 -0.2691  0.3095  0.5012
 6281TIP3   OH240257   6.524   4.503   3.114 -0.3764  0.4406  0.6018
 6281TIP3    H140258   6.443   4.551   3.094 -0.0629  1.1529  0.9937
 6281TIP3    H240259   6.586   4.531   3.047  0.4958  2.3778  2.0997
 6282TIP3   OH240260   4.723   2.261  12.545  0.5313  0.4478 -0.0810
 6282TIP3    H140261   4.697   2.289  12.632  0.5286 -1.3261  0.5407
 6282TIP3    H240262   4.812   2.227  12.556  0.6860  0.5641 -0.8603
 6283TIP3   OH240263   0.775   1.336  17.096  0.2133 -0.1683 -0.6101
 6283TIP3    H140264   0.727   1.260  17.062  0.5165 -0.0791 -1.2536
 6283TIP3    H240265   0.813   1.377  17.018  1.0094 -0.0174 -0.1581
 6284TIP3   OH240266   5.013   3.927   3.926 -0.3721  0.2029  0.0246
 6284TIP3    H140267   5.013   3.851   3.868  2.3896 -1.1678  1.6782
 6284TIP3    H240268   5.050   3.997   3.872  2.1612 -1.0486 -0.0090
 6285TIP3   OH240269   5.502   6.083  16.089 -0.5442 -0.0830 -0.0630
 6285TIP3    H140270   5.426   6.112  16.140  0.4878  2.0606  0.3770
 6285TIP3    H240271   5.535   6.163  16.047  1.6850 -0.8631  0.0593
 6286TIP3   OH240272   3.725   2.277  14.916  0.4337 -0.1341  0.0183
 6286TIP3    H140273   3.789   2.339  14.950 -2.0622  2.8857 -0.3744
 6286TIP3    H240274   3.667   2.259  14.990 -0.2012 -0.1456 -0.4687
 6287TIP3   OH240275   0.912   3.466   3.468  0.3188 -0.0751  0.0876
 6287TIP3    H140276   0.987   3.415   3.500 -0.0366 -0.7145 -0.0825
 6287TIP3    H240277   0.841   3.402   3.462  0.1097  0.2510 -1.0277
 6288TIP3   OH240278   3.797   6.712   2.289  0.3186  0.0084  0.1991
 6288TIP3    H140279   3.854   6.639   2.314  2.4042  0.7356 -2.0392
 6288TIP3    H240280   3.857   6.780   2.260 -1.6630  1.7505 -0.0001
 6289TIP3   OH240281   6.144   5.619  12.020 -0.0944 -0.6824 -0.6542
 6289TIP3    H140282   6.179   5.699  11.981 -0.2144 -1.0133 -1.4394
 6289TIP3    H240283   6.215   5.555  12.012  0.6016 -0.2474  1.3945
 6290TIP3   OH240284   3.400   3.930  12.600 -0.0999  0.4328  0.1091
 6290TIP3    H140285   3.434   3.872  12.668 -0.7256 -1.3710 -1.0629
 6290TIP3    H240286   3.470   3.993  12.585  1.8963 -1.8294 -0.6618
 6291TIP3   OH240287   2.774   4.120   0.921  0.1857  0.0367  0.0439
 6291TIP3    H140288   2.833   4.059   0.878 -0.9059  0.0266 -1.5578
 6291TIP3    H240289   2.831   4.185   0.961  1.2889 -0.3097 -0.9058
 6292TIP3   OH240290   5.759   4.455  12.372  0.1775  0.0227 -0.2230
 6292TIP3    H140291   5.779   4.540  12.332  0.2968  0.8145  1.4034
 6292TIP3    H240292   5.663   4.453  12.378  0.2145  0.8899  1.3402
 6293TIP3   OH240293   5.486   0.383   0.816 -0.2867 -0.1375 -0.1608
 6293TIP3    H140294   5.407   0.329   0.821 -0.3790  0.1204  2.2043
 6293TIP3    H240295   5.467   0.447   0.747 -1.3006 -1.3245 -1.0291
 6294TIP3   OH240296   4.338   6.190  11.227 -0.7655 -0.2875  0.8460
 6294TIP3    H140297   4.252   6.182  11.184 -0.8706  0.0655  0.9860
 6294TIP3    H240298   4.397   6.217  11.156 -0.4809 -1.8471  0.4483
 6295TIP3   OH240299   2.458   3.978  15.390 -0.2642  0.4125  0.1192
 6295TIP3    H140300   2.481   3.898  15.343  0.8808  0.8464 -0.0872
 6295TIP3    H240301   2.473   4.048  15.326 -0.0378  0.8897  0.6855
 6296TIP3   OH240302   1.976   5.737  15.596 -0.2121  0.5152 -0.4963
 6296TIP3    H140303   2.005   5.751  15.505  1.4740  0.6964  0.0310
 6296TIP3    H240304   1.888   5.775  15.599 -1.6171 -2.1470 -2.7910
 6297TIP3   OH240305   2.908   2.976  12.590 -0.0076 -0.0251 -0.5317
 6297TIP3    H140306   2.997   2.971  12.626  0.3031 -0.7906 -1.3592
 6297TIP3    H240307   2.914   3.040  12.520 -0.2854  0.4401 -0.1367
 6298TIP3   OH240308   3.548   2.833  14.508 -0.2750  0.2339 -0.0410
 6298TIP3    H140309   3.639   2.819  14.534  0.7242  1.9902 -2.2655
 6298TIP3    H240310   3.545   2.806  14.417 -1.6961  1.2935 -0.3416
 6299TIP3   OH240311   5.706   6.670  11.708 -0.2484 -0.2382  0.0998
 6299TIP3    H140312   5.664   6.755  11.726 -2.2214 -1.2114  0.3011
 6299TIP3    H240313   5.698   6.658  11.614 -0.3916 -0.4117  0.1345
 6300TIP3   OH240314   4.470   2.483   3.027 -0.0514  0.0194  0.4812
 6300TIP3    H140315   4.388   2.480   2.978  0.3109  1.1827 -0.2337
 6300TIP3    H240316   4.514   2.401   3.004  0.4474  0.8488 -1.7831
 6301TIP3   OH240317   1.204   4.811   4.629 -0.0686  0.9731  0.1897
 6301TIP3    H140318   1.132   4.869   4.654 -1.4504  0.0495 -1.4230
 6301TIP3    H240319   1.281   4.868   4.625 -0.9152  2.1986  0.9341
 6302TIP3   OH240320   3.939   0.129  16.897  0.6427 -0.1737  0.1022
 6302TIP3    H140321   3.861   0.154  16.848  0.8407  1.0935  0.4014
 6302TIP3    H240322   3.940   0.033  16.894 -1.7096 -0.3127  1.3022
 6303TIP3   OH240323   1.766   2.409   6.768 -0.6001 -0.4865  0.0806
 6303TIP3    H140324   1.835   2.474   6.751 -1.5644  0.7345  0.7016
 6303TIP3    H240325   1.791   2.333   6.715  0.3203  0.5477 -1.0147
 6304TIP3   OH240326   0.250   1.121  12.409 -0.4945 -0.3169 -0.4089
 6304TIP3    H140327   0.258   1.110  12.503  0.5119 -1.2414 -0.5785
 6304TIP3    H240328   0.314   1.189  12.387 -0.7354 -0.0944 -0.4199
 6305TIP3   OH240329   2.269   0.892   6.586 -0.2926  0.1358  0.2920
 6305TIP3    H140330   2.262   0.807   6.542 -1.5557  1.1112 -1.5611
 6305TIP3    H240331   2.191   0.896   6.642 -0.0697 -0.0545  0.6148
 6306TIP3   OH240332   3.440   1.201   3.797 -0.2102 -0.1791  0.5329
 6306TIP3    H140333   3.378   1.242   3.736 -1.7245 -0.6141  1.7319
 6306TIP3    H240334   3.414   1.235   3.883  0.0753 -1.7369  1.2602
 6307TIP3   OH240335   3.215   2.208  15.020 -0.1932 -0.6904 -0.2157
 6307TIP3    H140336   3.249   2.119  15.027  1.0167 -0.1948  0.4814
 6307TIP3    H240337   3.139   2.209  15.078 -0.2572 -1.2788 -0.2839
 6308TIP3   OH240338   1.644   0.541   0.503  0.0848  0.5951  0.1026
 6308TIP3    H140339   1.659   0.632   0.478 -1.7166  0.2026 -2.8758
 6308TIP3    H240340   1.701   0.491   0.444 -1.4074 -0.2851 -0.6369
 6309TIP3   OH240341   2.357   4.031   5.681 -0.1994  0.4182 -0.1301
 6309TIP3    H140342   2.360   4.123   5.705  2.0108 -0.5298  4.0116
 6309TIP3    H240343   2.290   3.993   5.738 -0.5877 -0.7338 -1.2909
 6310TIP3   OH240344   4.681   2.509  13.020  0.4839 -0.0593 -0.1596
 6310TIP3    H140345   4.599   2.521  13.068 -0.2423  0.3863 -1.4518
 6310TIP3    H240346   4.679   2.577  12.953  1.2412 -0.9233 -1.0940
 6311TIP3   OH240347   0.993   1.037  16.122  0.4187  0.5343 -0.2147
 6311TIP3    H140348   0.985   1.085  16.204 -0.5701  2.3637 -1.3190
 6311TIP3    H240349   1.018   1.104  16.058  2.4026 -1.0576 -1.2070
 6312TIP3   OH240350   6.740   2.779   5.362  0.1126 -0.5537 -0.5715
 6312TIP3    H140351   6.676   2.751   5.428  0.4650 -2.6343 -1.0412
 6312TIP3    H240352   6.760   2.699   5.313  3.7094 -0.1926  0.0756
 6313TIP3   OH240353   5.465   6.747   1.711  0.0963 -0.3435 -0.0450
 6313TIP3    H140354   5.478   6.708   1.625 -0.2256 -0.6245  0.0299
 6313TIP3    H240355   5.537   6.712   1.764 -0.2320 -0.9081  0.0424
 6314TIP3   OH240356   0.178   0.882   3.616 -0.1063 -0.8846 -0.5771
 6314TIP3    H140357   0.255   0.833   3.644 -0.0609 -1.6292 -1.9267
 6314TIP3    H240358   0.209   0.972   3.602  0.2045 -0.8721  0.2028
 6315TIP3   OH240359   3.366   2.186  14.073  0.4706 -0.2401 -0.1351
 6315TIP3    H140360   3.425   2.144  14.011 -1.5121 -2.0327 -0.9078
 6315TIP3    H240361   3.303   2.234  14.019 -1.4143 -1.9967  0.3494
 6316TIP3   OH240362   2.465   0.677   0.971 -0.0790  0.2116  0.0143
 6316TIP3    H140363   2.374   0.651   0.963  0.3391 -1.3358 -0.0141
 6316TIP3    H240364   2.513   0.615   0.917  0.8737  1.9359 -1.2091
 6317TIP3   OH240365   3.642   6.732  12.533 -0.1221 -0.4150 -0.3006
 6317TIP3    H140366   3.590   6.750  12.454  2.7021 -0.0530 -2.2564
 6317TIP3    H240367   3.617   6.801  12.595 -3.5293 -1.5935 -0.1843
 6318TIP3   OH240368   1.489   3.154  15.042  0.4939  0.9560 -0.0494
 6318TIP3    H140369   1.421   3.188  14.984  0.7308 -1.1466 -1.6730
 6318TIP3    H240370   1.446   3.146  15.127 -0.4841  2.1282 -0.4081
 6319TIP3   OH240371   5.940   1.644   0.559  0.2703 -0.2922 -0.1142
 6319TIP3    H140372   5.891   1.726   0.555 -0.2651 -0.6174 -0.3870
 6319TIP3    H240373   6.023   1.667   0.602 -0.9389 -0.1284  2.3053
 6320TIP3   OH240374   6.266   3.802   5.294  0.0956 -0.1435 -0.2531
 6320TIP3    H140375   6.207   3.732   5.319 -0.5217 -0.4283 -2.2912
 6320TIP3    H240376   6.339   3.757   5.251  0.6598  0.3513  0.1724
 6321TIP3   OH240377   6.026   4.510  11.643 -0.4096 -0.3147  0.1857
 6321TIP3    H140378   6.112   4.497  11.605 -0.6048 -0.2906 -0.2674
 6321TIP3    H240379   6.031   4.596  11.685  0.0485 -0.6833  0.9000
 6322TIP3   OH240380   3.592   6.144  13.510 -0.3514  0.0087 -0.1447
 6322TIP3    H140381   3.627   6.083  13.445  0.5543 -0.8041  1.0533
 6322TIP3    H240382   3.641   6.225  13.496 -1.7090  0.5956 -1.8892
 6323TIP3   OH240383   3.633   0.441   4.504  0.2195  0.1923 -0.2806
 6323TIP3    H140384   3.719   0.419   4.468  0.7427  0.8814  0.4999
 6323TIP3    H240385   3.578   0.457   4.428  0.3980 -1.6278 -0.8232
 6324TIP3   OH240386   6.402   0.775   0.021 -0.0384 -0.1154  0.2428
 6324TIP3    H140387   6.495   0.754   0.019 -0.1805 -0.7511  0.2206
 6324TIP3    H240388   6.357   0.691   0.008 -0.6029  0.6311 -3.7708
 6325TIP3   OH240389   0.366   6.750   0.821 -0.2377 -0.4469  0.3548
 6325TIP3    H140390   0.449   6.783   0.857 -0.6144  0.1325  0.7059
 6325TIP3    H240391   0.393   6.689   0.752  0.5258  1.5015 -1.1986
 6326TIP3   OH240392   0.159   6.501   1.997 -0.5943 -0.5074 -0.5262
 6326TIP3    H140393   0.223   6.525   2.064  0.5917 -0.2060 -1.7244
 6326TIP3    H240394   0.156   6.577   1.939 -1.5677 -0.7791 -0.8527
 6327TIP3   OH240395   5.072   5.438   1.016 -0.2070  0.0026 -0.2940
 6327TIP3    H140396   5.161   5.468   0.999 -0.1736 -0.8381 -1.7835
 6327TIP3    H240397   5.024   5.460   0.937 -0.9526 -0.9129 -0.1118
 6328TIP3   OH240398   3.192   4.721   1.842  0.1048  0.4357 -0.0199
 6328TIP3    H140399   3.256   4.770   1.789  0.1192  1.5742  1.0205
 6328TIP3    H240400   3.124   4.697   1.779  0.4820  1.1144 -0.7225
 6329TIP3   OH240401   2.586   5.513  12.297 -0.0218 -0.4160  0.4548
 6329TIP3    H140402   2.660   5.569  12.316  0.7055 -0.5738 -1.6581
 6329TIP3    H240403   2.557   5.481  12.383  2.7819 -0.9168  1.3134
 6330TIP3   OH240404   1.886   0.486  13.544  0.2036 -0.5664 -0.1996
 6330TIP3    H140405   1.879   0.440  13.627  2.2598  0.6498  0.7274
 6330TIP3    H240406   1.810   0.544  13.542 -0.2772 -1.1547  0.4382
 6331TIP3   OH240407   4.737   0.792  16.007 -0.7293 -0.0441 -0.1216
 6331TIP3    H140408   4.776   0.878  16.027 -0.0581 -0.7624  1.8687
 6331TIP3    H240409   4.811   0.738  15.980 -1.2228  0.0998 -1.8528
 6332TIP3   OH240410   4.849   5.990  11.347  0.2755 -0.0492 -0.5037
 6332TIP3    H140411   4.891   5.976  11.263  0.1788  0.1275 -0.5822
 6332TIP3    H240412   4.757   5.967  11.332  0.6666 -2.3769  0.1641
 6333TIP3   OH240413   0.126   5.374   3.472 -0.0093 -0.2784 -0.4657
 6333TIP3    H140414   0.111   5.468   3.456 -2.0361 -0.0783  1.9733
 6333TIP3    H240415   0.169   5.371   3.557 -0.9295 -1.5701 -0.0257
 6334TIP3   OH240416   1.771   1.845  14.781  0.6103  0.3161  0.2892
 6334TIP3    H140417   1.830   1.769  14.785 -1.5133 -1.4325  0.7574
 6334TIP3    H240418   1.731   1.839  14.695 -0.2056  0.3680  0.6584
 6335TIP3   OH240419   0.542   5.868   0.646  0.1305  0.0824  0.3894
 6335TIP3    H140420   0.470   5.908   0.597 -0.4649 -0.1120  1.0803
 6335TIP3    H240421   0.592   5.943   0.680  1.4536  0.2342 -1.7456
 6336TIP3   OH240422   1.387   1.097   0.102  0.9673  0.7455 -0.0296
 6336TIP3    H140423   1.460   1.117   0.162  0.3709  0.1218  0.9369
 6336TIP3    H240424   1.362   1.007   0.125 -1.4629  1.6367  1.1463
 6337TIP3   OH240425   2.944   6.519  11.657 -0.0606 -0.3085  0.4339
 6337TIP3    H140426   2.892   6.450  11.697 -1.3992 -0.0685 -0.8069
 6337TIP3    H240427   3.020   6.474  11.619 -0.1488 -0.8783  0.9220
 6338TIP3   OH240428   1.489   2.312   3.062  0.6459  0.1256  0.3855
 6338TIP3    H140429   1.489   2.267   3.147 -2.3301  1.8817  1.4801
 6338TIP3    H240430   1.520   2.401   3.082 -1.4829  1.0069  0.0179
 6339TIP3   OH240431   3.936   0.410   3.733  0.1726 -0.1067  0.1862
 6339TIP3    H140432   3.944   0.321   3.768 -0.7498 -0.1074  0.3967
 6339TIP3    H240433   3.842   0.426   3.726  0.3282  0.4514 -0.8863
 6340TIP3   OH240434   1.179   0.722   2.385 -0.2561  0.3308  0.1945
 6340TIP3    H140435   1.159   0.813   2.361  0.3031  0.6911  1.0325
 6340TIP3    H240436   1.267   0.727   2.424  0.5420 -0.8445 -1.3699
 6341TIP3   OH240437   0.282   5.319  17.009 -0.1799  0.3006 -0.4576
 6341TIP3    H140438   0.306   5.335  17.100  0.7982 -0.8370 -0.4801
 6341TIP3    H240439   0.235   5.397  16.981  0.6190  1.1959  0.6430
 6342TIP3   OH240440   1.227   2.740  15.845 -0.4731  0.0680  0.0042
 6342TIP3    H140441   1.301   2.775  15.895 -0.0556 -0.0673 -0.5126
 6342TIP3    H240442   1.221   2.648  15.872  1.1496 -0.6320 -1.7650
 6343TIP3   OH240443   4.289   3.298   5.003 -0.2434  0.0945  0.1499
 6343TIP3    H140444   4.268   3.391   5.003  0.2893  0.3504  3.4140
 6343TIP3    H240445   4.296   3.275   4.911 -1.1103  3.0963 -0.7895
 6344TIP3   OH240446   4.461   1.036   1.136  0.5821 -0.3708 -0.3433
 6344TIP3    H140447   4.539   1.039   1.191  0.9767 -0.1288 -0.8979
 6344TIP3    H240448   4.411   0.962   1.168  0.9579 -0.4186  0.1351
 6345TIP3   OH240449   1.315   0.685  13.950  0.9772 -0.0057  0.6289
 6345TIP3    H140450   1.382   0.753  13.958  0.3536  0.5893  0.8786
 6345TIP3    H240451   1.237   0.724  13.988 -0.0794  0.0843 -1.5210
 6346TIP3   OH240452   6.099   1.744  16.629 -0.0068 -0.2679 -0.3560
 6346TIP3    H140453   6.095   1.839  16.636  0.3068 -0.2311 -0.6337
 6346TIP3    H240454   6.028   1.722  16.568 -1.0506 -0.3555  0.8619
 6347TIP3   OH240455   5.054   3.891   4.423  0.0718  0.1168 -0.0914
 6347TIP3    H140456   5.120   3.947   4.383  1.8112 -2.7746 -1.6372
 6347TIP3    H240457   4.986   3.882   4.357 -1.0928  1.6964  0.8310
 6348TIP3   OH240458   2.424   3.136   3.249 -0.3719 -0.4617  0.3845
 6348TIP3    H140459   2.386   3.090   3.174 -0.5558  2.2345 -1.2927
 6348TIP3    H240460   2.519   3.123   3.240 -0.2219  1.3817 -1.5327
 6349TIP3   OH240461   2.137   6.122  16.430 -0.3112 -0.3298 -0.3559
 6349TIP3    H140462   2.074   6.056  16.459 -0.1083 -0.2379  0.3214
 6349TIP3    H240463   2.084   6.186  16.381 -0.8632  0.0486  0.6913
 6350TIP3   OH240464   6.109   2.388   6.156 -0.5423 -0.5192  0.3247
 6350TIP3    H140465   6.077   2.320   6.215 -1.6080 -1.6675 -1.4770
 6350TIP3    H240466   6.041   2.395   6.089 -1.1112  3.2182  1.0362
 6351TIP3   OH240467   0.570   2.889   3.282  0.2446 -0.0870 -0.0577
 6351TIP3    H140468   0.658   2.926   3.279  0.2200  0.1004  1.0552
 6351TIP3    H240469   0.544   2.880   3.190  1.6286 -0.6393 -0.4180
 6352TIP3   OH240470   5.328   4.320  14.357 -0.3267  0.0809  0.4556
 6352TIP3    H140471   5.234   4.303  14.354 -0.3847  0.4743 -0.0568
 6352TIP3    H240472   5.360   4.264  14.427 -0.8668 -0.4306  0.3022
 6353TIP3   OH240473   0.970   2.087   2.467  0.2490  0.0452 -0.2719
 6353TIP3    H140474   0.942   2.000   2.438  1.4616 -0.2870 -0.5145
 6353TIP3    H240475   0.990   2.134   2.386  1.2749 -0.0544 -0.0974
 6354TIP3   OH240476   0.551   3.949  14.353 -0.1132  0.0584  0.2880
 6354TIP3    H140477   0.554   4.030  14.303 -1.1408 -0.3899 -0.5513
 6354TIP3    H240478   0.561   3.880  14.288  0.1614 -0.5029  0.9131
 6355TIP3   OH240479   1.489   4.019  11.880 -0.0226  0.4526 -0.1737
 6355TIP3    H140480   1.491   3.950  11.945 -1.8370  0.5696  0.0800
 6355TIP3    H240481   1.400   4.056  11.887  0.0509  1.1178 -2.0192
 6356TIP3   OH240482   2.529   0.507   0.415  0.0644  0.1036  0.3711
 6356TIP3    H140483   2.605   0.455   0.391  1.0876  1.7099 -0.0370
 6356TIP3    H240484   2.469   0.445   0.457  1.0848 -1.4248 -0.3557
 6357TIP3   OH240485   3.206   6.731  13.305  0.4084 -0.0983  0.2071
 6357TIP3    H140486   3.113   6.732  13.324  0.4169  3.6056  0.8153
 6357TIP3    H240487   3.217   6.662  13.239 -2.9193  0.0729 -0.6650
 6358TIP3   OH240488   6.517   4.459   3.867  0.1000  0.3538  0.3498
 6358TIP3    H140489   6.495   4.453   3.774 -0.9737  0.2579  0.5917
 6358TIP3    H240490   6.613   4.459   3.870  0.1541 -0.8275 -0.6805
 6359TIP3   OH240491   1.623   3.182   2.676  0.5123 -0.0438  0.2562
 6359TIP3    H140492   1.582   3.249   2.620  0.4333  1.0138  1.5306
 6359TIP3    H240493   1.566   3.178   2.753  0.8888 -1.1132  0.4827
 6360TIP3   OH240494   4.302   0.830   3.262  0.1589  0.0991  0.1036
 6360TIP3    H140495   4.234   0.815   3.328 -0.2601 -0.6355 -0.4822
 6360TIP3    H240496   4.254   0.842   3.181  0.7174  0.0825 -0.2335
 6361TIP3   OH240497   1.947   0.517  11.758 -0.5587 -0.0216  0.1655
 6361TIP3    H140498   1.987   0.488  11.677 -0.9195  1.0884 -0.4349
 6361TIP3    H240499   1.853   0.505  11.744 -0.6583  0.6544  0.2085
 6362TIP3   OH240500   4.202   2.165   2.704 -0.2213  0.0061  0.6613
 6362TIP3    H140501   4.195   2.070   2.711 -1.0180  0.1423  2.0806
 6362TIP3    H240502   4.287   2.186   2.742 -0.0375 -0.1353  0.3323
 6363TIP3   OH240503   4.755   0.965   2.911  0.0022 -0.2377 -0.3934
 6363TIP3    H140504   4.750   1.034   2.978 -0.0002 -0.5296 -0.0901
 6363TIP3    H240505   4.729   0.885   2.957  2.6168 -0.9514 -0.0428
 6364TIP3   OH240506   0.433   0.059   3.983 -0.6228 -0.6722  0.4582
 6364TIP3    H140507   0.351   0.055   3.934 -0.2291  2.4840 -0.7071
 6364TIP3    H240508   0.407   0.082   4.072 -1.0493 -0.3605  0.2577
 6365TIP3   OH240509   4.652   3.354  11.279 -0.1076 -0.4430  0.8635
 6365TIP3    H140510   4.611   3.290  11.337  0.8223 -0.6820  1.2653
 6365TIP3    H240511   4.702   3.301  11.217 -2.6170 -0.3418 -1.4760
 6366TIP3   OH240512   0.535   1.566  12.228  0.2512  0.3650  0.1720
 6366TIP3    H140513   0.620   1.544  12.190 -0.0443 -0.5805  0.0258
 6366TIP3    H240514   0.482   1.594  12.154  0.1319 -0.0196  0.1113
 6367TIP3   OH240515   2.715   0.536   4.837 -0.0397  0.1547  0.3617
 6367TIP3    H140516   2.745   0.611   4.889 -1.4568  0.1135  1.3066
 6367TIP3    H240517   2.623   0.555   4.819  0.1091 -0.4330 -1.1184
 6368TIP3   OH240518   6.368   1.344   2.304  0.0457  0.0472  0.0575
 6368TIP3    H140519   6.390   1.398   2.229 -0.7206  3.6053  2.1722
 6368TIP3    H240520   6.276   1.321   2.292 -0.0941  0.6667 -0.0657
 6369TIP3   OH240521   0.820   2.640  15.071 -0.3335  0.5968 -0.3519
 6369TIP3    H140522   0.840   2.563  15.018  0.0106  0.3827  0.0811
 6369TIP3    H240523   0.837   2.714  15.012 -0.1387  0.3571 -0.5997
 6370TIP3   OH240524   6.314   4.225  10.853  0.5666 -0.2301 -0.4361
 6370TIP3    H140525   6.223   4.232  10.822  0.5653  1.0657 -0.1776
 6370TIP3    H240526   6.361   4.294  10.806  1.3639 -0.6976 -0.3391
 6371TIP3   OH240527   2.570   0.861  16.295 -0.6449 -0.0344 -0.1171
 6371TIP3    H140528   2.576   0.777  16.340 -1.7739 -1.4197 -2.3914
 6371TIP3    H240529   2.483   0.894  16.317  0.0401  0.9240  1.3062
 6372TIP3   OH240530   4.489   5.848   4.104  0.0385 -0.2250 -0.5244
 6372TIP3    H140531   4.461   5.756   4.103 -0.2276 -0.1369 -1.0033
 6372TIP3    H240532   4.410   5.898   4.085 -0.9697  0.4384  4.0712
 6373TIP3   OH240533   1.175   2.442   2.291  0.3953  0.3500  0.3389
 6373TIP3    H140534   1.245   2.469   2.231  0.2222 -0.5308 -0.2864
 6373TIP3    H240535   1.124   2.521   2.307  0.1062  0.4846 -1.1514
 6374TIP3   OH240536   6.563   0.359  16.267  0.1179  0.0425  0.1002
 6374TIP3    H140537   6.485   0.329  16.220 -0.5725 -0.5907  1.5973
 6374TIP3    H240538   6.531   0.382  16.354  1.7444 -1.0721  1.0265
 6375TIP3   OH240539   3.981   0.597  15.027 -0.1082 -0.7769 -0.2353
 6375TIP3    H140540   3.992   0.553  15.111 -2.2436 -1.5298 -0.2681
 6375TIP3    H240541   3.929   0.535  14.975 -0.3232  0.4105 -1.4783
 6376TIP3   OH240542   1.432   4.060   0.244  0.1118  0.5787 -0.5029
 6376TIP3    H140543   1.466   4.036   0.158 -0.3605  1.3104 -0.8985
 6376TIP3    H240544   1.338   4.070   0.232  0.1601  1.6825 -0.1535
 6377TIP3   OH240545   2.629   6.265  14.312 -0.0071 -0.7058  0.1370
 6377TIP3    H140546   2.640   6.319  14.390  0.1230 -0.5251 -0.0068
 6377TIP3    H240547   2.616   6.177  14.346  0.0084 -0.6206  0.3653
 6378TIP3   OH240548   2.904   5.946  12.184  0.2979 -0.4430  0.1082
 6378TIP3    H140549   2.886   5.860  12.147  0.7135 -1.2237  1.6799
 6378TIP3    H240550   2.820   5.976  12.219  0.1010 -0.0806 -0.6411
 6379TIP3   OH240551   6.357   0.410   6.262 -0.8127  0.4317 -0.0307
 6379TIP3    H140552   6.384   0.399   6.353  1.1443 -0.8455 -0.6914
 6379TIP3    H240553   6.273   0.365   6.256 -1.7580  1.8999  1.4575
 6380TIP3   OH240554   1.833   0.150  14.697  0.1086 -0.3438 -0.8215
 6380TIP3    H140555   1.880   0.123  14.618  1.3323 -1.0861  0.1297
 6380TIP3    H240556   1.902   0.171  14.760 -0.8332 -1.0535  0.4965
 6381TIP3   OH240557   3.202   5.514   0.197 -0.4910  0.5506  0.0421
 6381TIP3    H140558   3.109   5.536   0.202 -0.6008 -0.1923  1.8444
 6381TIP3    H240559   3.204   5.424   0.164 -0.4469  0.3801  0.5034
 6382TIP3   OH240560   1.781   3.060  13.613 -0.5187  0.1265 -0.3260
 6382TIP3    H140561   1.714   3.075  13.547 -1.7079  1.4721  1.1105
 6382TIP3    H240562   1.743   3.093  13.694 -0.1700 -3.6450  1.6348
 6383TIP3   OH240563   0.928   0.146   2.773 -0.0442  0.4294 -0.4389
 6383TIP3    H140564   0.894   0.185   2.692 -1.0365 -0.4618 -0.4577
 6383TIP3    H240565   1.006   0.198   2.792 -0.1283  1.0448 -1.6385
 6384TIP3   OH240566   6.169   3.042  12.933 -0.0828 -0.5953  0.1719
 6384TIP3    H140567   6.239   3.010  12.876  0.1702  0.6536 -0.2628
 6384TIP3    H240568   6.146   2.967  12.987 -0.6597 -1.9762 -1.8771
 6385TIP3   OH240569   4.990   5.688   1.159 -0.0452 -0.6282  0.0934
 6385TIP3    H140570   4.991   5.708   1.253  0.6233 -1.9028  0.3789
 6385TIP3    H240571   4.992   5.593   1.155  1.4896 -0.5797 -1.2212
 6386TIP3   OH240572   1.734   0.505  16.877  0.3286 -0.2990 -0.4074
 6386TIP3    H140573   1.647   0.541  16.857  0.6358  0.7382  0.0327
 6386TIP3    H240574   1.728   0.477  16.969  1.3091  2.6795  0.6955
 6387TIP3   OH240575   5.606   4.569   1.844  0.1449 -0.4325 -0.4589
 6387TIP3    H140576   5.661   4.491   1.836  1.0526 -0.2668  2.7501
 6387TIP3    H240577   5.546   4.548   1.916 -1.0955  1.0250 -1.0241
 6388TIP3   OH240578   1.374   2.125  12.968 -0.8005  0.1149  0.0693
 6388TIP3    H140579   1.433   2.134  12.894 -0.9769  0.5816 -0.0134
 6388TIP3    H240580   1.349   2.214  12.991  1.4981  0.2674  2.5091
 6389TIP3   OH240581   3.983   0.504  12.622  0.1223 -0.1951 -0.1025
 6389TIP3    H140582   3.974   0.410  12.605  0.2171  0.0438 -1.6642
 6389TIP3    H240583   3.894   0.538  12.613  0.3579  0.1222 -1.4861
 6390TIP3   OH240584   3.360   5.428   5.531  0.2054  0.6817 -0.2991
 6390TIP3    H140585   3.284   5.447   5.476  1.0127  0.2642 -1.6099
 6390TIP3    H240586   3.341   5.473   5.613 -0.6063  2.1856 -1.2411
 6391TIP3   OH240587   4.674   1.162  11.643  0.1653  0.4261  0.3902
 6391TIP3    H140588   4.740   1.134  11.580  0.4699  1.5378  0.1820
 6391TIP3    H240589   4.591   1.128  11.609  0.5668 -0.6435  0.4422
 6392TIP3   OH240590   5.674   1.737  11.512 -0.2541 -0.2651 -0.1761
 6392TIP3    H140591   5.696   1.785  11.433 -1.3078 -0.2457 -0.4635
 6392TIP3    H240592   5.646   1.651  11.481 -1.0731 -0.1178  0.1409
 6393TIP3   OH240593   0.063   6.700   0.421  0.0336  0.6152 -0.4491
 6393TIP3    H140594   0.067   6.630   0.486 -1.2283  1.2539  0.3663
 6393TIP3    H240595   0.088   6.779   0.469  1.1508  0.7947 -1.2857
 6394TIP3   OH240596   0.577   3.445   3.407 -0.3978  0.0595  0.4086
 6394TIP3    H140597   0.570   3.451   3.502 -2.7405 -0.8224  0.3525
 6394TIP3    H240598   0.593   3.352   3.390 -0.1319  0.1865 -0.0833
 6395TIP3   OH240599   4.254   1.286  13.992  0.0192  0.4427 -0.5029
 6395TIP3    H140600   4.308   1.344  14.046 -0.2891 -1.6638  2.2452
 6395TIP3    H240601   4.317   1.234  13.942  0.4470  0.1036  0.3724
 6396TIP3   OH240602   4.916   2.499   1.576 -0.1097 -0.0259  0.2305
 6396TIP3    H140603   4.964   2.539   1.648  1.4542 -0.5495 -0.4945
 6396TIP3    H240604   4.920   2.564   1.505  0.4447 -0.5029 -0.1808
 6397TIP3   OH240605   6.210   2.506  11.994 -0.2385 -0.0011 -0.2632
 6397TIP3    H140606   6.115   2.513  12.000 -0.0601  1.4680  1.5018
 6397TIP3    H240607   6.234   2.570  11.927 -0.3732  0.8935  0.5269
 6398TIP3   OH240608   2.943   1.117   5.112 -0.3886  0.5902 -0.1964
 6398TIP3    H140609   2.882   1.086   5.179 -0.3426  2.9345  1.0331
 6398TIP3    H240610   3.030   1.098   5.148 -0.3689  0.4460 -0.3191
 6399TIP3   OH240611   3.428   0.384   0.726  0.9462  0.0240  0.1310
 6399TIP3    H140612   3.490   0.312   0.733  1.1057 -0.0424 -1.5312
 6399TIP3    H240613   3.476   0.452   0.678  0.7402  1.1960  1.5101
 6400TIP3   OH240614   0.502   3.492   0.699 -0.2566 -0.0624  0.0107
 6400TIP3    H140615   0.455   3.415   0.731  0.0728  0.7416  2.7527
 6400TIP3    H240616   0.595   3.471   0.715 -0.1682  0.8696  0.8268
 6401TIP3   OH240617   1.055   1.293  16.881 -0.2293 -0.2599  0.0941
 6401TIP3    H140618   1.005   1.211  16.889  0.8500 -0.8889  0.6746
 6401TIP3    H240619   1.108   1.297  16.961  1.5735 -0.2904 -1.0256
 6402TIP3   OH240620   5.541   4.215  14.031 -0.2171 -0.1548 -0.4437
 6402TIP3    H140621   5.534   4.288  14.092 -0.2118 -0.0069 -0.6181
 6402TIP3    H240622   5.469   4.228  13.969 -1.6649 -1.5502  0.8363
 6403TIP3   OH240623   5.723   1.155   2.504  0.1225 -0.3205 -0.0822
 6403TIP3    H140624   5.813   1.131   2.523 -0.3265 -1.0157  1.2910
 6403TIP3    H240625   5.715   1.245   2.535  0.0569 -0.6317  0.8292
 6404TIP3   OH240626   3.289   4.736  17.305 -0.2304  0.3101 -0.1917
 6404TIP3    H140627   3.378   4.760  17.278  0.0721 -2.0454 -1.5840
 6404TIP3    H240628   3.234   4.806  17.271  1.0799  1.9815  0.9677
 6405TIP3   OH240629   0.313   0.885  15.447  0.3201  0.3285 -0.5086
 6405TIP3    H140630   0.364   0.927  15.378 -0.7883  1.9120 -0.4209
 6405TIP3    H240631   0.228   0.928  15.443 -0.3038 -0.7185  0.7740
 6406TIP3   OH240632   1.125   4.549  11.446  0.2083  0.0971  0.7385
 6406TIP3    H140633   1.160   4.615  11.505  1.2997  0.1844  0.0199
 6406TIP3    H240634   1.201   4.517  11.397 -0.6635  0.1533 -0.7327
 6407TIP3   OH240635   3.068   4.697   2.067 -0.4483 -0.1775 -0.7027
 6407TIP3    H140636   3.089   4.607   2.092 -0.6883 -0.5943 -1.9068
 6407TIP3    H240637   3.127   4.716   1.994  1.0421  1.3985  0.8067
 6408TIP3   OH240638   4.433   3.639   1.943  0.5135 -0.2023 -0.1828
 6408TIP3    H140639   4.512   3.626   1.891  1.2095 -0.2192  0.8519
 6408TIP3    H240640   4.459   3.701   2.012  0.0116 -1.2063  0.9523
 6409TIP3   OH240641   4.711   1.496  14.488  0.1068  0.3749  0.5443
 6409TIP3    H140642   4.750   1.467  14.571 -0.7322 -0.2514  0.7362
 6409TIP3    H240643   4.633   1.544  14.514 -0.9403 -1.0167  0.1188
 6410TIP3   OH240644   5.240   1.561  10.268 -0.1647 -0.3880  0.0781
 6410TIP3    H140645   5.296   1.499  10.314 -0.4394 -1.9447 -1.5409
 6410TIP3    H240646   5.151   1.533  10.289 -0.3604  1.2013  1.5180
 6411TIP3   OH240647   1.371   5.701   3.931 -0.0428  0.6376  0.3577
 6411TIP3    H140648   1.359   5.756   4.008 -1.4735 -1.7570  1.9528
 6411TIP3    H240649   1.435   5.635   3.958  0.2988  0.4226 -0.9122
 6412TIP3   OH240650   5.128   5.168   3.531 -0.2508 -0.5672 -0.0638
 6412TIP3    H140651   5.197   5.233   3.543 -1.6914  1.4351 -1.7595
 6412TIP3    H240652   5.172   5.084   3.539  2.2293  0.6176 -0.3301
 6413TIP3   OH240653   3.649   0.811  11.917  0.1225  0.6746 -0.1389
 6413TIP3    H140654   3.680   0.831  12.005  0.1480  0.8646 -0.1892
 6413TIP3    H240655   3.631   0.897  11.878 -0.2188  0.5767 -0.2002
 6414TIP3   OH240656   5.228   2.044   1.983 -0.4320  0.6471 -0.1669
 6414TIP3    H140657   5.142   2.085   1.974  0.1392  1.6563 -1.2763
 6414TIP3    H240658   5.210   1.950   1.987 -1.8532  0.9008  3.2341
 6415TIP3   OH240659   6.423   1.678  10.765 -0.3255  0.7441  0.1209
 6415TIP3    H140660   6.445   1.621  10.691  0.6790  0.8536  0.3178
 6415TIP3    H240661   6.495   1.741  10.769 -1.3548  1.9474 -0.0038
 6416TIP3   OH240662   2.067   1.792  12.152 -0.4104 -0.6287 -0.0671
 6416TIP3    H140663   2.105   1.761  12.069  2.0371  1.6553  0.0723
 6416TIP3    H240664   1.987   1.837  12.126  0.1112 -0.2966 -1.1926
 6417TIP3   OH240665   0.462   5.032  15.037  0.6360  0.2701 -0.4037
 6417TIP3    H140666   0.416   4.993  14.962  1.6270 -0.0812 -0.8499
 6417TIP3    H240667   0.432   5.123  15.039 -0.1158  0.0378 -0.6419
 6418TIP3   OH240668   2.872   0.093  13.323  1.0017 -0.2014  0.2762
 6418TIP3    H140669   2.865   0.073  13.230 -0.4971 -1.6172  0.6449
 6418TIP3    H240670   2.794   0.146  13.342 -0.4340 -2.5088  1.2817
 6419TIP3   OH240671   0.450   6.741  15.956 -0.2474  0.0153 -0.3062
 6419TIP3    H140672   0.439   6.806  16.025  0.6573 -1.3068  1.1436
 6419TIP3    H240673   0.393   6.669  15.981 -1.1537  0.1572 -1.8288
 6420TIP3   OH240674   0.114   4.500  15.018 -0.2907  0.2334  0.2986
 6420TIP3    H140675   0.054   4.557  14.971  0.4981  1.2009  0.4318
 6420TIP3    H240676   0.087   4.506  15.109  1.0832  2.1455  0.6529
 6421TIP3   OH240677   6.677   2.597  12.699  0.1996  0.2213  0.4439
 6421TIP3    H140678   6.675   2.539  12.623  0.7318  0.4725  0.2373
 6421TIP3    H240679   6.709   2.541  12.770  1.9872  0.5675 -0.0402
 6422TIP3   OH240680   2.026   6.671   1.536 -0.5313  0.1041  0.3413
 6422TIP3    H140681   2.025   6.651   1.442 -0.5752 -0.2813  0.4213
 6422TIP3    H240682   1.990   6.759   1.542 -0.6669  0.0748  0.0069
 6423TIP3   OH240683   0.845   6.070   0.915  0.2922 -0.2321 -0.0070
 6423TIP3    H140684   0.850   6.157   0.875 -0.6789 -0.2563 -0.1946
 6423TIP3    H240685   0.934   6.054   0.948  0.4439  0.8797  0.1551
 6424TIP3   OH240686   6.068   3.997   5.478  0.1666  0.5288 -0.8490
 6424TIP3    H140687   6.104   4.086   5.488  2.7113 -0.2481 -2.2312
 6424TIP3    H240688   6.083   3.976   5.386 -1.6919 -0.8581 -0.8844
 6425TIP3   OH240689   4.179   2.908  15.873  0.1110 -0.5041 -0.1234
 6425TIP3    H140690   4.139   2.825  15.897  0.1160 -0.4212  0.1716
 6425TIP3    H240691   4.130   2.936  15.796 -0.7133 -0.1804  0.4967
 6426TIP3   OH240692   2.675   5.574   1.188  0.0333 -0.2821 -0.3907
 6426TIP3    H140693   2.706   5.576   1.279  0.2496  0.8142 -0.4726
 6426TIP3    H240694   2.581   5.591   1.195 -0.5459 -3.0039 -0.1902
 6427TIP3   OH240695   2.028   6.551   2.090 -0.3118 -0.0270 -0.2194
 6427TIP3    H140696   2.081   6.546   2.010  0.4870  2.2487  0.0939
 6427TIP3    H240697   1.963   6.618   2.071 -0.4248  0.1815  0.8621
 6428TIP3   OH240698   0.684   0.059  12.254  0.0021 -0.5430 -0.2818
 6428TIP3    H140699   0.670   0.149  12.282 -2.0320  0.3578 -3.6249
 6428TIP3    H240700   0.672   0.007  12.334 -1.0886  1.9492  1.3048
 6429TIP3   OH240701   3.337   3.700   5.022  0.0731 -0.2865  0.6214
 6429TIP3    H140702   3.331   3.702   4.927  1.7972  0.3836  0.4806
 6429TIP3    H240703   3.287   3.776   5.052  2.0896  1.3712  0.0089
 6430TIP3   OH240704   5.846   2.262   1.796  0.5738  0.5906  0.0844
 6430TIP3    H140705   5.850   2.285   1.889  1.5607  0.4824  0.0782
 6430TIP3    H240706   5.920   2.202   1.783 -2.1577 -3.2121  0.2418
 6431TIP3   OH240707   2.280   5.775   0.523 -0.8120 -0.0075 -0.5638
 6431TIP3    H140708   2.270   5.682   0.503  0.5986 -0.3907  0.3935
 6431TIP3    H240709   2.335   5.809   0.453  0.2661 -0.3323  0.1065
 6432TIP3   OH240710   1.298   5.763   6.078  0.4204  0.4668 -0.2539
 6432TIP3    H140711   1.288   5.850   6.040 -1.1854  1.0020  1.2506
 6432TIP3    H240712   1.293   5.704   6.003 -0.6155  1.5696 -1.1075
 6433TIP3   OH240713   5.808   3.192   1.640 -0.6383 -0.2761  0.0963
 6433TIP3    H140714   5.745   3.120   1.635 -0.7652 -0.2423  1.0717
 6433TIP3    H240715   5.755   3.271   1.631 -0.8921 -0.2079  1.7705
 6434TIP3   OH240716   2.591   2.696   0.149  0.2093 -0.0198 -0.3009
 6434TIP3    H140717   2.583   2.789   0.128  0.2949 -0.0412 -0.4233
 6434TIP3    H240718   2.501   2.664   0.152  0.1134  0.3057  0.7991
 6435TIP3   OH240719   5.510   3.354  14.716 -0.6003 -0.0425 -0.7027
 6435TIP3    H140720   5.508   3.446  14.689 -0.1663  0.1447 -0.1147
 6435TIP3    H240721   5.476   3.354  14.805  1.7219 -0.0836  0.2641
 6436TIP3   OH240722   5.407   4.283  13.601 -0.3451  0.5863 -0.4352
 6436TIP3    H140723   5.404   4.375  13.572  2.0333  0.3811 -1.6103
 6436TIP3    H240724   5.362   4.235  13.531  1.0792  0.6064 -1.4218
 6437TIP3   OH240725   1.680   5.664  13.989  0.0472  0.6866  0.0404
 6437TIP3    H140726   1.762   5.689  14.032  0.6677 -0.9932 -0.1118
 6437TIP3    H240727   1.669   5.729  13.920  2.3761 -0.1953 -1.2941
 6438TIP3   OH240728   5.278   6.689  16.302  0.0432  0.1440  0.1960
 6438TIP3    H140729   5.357   6.691  16.248  0.3169  0.5315  0.6084
 6438TIP3    H240730   5.310   6.692  16.392 -0.2841 -2.5667  0.4915
 6439TIP3   OH240731   5.780   0.947  13.786 -0.6673 -0.0375  0.3514
 6439TIP3    H140732   5.767   0.933  13.880  1.2100 -0.0755  0.6299
 6439TIP3    H240733   5.864   0.992  13.779 -0.3778 -0.7489 -1.3588
 6440TIP3   OH240734   2.191   3.409   2.665  0.5814 -0.4637 -0.3924
 6440TIP3    H140735   2.150   3.495   2.665 -0.1313 -0.7850  0.2936
 6440TIP3    H240736   2.222   3.396   2.576  0.3458  0.3363 -0.5946
 6441TIP3   OH240737   2.551   4.663   0.139  0.1225 -0.0242  0.0090
 6441TIP3    H140738   2.628   4.671   0.083 -0.3885  1.0759 -0.5640
 6441TIP3    H240739   2.586   4.645   0.226  0.9534 -1.0256 -0.5068
 6442TIP3   OH240740   4.860   5.883   0.987 -0.6103 -0.0721 -0.5723
 6442TIP3    H140741   4.909   5.814   1.032 -2.5855 -0.6641  0.8086
 6442TIP3    H240742   4.779   5.840   0.958 -2.4481  1.8289  1.3729
 6443TIP3   OH240743   3.989   0.657  11.949  0.9735 -0.1370  0.0247
 6443TIP3    H140744   3.917   0.655  11.886  1.2708  0.9303 -0.3608
 6443TIP3    H240745   4.066   0.631  11.899  1.3813  1.6175 -0.3157
 6444TIP3   OH240746   4.289   4.082   4.079  0.6170  0.0727  0.1290
 6444TIP3    H140747   4.194   4.075   4.072  0.7297 -1.6361  0.0602
 6444TIP3    H240748   4.311   4.038   4.161  1.3871  0.2273  0.0168
 6445TIP3   OH240749   0.044   5.108   3.856 -0.1226 -0.0489  0.4345
 6445TIP3    H140750  -0.033   5.146   3.813 -0.2578  1.2082  1.7163
 6445TIP3    H240751   0.080   5.047   3.791  0.8730  3.1635 -2.3411
 6446TIP3   OH240752   4.206   2.602   3.671  0.4346 -0.4050 -0.5568
 6446TIP3    H140753   4.214   2.584   3.577 -0.5184  1.1738 -0.9734
 6446TIP3    H240754   4.190   2.516   3.710  3.4431 -1.5070 -1.4513
 6447TIP3   OH240755   0.424   2.402   4.781  0.0255 -0.3931  0.6189
 6447TIP3    H140756   0.329   2.403   4.789  0.2170  1.0239  4.2053
 6447TIP3    H240757   0.444   2.476   4.723 -1.0269 -2.3020 -2.4204
 6448TIP3   OH240758   4.709   0.018   1.819  0.5361  0.5039 -0.2108
 6448TIP3    H140759   4.666  -0.005   1.738  0.8338  0.4479 -0.3559
 6448TIP3    H240760   4.801   0.031   1.795  1.1272 -1.8327  0.5058
 6449TIP3   OH240761   1.159   1.759  14.232  0.1663  0.5323 -0.2389
 6449TIP3    H140762   1.197   1.743  14.319 -0.3062 -2.0478 -0.4244
 6449TIP3    H240763   1.218   1.716  14.171 -0.1571  1.2602 -1.0905
 6450TIP3   OH240764   3.469   5.625   0.250  0.1400  0.1672  0.1473
 6450TIP3    H140765   3.487   5.551   0.307  0.2332 -0.0458 -0.1529
 6450TIP3    H240766   3.379   5.611   0.221  0.0076  0.4068  0.4324
 6451TIP3   OH240767   5.703   6.061  13.969 -0.4343 -0.7668  0.4077
 6451TIP3    H140768   5.623   6.084  13.923 -0.2704  0.5919  0.7537
 6451TIP3    H240769   5.767   6.126  13.938  0.4008 -1.5343  0.4993
 6452TIP3   OH240770   0.071   6.100  12.582  0.3324  0.4535 -0.1629
 6452TIP3    H140771   0.011   6.096  12.657  2.4663  0.6375  1.6624
 6452TIP3    H240772   0.083   6.009  12.556 -1.8437  0.5112 -1.5492
 6453TIP3   OH240773   0.454   2.653   2.845 -0.0421  0.5511 -0.4781
 6453TIP3    H140774   0.530   2.611   2.805 -0.1823 -0.1985  0.0096
 6453TIP3    H240775   0.490   2.726   2.895  0.2695  0.6878 -0.8993
 6454TIP3   OH240776   3.372   2.969   1.379  0.4979  0.1244  0.7804
 6454TIP3    H140777   3.464   2.978   1.354  0.6700 -0.3858  1.1947
 6454TIP3    H240778   3.368   3.005   1.468 -0.0491  1.6677  0.1715
 6455TIP3   OH240779   4.343   3.540   1.633 -1.0032  0.0279  0.9457
 6455TIP3    H140780   4.291   3.602   1.582  1.5281  0.2413 -1.6290
 6455TIP3    H240781   4.433   3.554   1.602 -0.1639 -4.2457  0.9315
 6456TIP3   OH240782   2.364   5.257  15.601 -0.1345 -0.5744 -0.5580
 6456TIP3    H140783   2.450   5.295  15.582 -0.0114 -0.5572  0.0308
 6456TIP3    H240784   2.377   5.163  15.589  0.5882 -0.8238  1.7512
 6457TIP3   OH240785   2.927   0.322   1.828  0.1351  0.1224  0.2984
 6457TIP3    H140786   2.927   0.227   1.818  0.5066  0.2225 -0.8280
 6457TIP3    H240787   2.961   0.355   1.744 -0.8581  1.2781  0.3151
 6458TIP3   OH240788   5.355   6.179  11.266  0.1273 -0.2492  0.5020
 6458TIP3    H140789   5.327   6.102  11.314  1.2393 -2.2098 -1.7945
 6458TIP3    H240790   5.297   6.183  11.189  0.0548  1.2606  0.5932
 6459TIP3   OH240791   2.867   6.084   5.030 -0.3163 -0.5503  0.4806
 6459TIP3    H140792   2.800   6.137   5.075  0.5094  0.8866  0.0996
 6459TIP3    H240793   2.874   6.124   4.943  0.8421 -0.8308  0.4328
 6460TIP3   OH240794   5.543   2.504  16.832 -0.6975 -0.0452  0.6700
 6460TIP3    H140795   5.483   2.559  16.882 -0.1506  0.2126  1.0444
 6460TIP3    H240796   5.615   2.561  16.809  0.3038 -0.7915  1.8121
 6461TIP3   OH240797   0.979   6.124   0.474  0.5161 -0.0807 -0.6870
 6461TIP3    H140798   0.922   6.100   0.548 -0.1121  0.4389 -0.9846
 6461TIP3    H240799   0.986   6.220   0.480  2.3807 -0.2199  0.0622
 6462TIP3   OH240800   4.120   4.685   2.050  0.2214 -0.5964 -0.7090
 6462TIP3    H140801   4.131   4.643   2.136  0.4217 -0.4294 -0.6531
 6462TIP3    H240802   4.147   4.776   2.064 -2.3230  0.1745 -0.2682
 6463TIP3   OH240803   5.162   1.157   1.283  0.1362 -0.5362  0.1666
 6463TIP3    H140804   5.129   1.229   1.337 -1.1232 -1.2569  0.3744
 6463TIP3    H240805   5.134   1.179   1.194  0.0701 -0.5943  0.1737
 6464TIP3   OH240806   1.560   3.969   0.466  0.9693 -0.5735  0.0247
 6464TIP3    H140807   1.538   4.030   0.396  0.6318  0.9369  1.3753
 6464TIP3    H240808   1.551   3.883   0.427 -4.5104 -0.1208 -0.5119
 6465TIP3   OH240809   4.735   2.380  11.394 -0.5302 -0.0303 -0.8550
 6465TIP3    H140810   4.731   2.474  11.373 -0.2090 -0.0949 -1.2146
 6465TIP3    H240811   4.702   2.337  11.315  0.4004 -0.2653 -1.1256
 6466TIP3   OH240812   5.410   6.548   2.125 -0.0917 -0.0074  0.4671
 6466TIP3    H140813   5.464   6.561   2.203  0.6450 -0.4219  0.0410
 6466TIP3    H240814   5.452   6.475   2.079 -1.6078 -1.0468  0.6323
 6467TIP3   OH240815   5.598   0.315  15.387 -0.2247  0.2303  0.6708
 6467TIP3    H140816   5.617   0.408  15.376 -0.1513  0.4030  2.0291
 6467TIP3    H240817   5.655   0.287  15.459  0.2315 -1.0344 -0.1274
 6468TIP3   OH240818   2.703   5.473   5.928  0.1242 -0.0041  0.2166
 6468TIP3    H140819   2.668   5.429   6.006  0.3971 -0.3694  0.1363
 6468TIP3    H240820   2.675   5.419   5.855 -0.6897  0.6989 -0.0003
 6469TIP3   OH240821   2.174   6.611   5.193 -0.6549  0.3049  0.2379
 6469TIP3    H140822   2.120   6.618   5.115 -1.9061 -0.0150  1.0499
 6469TIP3    H240823   2.187   6.702   5.222  0.3557  0.4740 -0.6669
 6470TIP3   OH240824   0.433   1.584   4.284 -0.2106  0.7325  0.2181
 6470TIP3    H140825   0.448   1.662   4.338 -2.5114  1.2545  0.2416
 6470TIP3    H240826   0.352   1.546   4.319  0.1522 -0.9246 -0.6450
 6471TIP3   OH240827   5.923   1.080  12.593  0.3139  0.1002  0.4374
 6471TIP3    H140828   5.862   1.026  12.542 -0.3077  2.0692 -1.0227
 6471TIP3    H240829   5.911   1.052  12.684 -0.3662 -1.8002 -0.2031
 6472TIP3   OH240830   1.959   4.078   3.726 -0.3968  0.0251  0.0024
 6472TIP3    H140831   2.037   4.037   3.762  1.1638  2.0328 -0.9570
 6472TIP3    H240832   1.912   4.006   3.683 -0.1279 -1.5771  2.2084
 6473TIP3   OH240833   0.103   0.058   6.671 -0.6204 -0.6683  0.0235
 6473TIP3    H140834   0.115   0.153   6.675  1.7214 -0.8671 -0.9326
 6473TIP3    H240835   0.048   0.044   6.594  1.0487 -0.1857 -1.3032
 6474TIP3   OH240836   2.147   2.604  14.066  0.0137 -0.0480 -0.0734
 6474TIP3    H140837   2.169   2.683  14.115 -0.2466  0.5503 -0.8784
 6474TIP3    H240838   2.207   2.538  14.098  0.8512  0.7188 -0.0202
 6475TIP3   OH240839   5.404   1.519   0.801 -0.0370 -0.1434 -0.0673
 6475TIP3    H140840   5.464   1.589   0.825 -1.4696  0.3055  2.5329
 6475TIP3    H240841   5.356   1.554   0.726 -0.9467  1.8751  1.3686
 6476TIP3   OH240842   3.892   5.164   4.800  0.8333  0.4721  0.3885
 6476TIP3    H140843   3.901   5.258   4.789  1.2997  0.2279 -1.5935
 6476TIP3    H240844   3.981   5.132   4.808  0.7797  0.0509 -0.5413
 6477TIP3   OH240845   3.599   6.383  13.964 -0.2761  0.0108  0.1036
 6477TIP3    H140846   3.606   6.300  13.917  0.7129  1.4924 -2.5485
 6477TIP3    H240847   3.533   6.366  14.032  1.4689 -3.5136  1.1294
 6478TIP3   OH240848   4.661   5.009  15.886  0.2317 -0.1667 -0.0883
 6478TIP3    H140849   4.741   4.998  15.836  1.0641 -1.0204  1.3497
 6478TIP3    H240850   4.669   4.947  15.959 -2.4539 -1.4255 -0.7413
 6479TIP3   OH240851   0.453   3.213  11.398 -0.5220 -0.3461  0.3678
 6479TIP3    H140852   0.471   3.119  11.390 -1.0471 -0.4135 -0.0421
 6479TIP3    H240853   0.413   3.222  11.484 -2.7053 -0.8691 -0.5277
 6480TIP3   OH240854   2.028   1.240   3.937 -0.5972 -0.2830 -0.3923
 6480TIP3    H140855   1.945   1.282   3.914 -0.3671  0.1071 -0.5201
 6480TIP3    H240856   2.010   1.147   3.932 -1.8636 -0.3127  2.4381
 6481TIP3   OH240857   4.386   6.341   2.144  0.4419  0.2362 -0.1201
 6481TIP3    H140858   4.394   6.322   2.238 -1.3670  0.9653  0.2280
 6481TIP3    H240859   4.305   6.298   2.118 -0.6913  2.4839 -0.6129
 6482TIP3   OH240860   5.207   5.988  17.397 -0.0099 -0.2420  0.2669
 6482TIP3    H140861   5.178   5.898  17.410  2.0618 -1.0144  0.0392
 6482TIP3    H240862   5.158   6.040  17.460 -3.5180 -0.9824 -1.6245
 6483TIP3   OH240863   1.896   2.260   5.418 -0.3934 -0.2208  0.2071
 6483TIP3    H140864   1.946   2.342   5.422 -0.7392 -0.0473  1.6083
 6483TIP3    H240865   1.836   2.273   5.345 -1.2960  1.3113  1.1574
 6484TIP3   OH240866   5.458   5.149   1.016 -0.0514  0.1270 -0.2720
 6484TIP3    H140867   5.372   5.117   0.988  0.4839 -1.4906 -0.1555
 6484TIP3    H240868   5.498   5.184   0.937 -0.8117  0.8983 -0.3263
 6485TIP3   OH240869   5.980   5.015  15.028 -0.2500  0.2970  0.0153
 6485TIP3    H140870   5.979   5.108  15.004  3.2315  0.3320 -0.3951
 6485TIP3    H240871   5.924   5.009  15.105  0.5590  3.0206  0.9061
 6486TIP3   OH240872   5.984   2.531  15.581 -0.2626  0.7553 -0.0220
 6486TIP3    H140873   5.970   2.483  15.499  1.6004 -0.4730  0.3207
 6486TIP3    H240874   6.060   2.488  15.621 -0.7566  1.7244  2.0627
 6487TIP3   OH240875   5.262   2.801  10.956  0.1323 -0.4859  0.1866
 6487TIP3    H140876   5.264   2.836  11.045 -0.5889 -0.2753  0.1258
 6487TIP3    H240877   5.326   2.730  10.957  0.6824  0.0017  0.6618
 6488TIP3   OH240878   0.271   5.991  16.470 -0.2631 -0.1357 -0.2983
 6488TIP3    H140879   0.297   6.078  16.441  0.7701 -0.6239 -0.9266
 6488TIP3    H240880   0.253   5.943  16.390 -1.3085 -0.3720  0.0644
 6489TIP3   OH240881   1.897   2.084  16.413  0.4228 -0.5576 -1.0136
 6489TIP3    H140882   1.913   2.024  16.486  1.9085 -0.7241 -1.4434
 6489TIP3    H240883   1.910   2.171  16.451 -1.4858 -0.4801 -0.4531
 6490TIP3   OH240884   4.554   4.420  11.945  0.1973 -0.4908  0.3790
 6490TIP3    H140885   4.516   4.504  11.919 -0.5659 -0.8488  0.3034
 6490TIP3    H240886   4.641   4.420  11.906 -0.2662 -0.2669 -0.7051
 6491TIP3   OH240887   6.508   1.896   5.396  0.1943  0.2064 -0.7646
 6491TIP3    H140888   6.549   1.976   5.430  2.0671 -1.1743  0.4191
 6491TIP3    H240889   6.422   1.925   5.364  0.3928  2.4974  0.5516
 6492TIP3   OH240890   4.425   6.421   5.243 -0.3237 -0.1821  0.2348
 6492TIP3    H140891   4.356   6.460   5.191 -0.1529 -2.0495 -1.4850
 6492TIP3    H240892   4.414   6.327   5.232  1.3789 -0.5696  1.4162
 6493TIP3   OH240893   0.868   2.455   3.011  0.2118 -0.1719  0.0586
 6493TIP3    H140894   0.893   2.521   2.946 -1.7694  0.6207  0.0176
 6493TIP3    H240895   0.817   2.391   2.962 -0.9333  0.2086  0.7026
 6494TIP3   OH240896   3.184   6.337  11.836  0.0272  0.4087  0.2260
 6494TIP3    H140897   3.209   6.421  11.874  0.2075  0.5750 -0.2494
 6494TIP3    H240898   3.089   6.338  11.835 -0.0318 -0.1286  1.8355
 6495TIP3   OH240899   0.453   3.584  15.054  0.2770 -0.0319  0.0370
 6495TIP3    H140900   0.487   3.507  15.099  0.5109  0.3822  0.5744
 6495TIP3    H240901   0.516   3.600  14.984  0.7380  0.2282  0.5065
 6496TIP3   OH240902   4.073   6.229   6.132  0.5665  0.4657 -0.2057
 6496TIP3    H140903   4.063   6.191   6.220  2.5219  0.7645  0.2020
 6496TIP3    H240904   4.154   6.280   6.137  1.2348 -0.2455 -2.4299
 6497TIP3   OH240905   2.369   1.229   2.048 -0.5130 -0.3232  0.2422
 6497TIP3    H140906   2.421   1.309   2.060 -0.7804 -0.3745  2.1045
 6497TIP3    H240907   2.342   1.231   1.956  2.1535  0.0828 -0.6166
 6498TIP3   OH240908   0.260   1.532   0.914 -0.2693  0.0517  0.1594
 6498TIP3    H140909   0.170   1.563   0.917 -0.5459 -0.4493 -1.6487
 6498TIP3    H240910   0.301   1.584   0.844  0.6103 -0.3299  0.3742
 6499TIP3   OH240911   3.185   4.158   2.662 -0.2765  0.0254 -0.2150
 6499TIP3    H140912   3.092   4.139   2.678 -0.2116 -0.3525 -0.2818
 6499TIP3    H240913   3.193   4.252   2.680 -0.0227 -0.5130  2.9819
 6500TIP3   OH240914   2.691   0.537  13.412  0.1707  0.3437 -0.1482
 6500TIP3    H140915   2.597   0.538  13.429  0.1290 -1.0056 -0.1850
 6500TIP3    H240916   2.715   0.630  13.408 -1.1701  0.7152 -0.2720
 6501TIP3   OH240917   5.283   5.078  12.516 -0.0203  0.1549  0.4243
 6501TIP3    H140918   5.319   5.022  12.447  1.2526  0.3046  0.9421
 6501TIP3    H240919   5.296   5.167  12.484  0.2175  0.2144  0.6844
 6502TIP3   OH240920   6.041   5.328  10.615 -0.5567 -0.2182 -0.4356
 6502TIP3    H140921   5.954   5.288  10.606 -1.1948  1.3817 -2.1574
 6502TIP3    H240922   6.090   5.268  10.671 -2.7437 -1.2104  0.5367
 6503TIP3   OH240923   3.326   1.427   0.084 -0.4469  0.1706 -0.9343
 6503TIP3    H140924   3.241   1.471   0.089  0.0724  1.0560  1.6671
 6503TIP3    H240925   3.389   1.492   0.115  0.5170 -1.8886  1.8364
 6504TIP3   OH240926   3.544   4.960  15.855  0.4681 -0.4211 -1.0305
 6504TIP3    H140927   3.523   4.993  15.942 -0.7011 -0.6272 -1.2250
 6504TIP3    H240928   3.628   4.915  15.866 -0.4494 -1.8898  0.3615
 6505TIP3   OH240929   6.486   3.127  13.717  0.3482  0.0054 -0.8396
 6505TIP3    H140930   6.563   3.076  13.742 -1.4481 -1.4250  2.4358
 6505TIP3    H240931   6.430   3.065  13.672 -0.3652  0.0019  0.0208
 6506TIP3   OH240932   4.497   1.217   4.451 -0.1963 -0.2930  0.5048
 6506TIP3    H140933   4.464   1.128   4.468 -2.8663  0.4427 -0.3436
 6506TIP3    H240934   4.488   1.262   4.535 -1.4188 -0.1241  0.3070
 6507TIP3   OH240935   1.762   0.599  14.525 -0.2638 -0.1259 -0.2981
 6507TIP3    H140936   1.682   0.564  14.485 -0.7319 -0.0571  0.5402
 6507TIP3    H240937   1.730   0.660  14.592  0.4638 -0.6599  0.5643
 6508TIP3   OH240938   5.064   4.955  13.542  0.3526 -0.8229 -1.3139
 6508TIP3    H140939   5.004   4.881  13.542 -2.4565  1.2468  0.7104
 6508TIP3    H240940   5.118   4.943  13.621 -1.8410  0.4057  0.4908
 6509TIP3   OH240941   4.700   3.825   2.289  0.4087 -0.3240 -0.2877
 6509TIP3    H140942   4.700   3.730   2.298 -1.9617 -0.3683 -0.1784
 6509TIP3    H240943   4.734   3.858   2.372 -0.5169 -1.0777  0.4100
 6510TIP3   OH240944   4.106   2.021   4.015  0.0134 -0.3485  0.4881
 6510TIP3    H140945   4.120   1.995   3.924 -3.3312  0.2153 -0.3331
 6510TIP3    H240946   4.042   1.957   4.048 -0.5148  0.7737  1.6941
 6511TIP3   OH240947   3.151   5.970   1.039 -0.5698  0.2816  0.0269
 6511TIP3    H140948   3.190   5.889   1.005 -0.1323 -0.4385  2.0967
 6511TIP3    H240949   3.183   6.039   0.981 -0.3289 -0.9224 -1.3193
 6512TIP3   OH240950   2.963   3.219  12.469  0.0035 -0.1547  0.2155
 6512TIP3    H140951   2.959   3.191  12.377 -1.2425  1.1926 -0.1879
 6512TIP3    H240952   3.043   3.272  12.475 -0.0016 -0.1071 -0.1303
 6513TIP3   OH240953   2.890   3.082   4.458 -0.0445 -0.4832 -0.0988
 6513TIP3    H140954   2.919   3.087   4.367 -1.5230 -2.6973 -0.7625
 6513TIP3    H240955   2.965   3.044   4.504  0.2853 -0.4824 -0.6219
 6514TIP3   OH240956   6.567   5.222  14.342 -0.7409 -0.1019 -0.1852
 6514TIP3    H140957   6.544   5.314  14.342  0.1200  0.1247 -0.4507
 6514TIP3    H240958   6.483   5.176  14.342 -1.3223  0.6678 -3.4188
 6515TIP3   OH240959   6.697   2.722   3.076  0.6721 -0.2043  0.8049
 6515TIP3    H140960   6.714   2.713   3.170  3.3144 -1.7719  0.2572
 6515TIP3    H240961   6.756   2.792   3.048  0.0428  0.1128  0.2160
 6516TIP3   OH240962   5.872   1.649  12.521 -0.0930  0.7648  0.4954
 6516TIP3    H140963   5.904   1.722  12.574 -0.8959 -0.1061  2.2494
 6516TIP3    H240964   5.952   1.611  12.484  0.4558  1.6606  0.7086
 6517TIP3   OH240965   5.219   2.976   1.648 -0.0472  0.0430  0.0401
 6517TIP3    H140966   5.131   3.005   1.672 -0.6104  0.1556 -1.9680
 6517TIP3    H240967   5.217   2.969   1.552  1.2913 -2.6459  0.1076
 6518TIP3   OH240968   2.909   0.569  15.390  0.1263 -0.0721 -0.5533
 6518TIP3    H140969   2.817   0.566  15.415  0.2366 -0.4433 -0.1926
 6518TIP3    H240970   2.932   0.662  15.393 -0.1973  0.0054 -0.5024
 6519TIP3   OH240971   4.584   2.306  11.144 -0.3656 -0.2570  0.0979
 6519TIP3    H140972   4.610   2.223  11.105 -0.6163 -1.3141  2.0508
 6519TIP3    H240973   4.501   2.327  11.102 -1.1517 -1.8864  0.7396
 6520TIP3   OH240974   4.689   2.849  17.012 -0.6225  0.2736 -0.4539
 6520TIP3    H140975   4.717   2.800  16.935  1.1856 -0.9468  0.8936
 6520TIP3    H240976   4.595   2.834  17.018 -0.8329  0.5159 -2.4658
 6521TIP3   OH240977   1.577   0.480  11.490  0.4126 -0.2989  0.3024
 6521TIP3    H140978   1.638   0.467  11.562  0.3906 -0.9046  0.2190
 6521TIP3    H240979   1.538   0.566  11.506 -0.4221 -0.8891  1.6346
 6522TIP3   OH240980   6.154   5.685   0.612 -0.0067 -0.7848  0.2659
 6522TIP3    H140981   6.123   5.642   0.692 -0.6806 -0.5144  0.1574
 6522TIP3    H240982   6.089   5.753   0.595  1.6157  1.0759  1.0770
 6523TIP3   OH240983   2.380   4.849  12.595  0.1676 -0.7735  0.1733
 6523TIP3    H140984   2.421   4.838  12.509  0.1107 -1.2154  0.2035
 6523TIP3    H240985   2.354   4.941  12.597  1.3672 -0.4203  0.2403
 6524TIP3   OH240986   3.193   2.238   1.652 -0.3461 -0.2903 -0.6482
 6524TIP3    H140987   3.284   2.237   1.621  0.9197 -0.4135  2.7021
 6524TIP3    H240988   3.167   2.146   1.653  0.4458 -0.5248  0.7557
 6525TIP3   OH240989   3.582   4.537  14.265  0.1144 -0.3471  0.3852
 6525TIP3    H140990   3.566   4.470  14.199 -0.4168  0.0810  0.0704
 6525TIP3    H240991   3.677   4.543  14.272  0.1771 -0.2587 -0.4858
 6526TIP3   OH240992   1.992   3.560  15.031  0.7291  0.6228 -0.1738
 6526TIP3    H140993   1.927   3.531  15.095 -0.9843  0.7066 -1.8066
 6526TIP3    H240994   2.062   3.494  15.037 -0.6515 -0.9120 -0.1222
 6527TIP3   OH240995   4.070   2.780  14.348  0.0437 -0.1386  0.2271
 6527TIP3    H140996   4.048   2.802  14.438  0.0133 -1.2242  0.5016
 6527TIP3    H240997   4.001   2.720  14.319 -0.2480  0.6153 -0.7131
 6528TIP3   OH240998   2.101   4.013   0.181  0.2122 -0.1729  0.7354
 6528TIP3    H140999   2.126   4.073   0.111  0.7452 -0.3440  0.7724
 6528TIP3    H241000   2.160   4.034   0.253  0.0704 -0.4055  0.9211
 6529TIP3   OH241001   0.431   2.191   2.942 -0.2315 -0.0604  0.3365
 6529TIP3    H141002   0.368   2.120   2.952 -1.9805  1.4819  0.9175
 6529TIP3    H241003   0.381   2.261   2.900  0.6300  1.8028  2.2560
 6530TIP3   OH241004   4.833   0.048  13.118  0.8327 -0.2928 -0.2355
 6530TIP3    H141005   4.892   0.028  13.191  0.9663 -0.4958 -0.4004
 6530TIP3    H241006   4.890   0.076  13.047  0.6521  0.7543  0.0061
 6531TIP3   OH241007   4.026   6.403  11.420 -0.6819 -0.5460  0.1503
 6531TIP3    H141008   3.930   6.407  11.427 -0.7155 -1.3004  0.2422
 6531TIP3    H241009   4.043   6.322  11.373 -0.0140 -1.9048  2.5544
 6532TIP3   OH241010   0.683   6.506  15.571 -0.1822 -0.0375  0.9176
 6532TIP3    H141011   0.739   6.474  15.642 -0.2939  0.7452  1.3749
 6532TIP3    H241012   0.600   6.527  15.613  0.5079  2.7556  1.0785
 6533TIP3   OH241013   4.117   5.599   2.754 -0.3708 -0.5520  0.0247
 6533TIP3    H141014   4.132   5.506   2.774 -0.0089 -0.6296 -0.5691
 6533TIP3    H241015   4.070   5.598   2.670 -1.7855 -0.2360  0.7754
 6534TIP3   OH241016   1.065   0.862   1.169  0.2103  0.7027  0.0326
 6534TIP3    H141017   0.986   0.884   1.119 -0.3408 -1.5022 -0.1778
 6534TIP3    H241018   1.050   0.899   1.255 -1.4604 -0.3360  0.2369
 6535TIP3   OH241019   2.214   6.626  14.507  0.0361  0.1226  0.2890
 6535TIP3    H141020   2.196   6.535  14.531  1.7713 -0.4782 -0.5101
 6535TIP3    H241021   2.304   6.641  14.535 -0.2608  1.6505  0.5002
 6536TIP3   OH241022   5.827   6.266  15.374  0.5337 -0.2973  0.2376
 6536TIP3    H141023   5.918   6.271  15.404  0.5234  0.6741  0.1334
 6536TIP3    H241024   5.787   6.347  15.405 -0.2262 -0.5912  0.0440
 6537TIP3   OH241025   1.640   0.160  12.805 -0.7129 -0.0752 -0.3793
 6537TIP3    H141026   1.709   0.205  12.756  0.7895 -0.6546  1.0878
 6537TIP3    H241027   1.645   0.196  12.893 -1.8373 -0.6390 -0.0615
 6538TIP3   OH241028   1.413   1.675   2.554  0.0605 -0.2095 -0.1536
 6538TIP3    H141029   1.388   1.697   2.644  0.3027  1.5690 -0.4779
 6538TIP3    H241030   1.418   1.760   2.510 -0.0099 -1.0510 -1.8406
 6539TIP3   OH241031   5.233   3.006   2.434  0.0482  0.1075  0.5485
 6539TIP3    H141032   5.248   3.098   2.459  3.4090 -0.1869  0.0964
 6539TIP3    H241033   5.189   2.967   2.510  1.7653  1.3121  2.2439
 6540TIP3   OH241034   5.163   0.424   1.390 -0.9344  0.0572 -0.1394
 6540TIP3    H141035   5.250   0.392   1.411 -0.0484  1.1541 -1.8955
 6540TIP3    H241036   5.144   0.489   1.458 -1.2253 -1.5124  1.3318
 6541TIP3   OH241037   4.456   3.788   3.706 -0.0185  0.4908 -0.2363
 6541TIP3    H141038   4.436   3.737   3.785 -1.3422  1.7404  0.2701
 6541TIP3    H241039   4.441   3.879   3.732  0.0573  0.9686 -1.7884
 6542TIP3   OH241040   0.748   0.804  13.395 -0.0713  0.1633  0.4199
 6542TIP3    H141041   0.796   0.821  13.315 -1.1443 -2.9487 -1.0737
 6542TIP3    H241042   0.657   0.825  13.374 -0.1638  0.7847  1.3654
 6543TIP3   OH241043   0.891   6.599   6.422  0.0644  0.0558  0.6246
 6543TIP3    H141044   0.885   6.693   6.441 -0.2782  0.8142 -2.5369
 6543TIP3    H241045   0.835   6.557   6.486 -1.0933  2.2106  1.1046
 6544TIP3   OH241046   2.207   0.686   0.901  0.5976  0.1299 -0.0018
 6544TIP3    H141047   2.170   0.599   0.888  0.8971  0.1834 -1.2836
 6544TIP3    H241048   2.131   0.745   0.906  0.3987 -0.1856  0.8077
 6545TIP3   OH241049   4.215   3.492   3.788  0.4487 -0.5030 -0.1742
 6545TIP3    H141050   4.167   3.434   3.847  0.8241  0.5720  1.2551
 6545TIP3    H241051   4.171   3.577   3.798 -0.1466 -0.5142 -2.2831
 6546TIP3   OH241052   2.042   2.566   3.736  0.2567 -0.2150 -0.0695
 6546TIP3    H141053   2.116   2.596   3.683 -1.3619  0.7833 -1.8836
 6546TIP3    H241054   1.965   2.595   3.688 -1.3362  0.2899  2.6109
 6547TIP3   OH241055   4.088   5.140  12.031  0.5503 -0.4282 -0.0202
 6547TIP3    H141056   4.121   5.149  12.120  0.4457  0.2251 -0.0413
 6547TIP3    H241057   4.006   5.190  12.031 -1.5347 -3.5592  0.5702
 6548TIP3   OH241058   4.974   1.996  16.767 -0.0437  0.3698  0.1732
 6548TIP3    H141059   4.898   2.044  16.801  0.3298  1.2516 -0.2081
 6548TIP3    H241060   5.034   1.992  16.841 -2.2381 -4.4961  2.0893
 6549TIP3   OH241061   5.789   5.149   4.292  0.2767  0.0456  0.2079
 6549TIP3    H141062   5.757   5.062   4.318 -0.6290  0.4986  0.6573
 6549TIP3    H241063   5.732   5.210   4.339  1.4965  0.8867  0.6384
 6550TIP3   OH241064   5.448   0.092  14.199  0.6657 -0.3019 -0.3403
 6550TIP3    H141065   5.418   0.052  14.280  1.2395  1.3280  0.7215
 6550TIP3    H241066   5.383   0.067  14.134 -0.8549 -0.0702  1.0403
 6551TIP3   OH241067   6.374   0.936   2.603 -0.1006 -0.6287  0.0032
 6551TIP3    H141068   6.289   0.960   2.639  0.8190  1.1429  1.1491
 6551TIP3    H241069   6.435   0.945   2.677  1.0629 -2.1666 -0.7021
 6552TIP3   OH241070   3.220   3.140  11.921  0.3642  0.0891 -0.5825
 6552TIP3    H141071   3.153   3.077  11.896  0.8530 -0.6244 -0.1521
 6552TIP3    H241072   3.175   3.200  11.981 -0.2769  0.5741 -1.5278
 6553TIP3   OH241073   5.289   5.270  12.216  0.2953 -0.0227 -0.6564
 6553TIP3    H141074   5.320   5.189  12.174 -0.9921  0.3989 -2.5647
 6553TIP3    H241075   5.194   5.268  12.203  0.1278  1.2972  0.2148
 6554TIP3   OH241076   1.034   6.003   4.699  0.5512 -0.7754  0.1804
 6554TIP3    H141077   0.992   6.044   4.624 -2.6031 -2.1738  1.0093
 6554TIP3    H241078   1.125   5.993   4.673  0.1305  1.1187 -2.3924
 6555TIP3   OH241079   5.863   1.426  11.977  0.0554 -0.2145 -0.3196
 6555TIP3    H141080   5.887   1.495  12.039 -0.5485 -1.2592  1.1300
 6555TIP3    H241081   5.814   1.471  11.908  0.6152  0.9488  0.0222
 6556TIP3   OH241082   0.750   0.305   5.072  0.0332 -0.2670 -0.6125
 6556TIP3    H141083   0.661   0.332   5.049 -0.3415 -0.1786  0.8664
 6556TIP3    H241084   0.752   0.211   5.052  0.0054 -0.0442 -1.7618
 6557TIP3   OH241085   1.289   4.613   1.202  0.2591  0.0623  0.5598
 6557TIP3    H141086   1.249   4.526   1.205 -0.5709  0.4270  0.3348
 6557TIP3    H241087   1.296   4.639   1.294  0.6753 -0.3135  0.6369
 6558TIP3   OH241088   5.351   6.582  12.721 -0.5805  0.1241 -0.5978
 6558TIP3    H141089   5.446   6.571  12.715 -0.6100 -1.2512  0.6910
 6558TIP3    H241090   5.315   6.507  12.673 -0.9504 -0.7062  0.9076
 6559TIP3   OH241091   6.517   4.991  13.749  0.0212  0.0289 -0.6759
 6559TIP3    H141092   6.452   4.933  13.708  1.1060 -1.4402 -0.4169
 6559TIP3    H241093   6.504   5.076  13.706 -1.6446 -0.3828 -1.0561
 6560TIP3   OH241094   0.736   1.260   6.780 -0.0472 -0.2164  0.3327
 6560TIP3    H141095   0.758   1.349   6.752 -1.5355 -0.2848 -1.2511
 6560TIP3    H241096   0.663   1.235   6.723 -0.5595 -1.9494  1.6709
 6561TIP3   OH241097   3.030   4.764   5.948  0.3159  0.1026 -0.4168
 6561TIP3    H141098   3.027   4.859   5.933 -1.2110 -0.0638 -1.3635
 6561TIP3    H241099   2.978   4.751   6.028 -1.6475 -0.1404 -1.6736
 6562TIP3   OH241100   0.808   3.214   3.513 -0.3667 -0.4043  0.6467
 6562TIP3    H141101   0.903   3.204   3.524  0.1050  0.6960 -1.7129
 6562TIP3    H241102   0.771   3.134   3.550  1.5251 -1.1570  1.0412
 6563TIP3   OH241103   5.175   0.096  13.723  0.0879 -0.5496 -0.6138
 6563TIP3    H141104   5.122   0.153  13.667 -1.1947 -0.2996  0.7715
 6563TIP3    H241105   5.129   0.012  13.721  1.2343 -1.1910 -1.5964
 6564TIP3   OH241106   3.042   2.047   2.412 -0.3825  0.1925 -0.0218
 6564TIP3    H141107   3.038   2.081   2.323  0.7744 -0.6071 -0.3952
 6564TIP3    H241108   3.061   2.124   2.466 -1.3554  0.7267 -0.4034
 6565TIP3   OH241109   1.861   4.053   4.247  0.4028 -0.5713 -0.7553
 6565TIP3    H141110   1.920   4.072   4.320  1.5645  0.0049 -1.8077
 6565TIP3    H241111   1.786   4.110   4.261  1.0891  0.2949 -0.5531
 6566TIP3   OH241112   1.642   0.208   3.930  0.1060 -0.0615  1.0952
 6566TIP3    H141113   1.652   0.299   3.904 -0.1150 -0.7489 -1.7355
 6566TIP3    H241114   1.603   0.211   4.018  2.1891  2.5231  2.0453
 6567TIP3   OH241115   6.043   2.106   0.603 -0.0795 -0.0859 -0.5189
 6567TIP3    H141116   6.063   2.200   0.611 -1.1070  0.1460 -0.5520
 6567TIP3    H241117   5.948   2.102   0.597 -0.0065 -1.0693 -1.4172
 6568TIP3   OH241118   0.517   3.497   6.570 -0.3076 -0.5356  0.4247
 6568TIP3    H141119   0.486   3.553   6.641 -1.1651 -1.1880  0.5839
 6568TIP3    H241120   0.612   3.506   6.571 -0.4146  0.6612  0.6484
 6569TIP3   OH241121   3.709   1.969   3.194 -1.0160 -0.9167 -0.2973
 6569TIP3    H141122   3.742   1.991   3.107 -0.5385 -0.1615  0.0640
 6569TIP3    H241123   3.639   1.906   3.178  0.5589 -2.5221 -1.0727
 6570TIP3   OH241124   2.423   0.760   4.401  0.1857  0.2004  0.9785
 6570TIP3    H141125   2.436   0.679   4.352  3.3615  1.6834 -0.8913
 6570TIP3    H241126   2.361   0.810   4.348 -2.0823 -0.9942  2.3249
 6571TIP3   OH241127   1.946   1.838  11.575 -0.5767 -0.1989  0.4688
 6571TIP3    H141128   1.954   1.798  11.661  0.1090  1.5932  1.2821
 6571TIP3    H241129   1.978   1.771  11.514  0.1263 -1.0323  1.7219
 6572TIP3   OH241130   6.728   4.629  16.574  0.0746 -0.4897 -0.3607
 6572TIP3    H141131   6.660   4.607  16.638  0.2664 -0.7645 -0.2525
 6572TIP3    H241132   6.703   4.716  16.543  2.4393  1.8605  3.4642
 6573TIP3   OH241133   4.135   4.967   2.728  0.1121 -0.5603  0.8740
 6573TIP3    H141134   4.186   5.034   2.684  0.3549 -1.2976 -0.0054
 6573TIP3    H241135   4.104   5.008   2.808  0.9903  0.3065  0.7741
 6574TIP3   OH241136   0.614   3.201   3.271 -0.2117 -0.0725  0.5058
 6574TIP3    H141137   0.599   3.262   3.199  3.2900  1.6599  1.0386
 6574TIP3    H241138   0.639   3.119   3.228 -2.2106 -0.3567 -0.2008
 6575TIP3   OH241139   2.086   5.020  11.878  0.4145 -0.6225  0.4515
 6575TIP3    H141140   2.151   5.033  11.947 -1.1819 -0.2824  1.9752
 6575TIP3    H241141   2.002   5.023  11.924 -0.6906 -0.9875 -1.4466
 6576TIP3   OH241142   5.708   1.414  15.445  0.0214  0.5475  0.3582
 6576TIP3    H141143   5.614   1.416  15.428  0.1716  2.0344 -0.5183
 6576TIP3    H241144   5.748   1.418  15.358  0.8537  2.5862  0.7706
 6577TIP3   OH241145   1.842   4.611   1.749 -0.3939 -0.0463  0.0423
 6577TIP3    H141146   1.918   4.610   1.690 -1.8373 -1.2103 -1.9083
 6577TIP3    H241147   1.872   4.564   1.827  0.9727 -0.2402 -0.5699
 6578TIP3   OH241148   2.302   2.864  12.678  0.1540  0.1983  0.0084
 6578TIP3    H141149   2.329   2.930  12.743  0.2843  1.4651 -1.2782
 6578TIP3    H241150   2.341   2.783  12.710 -0.2606  0.6497  1.8165
 6579TIP3   OH241151   3.385   3.209  11.526 -0.1384  0.0466 -0.6969
 6579TIP3    H141152   3.357   3.299  11.508  2.4070  0.8419 -1.1203
 6579TIP3    H241153   3.433   3.215  11.609  2.7040 -0.2157 -2.2097
 6580TIP3   OH241154   4.992   3.298  11.285 -0.7061  0.5824  0.3564
 6580TIP3    H141155   4.899   3.293  11.262 -0.8812 -2.0158  1.3749
 6580TIP3    H241156   5.026   3.211  11.265  1.8285  1.7901 -1.0667
 6581TIP3   OH241157   3.881   6.155   2.046 -0.2070  0.4074  0.2394
 6581TIP3    H141158   3.860   6.078   2.099 -0.5714  0.2457 -0.1243
 6581TIP3    H241159   3.915   6.118   1.964 -1.2413  0.5990 -0.2933
 6582TIP3   OH241160   1.705   0.533   2.002  0.1900 -0.1117  0.1856
 6582TIP3    H141161   1.727   0.445   2.032 -0.7563 -0.6432 -0.6267
 6582TIP3    H241162   1.649   0.569   2.071  0.8061 -0.0112  0.6531
 6583TIP3   OH241163   5.025   0.279   4.886  0.5198  0.1556  0.1499
 6583TIP3    H141164   5.064   0.329   4.815  1.0988 -0.6574 -0.1165
 6583TIP3    H241165   5.018   0.190   4.852 -0.3154  0.0026  0.6861
 6584TIP3   OH241166   1.589   1.474  14.813 -0.4618  0.3927 -0.2052
 6584TIP3    H141167   1.608   1.444  14.901  0.2403 -1.1391 -0.8486
 6584TIP3    H241168   1.672   1.508  14.780 -0.1145 -1.2046 -1.0699
 6585TIP3   OH241169   3.560   5.885  14.851  0.1747  0.0061 -0.1273
 6585TIP3    H141170   3.492   5.946  14.822  1.6794  1.2335 -1.3264
 6585TIP3    H241171   3.577   5.909  14.942 -3.4424 -2.7759  1.5676
 6586TIP3   OH241172   0.993   6.430   3.128  0.5373 -0.0918 -0.2452
 6586TIP3    H141173   0.954   6.346   3.152  0.7616 -0.3515 -0.7622
 6586TIP3    H241174   1.022   6.418   3.038  0.6167  0.5285 -0.3085
 6587TIP3   OH241175   2.636   5.909  17.195 -0.0317  0.3529  0.2331
 6587TIP3    H141176   2.645   5.901  17.289  0.8447 -2.8014 -0.0044
 6587TIP3    H241177   2.547   5.878  17.177  0.4836 -1.0240 -0.0809
 6588TIP3   OH241178   5.438   3.869   0.971  0.1189  0.2112  0.0679
 6588TIP3    H141179   5.475   3.901   1.054 -1.3332  0.4943  0.6301
 6588TIP3    H241180   5.346   3.853   0.990  0.1025 -1.2653 -1.0859
 6589TIP3   OH241181   4.843   5.739  14.742  0.3159 -0.4538  0.5646
 6589TIP3    H141182   4.936   5.760  14.733 -0.1059  1.3288 -0.1064
 6589TIP3    H241183   4.805   5.761  14.657 -1.0670  0.9871  1.4862
 6590TIP3   OH241184   1.009   6.047  14.088  0.0477  0.3936 -0.2156
 6590TIP3    H141185   1.028   6.008  14.003  0.6193  0.8900 -0.3204
 6590TIP3    H241186   1.020   5.974  14.150 -1.3205 -0.2061 -0.6428
 6591TIP3   OH241187   1.323   5.217  16.773 -0.2901 -0.1775 -0.4205
 6591TIP3    H141188   1.361   5.220  16.861  1.5987 -1.4933 -1.1162
 6591TIP3    H241189   1.293   5.306  16.757  0.0767  0.2909  1.2308
 6592TIP3   OH241190   3.669   5.086  11.812 -0.4136 -0.3575 -0.0267
 6592TIP3    H141191   3.709   5.001  11.830  0.2819 -0.0313 -0.0270
 6592TIP3    H241192   3.601   5.095  11.878  0.7539 -0.0811  1.1658
 6593TIP3   OH241193   2.534   1.553   6.565 -0.0163 -0.1015 -0.6842
 6593TIP3    H141194   2.630   1.553   6.561  0.0581 -1.4983  0.6007
 6593TIP3    H241195   2.508   1.479   6.510 -0.1767 -1.5905  1.2737
 6594TIP3   OH241196   6.572   1.372  16.473 -0.6346  0.1362  0.3644
 6594TIP3    H141197   6.549   1.460  16.443 -1.3714 -0.0673  0.3099
 6594TIP3    H241198   6.515   1.314  16.421 -1.2792 -0.2737  1.4958
 6595TIP3   OH241199   5.662   4.907   5.791 -0.4972  0.0013 -0.2432
 6595TIP3    H141200   5.754   4.880   5.783 -1.1106 -1.8221 -2.0555
 6595TIP3    H241201   5.613   4.825   5.783 -2.3041  0.8543  1.3470
 6596TIP3   OH241202   6.303   5.370  14.531 -0.1644 -0.6983 -0.1848
 6596TIP3    H141203   6.307   5.401  14.440  0.7534 -0.5130 -0.0885
 6596TIP3    H241204   6.227   5.415  14.568  0.8006  1.0736 -0.2100
 6597TIP3   OH241205   2.799   3.563   4.019  0.6234  0.2774 -0.0252
 6597TIP3    H141206   2.866   3.520   3.967 -0.8536 -0.6133 -1.2806
 6597TIP3    H241207   2.847   3.605   4.090  2.4317 -0.8284 -0.5256
 6598TIP3   OH241208   0.129   0.951  16.888  0.5200 -0.1079 -0.7849
 6598TIP3    H141209   0.170   0.994  16.813 -0.9709  0.7120 -1.1681
 6598TIP3    H241210   0.038   0.980  16.885  0.3115 -0.4767  1.0444
 6599TIP3   OH241211   6.304   0.619  16.653  0.2413 -0.1320  0.2905
 6599TIP3    H141212   6.251   0.540  16.642 -1.1421  0.7764  0.1526
 6599TIP3    H241213   6.240   0.690  16.659  1.4414  0.9643  0.6187
 6600TIP3   OH241214   4.237   6.289   3.541 -0.0184  0.3122  0.4189
 6600TIP3    H141215   4.306   6.225   3.558 -0.7154 -0.9472 -1.1633
 6600TIP3    H241216   4.184   6.289   3.621  1.0385  0.3267  1.1447
 6601TIP3   OH241217   5.311   4.885  16.159 -0.6500 -0.4595 -0.1947
 6601TIP3    H141218   5.268   4.918  16.080  0.5836 -1.0025 -1.1348
 6601TIP3    H241219   5.240   4.868  16.220 -1.5398  1.2237 -0.6908
 6602TIP3   OH241220   6.244   5.888  11.891  1.3764  0.3128 -0.4892
 6602TIP3    H141221   6.201   5.965  11.929  0.5317 -0.2820 -0.2129
 6602TIP3    H241222   6.253   5.910  11.798 -2.8699 -0.9175 -1.3770
 6603TIP3   OH241223   5.156   0.691   4.854  0.4639  0.1369 -0.0916
 6603TIP3    H141224   5.093   0.751   4.813 -1.5135 -0.4327  1.9225
 6603TIP3    H241225   5.180   0.630   4.784  0.2293  1.4735 -1.3930
 6604TIP3   OH241226   4.230   5.495  10.739  0.3037  0.2293  0.3585
 6604TIP3    H141227   4.224   5.538  10.654  2.5765  0.4404  0.2438
 6604TIP3    H241228   4.172   5.419  10.732 -1.2327  1.4306 -0.5719
 6605TIP3   OH241229   2.691   3.927   4.897  0.7702 -0.9924  0.1734
 6605TIP3    H141230   2.704   3.865   4.968  0.0433  0.6617  1.8245
 6605TIP3    H241231   2.620   3.888   4.845  0.1817 -1.4642  1.2874
 6606TIP3   OH241232   2.782   1.596   1.489  0.0551 -0.2169 -0.5231
 6606TIP3    H141233   2.732   1.647   1.425 -1.7696 -2.1369 -0.7457
 6606TIP3    H241234   2.835   1.537   1.436  1.4273  0.7280 -0.2542
 6607TIP3   OH241235   5.358   1.503  16.739  0.3896  0.2389  0.1773
 6607TIP3    H141236   5.380   1.411  16.726  2.3089  0.6025  0.5849
 6607TIP3    H241237   5.268   1.501  16.773  0.3565 -1.4618  0.0924
 6608TIP3   OH241238   1.094   6.364   6.451  0.0731  0.3820 -0.3476
 6608TIP3    H141239   1.013   6.411   6.433 -1.1999 -0.9852  1.3743
 6608TIP3    H241240   1.139   6.418   6.516 -0.5743  0.0938  0.3655
 6609TIP3   OH241241   6.357   5.127   5.148  0.0857  0.2087 -0.7529
 6609TIP3    H141242   6.335   5.056   5.210  0.2373 -1.1307 -2.1839
 6609TIP3    H241243   6.452   5.128   5.146  0.0858 -0.8300 -2.1275
 6610TIP3   OH241244   2.313   1.633  14.112 -0.4592  0.3760  0.4558
 6610TIP3    H141245   2.223   1.636  14.147 -1.3920 -0.4172 -1.6987
 6610TIP3    H241246   2.332   1.540  14.105 -0.4553  0.4901 -1.4041
 6611TIP3   OH241247   0.777   3.420  14.873 -0.1900 -0.1166 -0.0658
 6611TIP3    H141248   0.814   3.375  14.948 -1.3630 -1.7465 -0.4156
 6611TIP3    H241249   0.837   3.399  14.801 -0.1181 -0.1501  0.0034
 6612TIP3   OH241250   5.045   1.550  15.201  0.0359  0.2397 -0.6674
 6612TIP3    H141251   4.957   1.568  15.236 -0.1643  0.8509 -1.4566
 6612TIP3    H241252   5.092   1.632  15.210  0.3484  0.0765 -0.7862
 6613TIP3   OH241253   1.863   4.567  12.422  0.3842 -0.1653 -0.5042
 6613TIP3    H141254   1.942   4.605  12.462  0.3736  2.3328 -2.5493
 6613TIP3    H241255   1.872   4.473  12.435  3.4285  0.0805 -0.1461
 6614TIP3   OH241256   4.276   4.756  10.980  0.6186 -0.1905 -0.4687
 6614TIP3    H141257   4.241   4.689  10.922 -0.0360 -0.5182  0.2776
 6614TIP3    H241258   4.241   4.838  10.945 -2.6638 -0.6276  1.3150
 6615TIP3   OH241259   5.235   2.749   4.291  1.1349  0.4415  0.2331
 6615TIP3    H141260   5.226   2.693   4.214  0.9495 -1.0457  1.2856
 6615TIP3    H241261   5.273   2.831   4.258  1.9636 -0.5166 -1.2751
 6616TIP3   OH241262   1.992   0.846   0.484  0.0897 -0.1131 -0.4014
 6616TIP3    H141263   1.902   0.822   0.462 -0.0495  0.3719 -0.3665
 6616TIP3    H241264   1.985   0.890   0.569  0.0256  2.1096 -1.4804
 6617TIP3   OH241265   2.604   5.287   5.786  1.2923  0.4636  0.4631
 6617TIP3    H141266   2.579   5.201   5.821  2.0181  0.7257  1.7058
 6617TIP3    H241267   2.552   5.297   5.706 -0.4495 -0.1857  1.4580
 6618TIP3   OH241268   5.503   4.147   1.463 -0.1262  0.3067 -0.0180
 6618TIP3    H141269   5.461   4.062   1.472 -0.0264  0.3528  1.0178
 6618TIP3    H241270   5.489   4.190   1.548  1.0710  0.7433 -0.0225
 6619TIP3   OH241271   4.298   2.505   2.455 -0.1942 -0.0479  0.0134
 6619TIP3    H141272   4.302   2.486   2.548  1.4237 -1.8186 -0.3284
 6619TIP3    H241273   4.283   2.419   2.414 -0.2078  0.5818 -1.3702
 6620TIP3   OH241274   2.290   4.175   4.332  0.2774  0.4080 -0.3606
 6620TIP3    H141275   2.208   4.219   4.356 -0.4662 -0.7565 -0.6329
 6620TIP3    H241276   2.289   4.093   4.382  1.3023  0.3981 -0.3362
 6621TIP3   OH241277   6.177   1.478  17.134  0.3443  0.3459  0.1398
 6621TIP3    H141278   6.100   1.432  17.168  0.1459  0.6173  0.0654
 6621TIP3    H241279   6.157   1.571  17.149 -0.2299  0.5563 -1.7048
 6622TIP3   OH241280   4.361   0.150   1.544  0.1739  0.2613  0.2268
 6622TIP3    H141281   4.405   0.071   1.512 -0.3398 -0.3752  1.0408
 6622TIP3    H241282   4.326   0.191   1.465 -0.0503 -0.6413 -0.1562
 6623TIP3   OH241283   5.798   6.007  15.287 -0.7031  0.7388  0.6250
 6623TIP3    H141284   5.815   6.098  15.312 -0.5310  0.9929 -0.3585
 6623TIP3    H241285   5.769   6.012  15.196  0.5632 -0.2979  0.1365
 6624TIP3   OH241286   3.783   1.031   4.517 -0.2078 -0.5663  0.1682
 6624TIP3    H141287   3.868   1.044   4.474 -1.3851 -0.8152 -2.3563
 6624TIP3    H241288   3.764   0.938   4.504  0.3828 -1.2737  3.3363
 6625TIP3   OH241289   5.026   4.877  11.407  0.6341  0.6357 -0.1745
 6625TIP3    H141290   5.055   4.846  11.321  1.5787  0.3259  0.2415
 6625TIP3    H241291   4.966   4.949  11.388  3.2875  2.7521 -1.0839
 6626TIP3   OH241292   5.477   2.799  11.365 -0.3891 -0.6570  0.3137
 6626TIP3    H141293   5.396   2.779  11.412 -1.2299 -0.2537 -0.8884
 6626TIP3    H241294   5.493   2.721  11.312  1.2780 -1.6459  2.1685
 6627TIP3   OH241295   3.573   6.639  14.778  0.6568  0.3685  0.0638
 6627TIP3    H141296   3.550   6.657  14.687 -1.1911 -0.0883  0.4083
 6627TIP3    H241297   3.571   6.724  14.821  1.3816  0.5642 -0.2731
 6628TIP3   OH241298   3.957   3.552  13.667  0.1517  0.2464 -0.1531
 6628TIP3    H141299   4.000   3.471  13.694 -1.1984 -0.6457 -0.5668
 6628TIP3    H241300   3.893   3.569  13.736  0.4355  0.9872 -0.0628
 6629TIP3   OH241301   6.152   6.655   0.706  0.5687  0.3772  0.0455
 6629TIP3    H141302   6.168   6.589   0.638  0.4595  1.3435 -0.9390
 6629TIP3    H241303   6.062   6.640   0.733  0.3915  0.4202 -0.5134
 6630TIP3   OH241304   3.069   5.403  17.079 -0.2842  0.4450  0.3538
 6630TIP3    H141305   3.070   5.498  17.074  0.1831  0.4324  0.1966
 6630TIP3    H241306   3.007   5.383  17.149  0.7062  0.8940  1.3717
 6631TIP3   OH241307   4.961   4.023  14.798  0.0994  0.3772 -0.4189
 6631TIP3    H141308   5.014   3.980  14.864 -1.8358  0.1740  1.0810
 6631TIP3    H241309   4.915   4.093  14.845 -0.2441  1.1750 -1.8557
 6632TIP3   OH241310   2.328   5.529  16.803 -0.6438  0.1581  0.0348
 6632TIP3    H141311   2.358   5.474  16.730  0.0668 -1.6928  1.6314
 6632TIP3    H241312   2.389   5.508  16.874 -2.9161 -0.1788  1.9864
 6633TIP3   OH241313   4.456   3.912   4.292  0.4275  0.0800 -0.2676
 6633TIP3    H141314   4.479   3.871   4.376 -0.2392 -0.7464 -0.4743
 6633TIP3    H241315   4.492   4.001   4.298  1.5367 -0.3893  0.3623
 6634TIP3   OH241316   1.531   5.993  16.132  0.1461 -0.2738  0.3954
 6634TIP3    H141317   1.578   6.033  16.059 -1.7267 -1.3015 -1.4483
 6634TIP3    H241318   1.593   6.000  16.206  2.6368 -0.3429 -1.5420
 6635TIP3   OH241319   6.747   3.875  15.785  0.2337  0.2984 -0.5263
 6635TIP3    H141320   6.747   3.787  15.823 -0.7050 -0.0333 -1.2610
 6635TIP3    H241321   6.838   3.904  15.792  0.9623 -1.4693 -1.9459
 6636TIP3   OH241322   2.514   6.495   0.597 -0.4167  0.0233  0.5123
 6636TIP3    H141323   2.434   6.472   0.549  0.1508 -0.5372 -0.1706
 6636TIP3    H241324   2.508   6.590   0.608 -0.3462  0.2352 -1.0665
 6637TIP3   OH241325   5.212   5.485   4.423  0.2151  0.7351  0.3524
 6637TIP3    H141326   5.172   5.405   4.459  0.4040  1.8584  3.3156
 6637TIP3    H241327   5.137   5.540   4.399  0.0894  0.1704 -0.6381
 6638TIP3   OH241328   2.516   4.709  16.854 -0.3075 -0.0878 -0.2299
 6638TIP3    H141329   2.593   4.690  16.908 -1.2108  0.9847  1.5337
 6638TIP3    H241330   2.452   4.642  16.880 -0.5416  0.0593 -0.4255
 6639TIP3   OH241331   1.191   6.545  11.381 -0.5931 -0.6110  0.1491
 6639TIP3    H141332   1.237   6.580  11.457  0.5949 -1.2677 -0.2329
 6639TIP3    H241333   1.260   6.503  11.329 -1.2141  0.6316 -1.7711
 6640TIP3   OH241334   1.441   6.247  15.016  0.0017  0.2677  0.1306
 6640TIP3    H141335   1.515   6.189  15.030 -0.4191  0.1730  2.3599
 6640TIP3    H241336   1.449   6.275  14.925  2.0151 -0.7525 -0.0619
 6641TIP3   OH241337   5.197   1.450   4.301  0.3384  0.0105  0.6583
 6641TIP3    H141338   5.151   1.435   4.219  0.1630 -1.0634  0.9336
 6641TIP3    H241339   5.133   1.492   4.358  0.5336  0.9806  0.1885
 6642TIP3   OH241340   3.877   6.660  16.614  0.1087 -0.2088  0.3949
 6642TIP3    H141341   3.899   6.590  16.553 -0.9412  0.0101 -0.2526
 6642TIP3    H241342   3.816   6.716  16.566  1.0291  1.2377  0.8574
 6643TIP3   OH241343   0.750   5.892  17.110  0.0156  0.2064 -0.2089
 6643TIP3    H141344   0.754   5.988  17.119  2.1890  0.1095  0.5792
 6643TIP3    H241345   0.785   5.875  17.022 -0.4113  0.1345 -0.3648
 6644TIP3   OH241346   3.359   0.754  12.373  0.3960  0.0184  0.3049
 6644TIP3    H141347   3.415   0.831  12.367 -0.7474  0.8377 -0.3215
 6644TIP3    H241348   3.357   0.719  12.283  0.2025 -0.2216  0.4010
 6645TIP3   OH241349   2.852   0.113  13.044 -0.9562 -0.0263  0.7727
 6645TIP3    H141350   2.917   0.174  13.078  1.3767 -0.5493 -2.2684
 6645TIP3    H241351   2.791   0.167  12.995 -1.8680  0.2839  2.1903
 6646TIP3   OH241352   6.385   6.235  11.737 -1.0092 -0.1592  0.5850
 6646TIP3    H141353   6.430   6.164  11.691 -0.8953  1.4568 -2.0462
 6646TIP3    H241354   6.296   6.203  11.750 -0.4900 -1.4391  1.1124
 6647TIP3   OH241355   6.632   5.993  15.234  0.4302 -0.0828  0.2950
 6647TIP3    H141356   6.682   5.940  15.296  3.9456  0.2546 -1.9786
 6647TIP3    H241357   6.652   6.083  15.259  1.4660  0.0542 -0.9291
 6648TIP3   OH241358   6.216   2.009   5.281  0.6264 -0.3403  0.3301
 6648TIP3    H141359   6.189   2.065   5.354  0.3265  0.4899 -0.3955
 6648TIP3    H241360   6.134   1.983   5.238  0.8499  0.4941 -0.6500
 6649TIP3   OH241361   1.973   5.447   0.257  0.1918 -0.4108  0.1108
 6649TIP3    H141362   1.906   5.419   0.320  2.0824 -1.7214  1.7050
 6649TIP3    H241363   1.952   5.399   0.177 -2.1531  1.1331 -0.3010
 6650TIP3   OH241364   4.367   1.867   5.125 -0.4267  0.6239  0.2840
 6650TIP3    H141365   4.286   1.884   5.173 -1.0243  0.1775 -0.5516
 6650TIP3    H241366   4.386   1.775   5.143 -1.5667 -0.0464 -1.6224
 6651TIP3   OH241367   0.683   4.643  15.569  0.0546 -0.1636  0.0257
 6651TIP3    H141368   0.612   4.694  15.531 -0.0896 -1.7691 -2.0670
 6651TIP3    H241369   0.763   4.680  15.531 -0.0244 -1.1619 -1.1839
 6652TIP3   OH241370   5.873   1.714  12.977 -0.1675  0.1491 -0.3108
 6652TIP3    H141371   5.916   1.659  12.912 -0.2954 -0.2513 -0.0554
 6652TIP3    H241372   5.896   1.804  12.950  0.8121 -0.0540 -0.1882
 6653TIP3   OH241373   6.564   2.589  15.194 -0.5215  0.9345 -0.4857
 6653TIP3    H141374   6.660   2.591  15.196 -0.5270  0.8286  0.3557
 6653TIP3    H241375   6.540   2.517  15.251 -1.0995  0.4149 -1.3619
 6654TIP3   OH241376   6.066   4.897  15.361  0.5082 -0.7071 -0.7007
 6654TIP3    H141377   6.055   4.990  15.383  2.5727 -0.4950 -0.3236
 6654TIP3    H241378   5.977   4.863  15.355 -0.2782  1.0370  0.2395
 6655TIP3   OH241379   2.355   2.200  12.231  0.2696 -0.3699  0.2621
 6655TIP3    H141380   2.318   2.112  12.227  1.2903 -0.8491 -4.4503
 6655TIP3    H241381   2.398   2.204  12.316  0.2553 -4.4595  0.6733
 6656TIP3   OH241382   5.853   4.427  13.038 -0.3908  0.0757 -0.0470
 6656TIP3    H141383   5.902   4.502  13.070 -2.4868  0.9861  1.2620
 6656TIP3    H241384   5.871   4.357  13.100 -1.5182  0.7202  1.0385
 6657TIP3   OH241385   6.596   3.732   5.470  0.3047 -0.2462  0.0833
 6657TIP3    H141386   6.522   3.779   5.507  0.6000  0.4371 -0.1793
 6657TIP3    H241387   6.650   3.710   5.545  0.3704  0.2051  0.1722
 6658TIP3   OH241388   6.183   5.261   0.358  0.5062  0.0920  0.2786
 6658TIP3    H141389   6.157   5.170   0.343  1.1295  0.0939 -0.8669
 6658TIP3    H241390   6.258   5.255   0.417 -0.8781  0.0039  2.1207
 6659TIP3   OH241391   0.141   5.081  15.967  0.0626 -0.5008  0.8620
 6659TIP3    H141392   0.114   5.102  15.878  0.4339 -1.9106  0.3856
 6659TIP3    H241393   0.095   5.144  16.022  0.2900  0.7798 -0.3608
 6660TIP3   OH241394   4.323   0.717   0.949 -0.1263  0.9580  0.0551
 6660TIP3    H141395   4.255   0.732   0.882  0.9809 -0.3679 -1.4429
 6660TIP3    H241396   4.306   0.629   0.980  0.4862  0.8801  0.1728
 6661TIP3   OH241397   5.381   1.529   5.470  0.6346 -0.4114 -1.2516
 6661TIP3    H141398   5.389   1.623   5.485 -1.4696 -0.5860  1.8785
 6661TIP3    H241399   5.335   1.522   5.387 -2.1301  1.5464 -0.0402
 6662TIP3   OH241400   2.514   1.445   2.061  0.9222 -0.1363 -0.1458
 6662TIP3    H141401   2.587   1.466   2.003  0.6606  2.6371  0.3912
 6662TIP3    H241402   2.524   1.505   2.135 -1.9818  0.5267 -0.1772
 6663TIP3   OH241403   4.726   0.826   3.908 -0.0752  0.2929  0.2460
 6663TIP3    H141404   4.750   0.750   3.856  0.2255 -0.5069  1.5074
 6663TIP3    H241405   4.789   0.894   3.884  1.0338 -0.5612  0.7066
 6664TIP3   OH241406   5.208   2.542   1.976  0.3764  0.1107  0.0908
 6664TIP3    H141407   5.153   2.549   2.054 -0.5695  0.8346 -0.6198
 6664TIP3    H241408   5.266   2.617   1.981 -0.7288  1.0567 -0.6617
 6665TIP3   OH241409   1.578   3.732  17.386 -0.0728 -0.4591 -0.5192
 6665TIP3    H141410   1.549   3.645  17.356 -0.4799 -0.1095 -1.1725
 6665TIP3    H241411   1.672   3.732  17.369  0.1080 -1.1278  0.4024
 6666TIP3   OH241412   4.903   5.044  13.357  0.6719  0.3639  0.0485
 6666TIP3    H141413   4.947   5.121  13.321 -0.8913  1.1838 -0.2392
 6666TIP3    H241414   4.952   5.023  13.436 -0.9150  4.0081  2.3026
 6667TIP3   OH241415   1.523   1.216  16.784  0.3814 -0.2831 -0.1373
 6667TIP3    H141416   1.582   1.160  16.836 -2.0988 -2.0061  1.0126
 6667TIP3    H241417   1.482   1.156  16.722 -0.7649  0.7069 -0.3550
 6668TIP3   OH241418   3.176   5.982   2.662 -0.7451  0.8233  0.1516
 6668TIP3    H141419   3.252   6.040   2.655 -0.2383  0.5813  2.6962
 6668TIP3    H241420   3.211   5.899   2.692 -1.8237  0.0487 -0.6158
 6669TIP3   OH241421   5.822   3.806  14.087  0.1517 -0.8111  0.1664
 6669TIP3    H141422   5.805   3.890  14.045 -0.1295  0.8443  3.3118
 6669TIP3    H241423   5.909   3.781  14.056  0.7206  1.2142  0.0153
 6670TIP3   OH241424   4.858   5.034   2.256 -0.0472 -0.5782 -0.4018
 6670TIP3    H141425   4.900   4.948   2.263 -1.8328 -1.3398  3.3693
 6670TIP3    H241426   4.770   5.020   2.291 -0.0621  2.9716  1.3721
 6671TIP3   OH241427   2.249   0.026   4.472 -0.0672 -0.0629  0.0331
 6671TIP3    H141428   2.198  -0.043   4.431 -2.4555  1.2750  0.6069
 6671TIP3    H241429   2.240   0.010   4.566  1.6667 -0.5131  0.1625
 6672TIP3   OH241430   2.109   5.073  14.019 -0.4070 -0.1771  0.0804
 6672TIP3    H141431   2.144   5.120  13.943  1.4735 -1.5395  0.0516
 6672TIP3    H241432   2.020   5.106  14.027 -0.2048  1.0467 -1.8572
 6673TIP3   OH241433   2.565   2.898   2.242 -0.5065  0.0046  0.1473
 6673TIP3    H141434   2.515   2.850   2.176  1.7601 -1.7296 -0.4404
 6673TIP3    H241435   2.648   2.919   2.199  0.8921 -0.8353  2.2508
 6674TIP3   OH241436   0.330   0.321  11.907  0.1486 -0.4332 -0.6741
 6674TIP3    H141437   0.324   0.247  11.967  0.1073 -0.2761 -0.4837
 6674TIP3    H241438   0.281   0.294  11.829 -1.1624 -0.0267 -0.0146
 6675TIP3   OH241439   1.999   5.038   4.068 -0.0335  0.1002 -0.0288
 6675TIP3    H141440   2.036   5.007   4.150  0.5974 -0.0854 -0.3801
 6675TIP3    H241441   1.913   5.074   4.092 -1.2190 -2.6700  0.2902
 6676TIP3   OH241442   5.914   0.464   0.974 -0.5033 -0.3729 -0.0952
 6676TIP3    H141443   5.820   0.471   0.954 -0.4415 -1.4952 -0.8465
 6676TIP3    H241444   5.957   0.472   0.889  0.0950  0.1192  0.2461
 6677TIP3   OH241445   6.412   0.732   6.350  0.0553  0.4554 -0.7732
 6677TIP3    H141446   6.343   0.667   6.363  0.4150  0.1994 -0.0682
 6677TIP3    H241447   6.396   0.767   6.263 -0.1754 -0.5532 -1.1483
 6678TIP3   OH241448   3.479   1.846   2.409 -0.0606  0.1064 -0.6375
 6678TIP3    H141449   3.425   1.871   2.484  1.3889 -0.0069  0.4747
 6678TIP3    H241450   3.455   1.756   2.391 -1.0078  0.3897 -0.8537
 6679TIP3   OH241451   1.081   6.581   5.741  0.1003  0.0309  1.0153
 6679TIP3    H141452   1.029   6.502   5.755  0.3474 -0.3528 -0.1596
 6679TIP3    H241453   1.087   6.590   5.646  2.2460  0.0172  1.1026
 6680TIP3   OH241454   3.464   0.752  12.975  0.3614  0.2840 -0.1696
 6680TIP3    H141455   3.465   0.797  13.060 -2.7922  0.6452 -0.1769
 6680TIP3    H241456   3.426   0.666  12.995 -0.6550  0.4682 -1.2078
 6681TIP3   OH241457   5.757   3.528   0.627 -0.2386 -0.5986  0.1439
 6681TIP3    H141458   5.749   3.473   0.549 -2.4031 -0.3044  0.1091
 6681TIP3    H241459   5.729   3.615   0.598  2.1826  0.3668  0.4525
 6682TIP3   OH241460   1.330   2.399   5.621 -0.3011  0.4329 -0.1074
 6682TIP3    H141461   1.370   2.485   5.631 -0.5370  0.5922 -0.5029
 6682TIP3    H241462   1.289   2.381   5.706  1.4039 -0.1617  0.6514
 6683TIP3   OH241463   6.247   3.710   4.563  0.4678 -0.9761 -0.6479
 6683TIP3    H141464   6.225   3.660   4.484  0.6283 -0.1393 -1.2393
 6683TIP3    H241465   6.231   3.801   4.539  1.1235 -0.6548  0.0821
 6684TIP3   OH241466   6.355   6.175  14.636 -0.0528  0.0408  0.3015
 6684TIP3    H141467   6.394   6.094  14.601  1.0051  0.3835  0.6469
 6684TIP3    H241468   6.274   6.186  14.586  1.3162  0.4164 -1.9545
 6685TIP3   OH241469   0.519   3.405   3.067  0.1337  0.0680 -0.0183
 6685TIP3    H141470   0.577   3.479   3.084 -0.4919  0.2862  1.3112
 6685TIP3    H241471   0.466   3.433   2.992 -0.0475  0.9616  0.4252
 6686TIP3   OH241472   2.198   4.165   6.813 -0.0903 -0.5875 -0.4492
 6686TIP3    H141473   2.123   4.172   6.873  1.6161  0.6530  1.6910
 6686TIP3    H241474   2.222   4.255   6.794  1.7239 -0.9291  0.0904
 6687TIP3   OH241475   1.356   0.461   2.190  0.0635 -0.3483  0.4202
 6687TIP3    H141476   1.311   0.501   2.115  0.6899 -1.2465 -0.4746
 6687TIP3    H241477   1.427   0.521   2.211 -0.4881  0.2100  0.6966
 6688TIP3   OH241478   5.153   0.135   2.486  0.4356  0.1418 -0.2505
 6688TIP3    H141479   5.059   0.150   2.478  0.4747 -0.3698 -2.1221
 6688TIP3    H241480   5.189   0.164   2.402  2.0371  0.8072  0.6089
 6689TIP3   OH241481   4.966   1.691   2.089 -0.1531  0.6080  0.2283
 6689TIP3    H141482   4.914   1.764   2.055 -0.5790 -0.5138 -1.6878
 6689TIP3    H241483   5.053   1.728   2.102 -1.1344  2.3311  2.7664
 6690TIP3   OH241484   2.520   0.067   5.043 -0.0805 -0.5385  0.6220
 6690TIP3    H141485   2.499   0.028   5.127 -0.1843 -0.4334  0.6455
 6690TIP3    H241486   2.603   0.113   5.057 -0.3686 -0.0701  0.8113
 6691TIP3   OH241487   3.935   0.486  12.951 -0.3179 -0.0123 -0.4043
 6691TIP3    H141488   3.940   0.507  12.858  1.1018  2.4128  0.1255
 6691TIP3    H241489   4.025   0.493  12.981 -0.8006 -0.4609  1.2189
 6692TIP3   OH241490   3.913   2.748   1.884  0.0592  0.0142  0.4981
 6692TIP3    H141491   3.823   2.717   1.872  0.3015 -1.7024  2.4502
 6692TIP3    H241492   3.913   2.837   1.848 -1.7346 -0.8112 -1.8566
 6693TIP3   OH241493   5.523   1.211   3.055 -0.0678  0.0624  0.6675
 6693TIP3    H141494   5.600   1.186   3.107  1.4086 -2.2645 -2.3393
 6693TIP3    H241495   5.557   1.265   2.985 -1.5890  0.9159  0.5312
 6694TIP3   OH241496   6.417   4.445   3.609 -0.1465  0.9890  0.1168
 6694TIP3    H141497   6.418   4.518   3.547  0.1837  0.4939 -0.4663
 6694TIP3    H241498   6.450   4.371   3.559 -1.3571  0.2156  0.4294
 6695TIP3   OH241499   6.086   2.796  13.548 -0.3876 -0.0994 -0.0093
 6695TIP3    H141500   6.039   2.785  13.631 -0.2771 -1.4201 -0.1052
 6695TIP3    H241501   6.017   2.791  13.481 -0.3248 -0.3405 -0.0582
 6696TIP3   OH241502   2.485   3.817  12.765  0.1635  0.0062  0.1172
 6696TIP3    H141503   2.409   3.812  12.822  0.9577  0.4004  1.2692
 6696TIP3    H241504   2.550   3.866  12.817  1.3676 -0.7590 -0.6116
 6697TIP3   OH241505   1.323   5.456   0.705 -0.3579  0.1618  0.7658
 6697TIP3    H141506   1.238   5.413   0.717 -0.2566 -0.1747  0.3232
 6697TIP3    H241507   1.355   5.471   0.794 -0.6346 -0.2057  0.9335
 6698TIP3   OH241508   5.134   6.377  16.576 -0.3328 -0.3906 -0.5089
 6698TIP3    H141509   5.167   6.373  16.486 -0.1323  0.5916 -0.4914
 6698TIP3    H241510   5.043   6.408  16.567 -0.5298 -0.9400 -0.4159
 6699TIP3   OH241511   5.503   3.028   3.671  0.2155  0.2828 -0.2254
 6699TIP3    H141512   5.567   3.019   3.742 -0.1836 -2.6305 -0.0934
 6699TIP3    H241513   5.524   2.956   3.611 -2.9119 -0.8307 -0.1605
 6700TIP3   OH241514   4.689   4.902  13.642 -0.8122  0.4167 -0.0261
 6700TIP3    H141515   4.602   4.937  13.656 -1.2001 -0.7895  0.7749
 6700TIP3    H241516   4.674   4.815  13.604 -0.0683 -0.6110  1.8970
 6701TIP3   OH241517   6.161   0.257   4.879 -0.3815  0.3657 -0.3724
 6701TIP3    H141518   6.238   0.214   4.840  0.0985 -1.1816  2.0820
 6701TIP3    H241519   6.195   0.300   4.957 -1.8655  0.4514  0.2466
 6702TIP3   OH241520   2.436   5.034  13.744  0.4281  0.4231  0.2610
 6702TIP3    H141521   2.404   5.030  13.653 -0.8217  2.4851  0.5583
 6702TIP3    H241522   2.401   4.954  13.784 -1.3535  0.8264 -0.3894
 6703TIP3   OH241523   1.193   0.613   1.681 -0.7551 -1.2327  0.1912
 6703TIP3    H141524   1.130   0.650   1.619 -1.4815  0.4599  1.8249
 6703TIP3    H241525   1.278   0.643   1.650 -0.9748 -1.4321 -0.6387
 6704TIP3   OH241526   2.762   0.887  13.705 -0.0406  0.2976 -0.1578
 6704TIP3    H141527   2.732   0.973  13.736  1.1752  0.0010  2.1162
 6704TIP3    H241528   2.849   0.904  13.668  0.1128  0.1021  0.1067
 6705TIP3   OH241529   6.451   0.914  16.225  0.5339 -0.3917 -0.2789
 6705TIP3    H141530   6.375   0.972  16.213 -0.8688 -2.5121 -2.6573
 6705TIP3    H241531   6.521   0.972  16.254 -1.8059  1.7739  1.5123
 6706TIP3   OH241532   4.992   1.194   3.169  0.1061  0.6114 -0.1657
 6706TIP3    H141533   5.087   1.194   3.171  0.1042  1.2204  1.3248
 6706TIP3    H241534   4.968   1.287   3.167 -0.4623  0.4579 -0.9016
 6707TIP3   OH241535   3.978   1.076  12.368 -0.4619 -0.2021  0.3330
 6707TIP3    H141536   4.056   1.022  12.364 -0.0525  0.3749  0.4266
 6707TIP3    H241537   3.978   1.124  12.285 -1.2723 -0.9477 -0.1169
 6708TIP3   OH241538   0.442   4.102  11.595 -0.2332  0.7093 -0.0769
 6708TIP3    H141539   0.419   4.033  11.532  1.8138 -0.4253  0.2917
 6708TIP3    H241540   0.409   4.069  11.679 -0.7368  0.9920 -0.1653
 6709TIP3   OH241541   3.965   6.683  11.824  0.1583  0.0273  0.2138
 6709TIP3    H141542   4.028   6.746  11.859  3.1626 -2.6978  0.1845
 6709TIP3    H241543   4.010   6.641  11.751 -2.2595 -1.2027 -0.6959
 6710TIP3   OH241544   1.586   2.386  14.036 -0.0004  0.3496  0.2918
 6710TIP3    H141545   1.521   2.316  14.036  1.0488 -0.6740 -1.3974
 6710TIP3    H241546   1.542   2.460  13.993  0.0833 -0.5127 -1.3552
 6711TIP3   OH241547   6.566   2.672   5.798 -0.1837  0.4027  0.1907
 6711TIP3    H141548   6.586   2.623   5.877  0.1791 -0.5892 -0.4997
 6711TIP3    H241549   6.642   2.659   5.741 -0.2865  1.3774 -0.1994
 6712TIP3   OH241550   4.501   1.715  14.173 -0.1222 -0.0424  0.1780
 6712TIP3    H141551   4.491   1.662  14.252  0.8707  1.3487  1.2854
 6712TIP3    H241552   4.414   1.754  14.159  0.1343  1.1712  1.7135
 6713TIP3   OH241553   2.720   4.368   0.198 -0.2620 -0.2195  0.0689
 6713TIP3    H141554   2.631   4.340   0.177  0.3952 -1.8201 -0.7017
 6713TIP3    H241555   2.715   4.395   0.290 -1.3722 -1.0065  0.2610
 6714TIP3   OH241556   2.702   3.289  13.243  0.1168 -0.0046  0.1509
 6714TIP3    H141557   2.670   3.231  13.174 -1.4117 -0.6849  1.3551
 6714TIP3    H241558   2.645   3.365  13.239  1.7670  1.2229 -1.0648
 6715TIP3   OH241559   6.416   5.552  12.280 -0.1115  0.1823  0.5107
 6715TIP3    H141560   6.427   5.520  12.190 -0.4139 -0.0047  0.5369
 6715TIP3    H241561   6.383   5.641  12.270 -1.6169 -0.3560  0.4190
 6716TIP3   OH241562   5.404   0.333  17.068  0.0929 -0.4464 -0.0594
 6716TIP3    H141563   5.448   0.257  17.030  0.8847  0.8168 -1.7991
 6716TIP3    H241564   5.447   0.344  17.153  1.0169 -1.0583 -0.4237
 6717TIP3   OH241565   6.450   5.756   1.515 -0.5240 -0.1760 -0.2307
 6717TIP3    H141566   6.376   5.699   1.495 -0.6502 -0.2605  0.4340
 6717TIP3    H241567   6.512   5.700   1.562 -0.9826  0.3829  1.1040
 6718TIP3   OH241568   1.003   6.173  14.619 -0.5753 -0.0813 -0.2317
 6718TIP3    H141569   1.074   6.162  14.682  1.0951  2.1786 -1.5882
 6718TIP3    H241570   0.934   6.217  14.668 -1.5628 -3.0870  1.3451
 6719TIP3   OH241571   5.760   1.253   1.747  0.7854 -0.1187 -0.1267
 6719TIP3    H141572   5.749   1.313   1.674  0.3117  0.3101  0.2873
 6719TIP3    H241573   5.673   1.246   1.786  0.7009 -1.5166 -0.4952
 6720TIP3   OH241574   5.334   5.687   6.076 -0.3907  0.1188 -0.1363
 6720TIP3    H141575   5.302   5.699   6.166 -0.6427  0.4869 -0.2724
 6720TIP3    H241576   5.343   5.776   6.042  1.0953  0.0515  0.0052
 6721TIP3   OH241577   0.968   2.251  11.330  0.1385 -0.1534 -0.6656
 6721TIP3    H141578   0.933   2.332  11.295 -0.1359  1.0783  2.1815
 6721TIP3    H241579   1.031   2.278  11.397  1.2206 -2.3076 -0.7097
 6722TIP3   OH241580   3.640   0.801  16.873 -0.1844  0.0347  0.3390
 6722TIP3    H141581   3.701   0.728  16.880  0.9617  0.7559 -1.2778
 6722TIP3    H241582   3.583   0.778  16.799 -1.1244 -0.0805  1.0698
 6723TIP3   OH241583   4.131   6.617   5.910  0.1758 -0.0453  0.3510
 6723TIP3    H141584   4.061   6.552   5.908 -1.3169  1.4308  1.7179
 6723TIP3    H241585   4.178   6.599   5.992 -1.2977  1.5414  1.6291
 6724TIP3   OH241586   2.341   4.022  11.511 -0.2328  0.0533 -0.3259
 6724TIP3    H141587   2.321   3.962  11.583  0.9447  0.7876  0.6510
 6724TIP3    H241588   2.405   3.975  11.458 -0.8822 -0.3715 -0.7470
 6725TIP3   OH241589   3.647   5.685  13.461 -0.1305  0.0678  0.4206
 6725TIP3    H141590   3.646   5.617  13.394 -1.2591  0.1691  0.3245
 6725TIP3    H241591   3.689   5.643  13.536 -0.7571 -0.7241  0.3458
 6726TIP3   OH241592   5.435   2.456  14.705 -0.3976 -0.0833 -0.1877
 6726TIP3    H141593   5.499   2.446  14.775 -0.7929  0.8395  0.3183
 6726TIP3    H241594   5.485   2.439  14.625  0.5560  0.8915  0.1746
 6727TIP3   OH241595   5.889   1.745   3.039 -0.0326  0.1716  0.1673
 6727TIP3    H141596   5.876   1.654   3.067 -2.1404  0.5287  0.5426
 6727TIP3    H241597   5.931   1.788   3.114  0.7527 -0.4269  0.0786
 6728TIP3   OH241598   5.462   0.507  12.375 -0.3752  0.2959 -0.4353
 6728TIP3    H141599   5.512   0.518  12.294 -0.2746  0.1321 -0.3945
 6728TIP3    H241600   5.404   0.434  12.357 -2.5289  2.1102 -1.4502
 6729TIP3   OH241601   5.323   4.066  17.024  0.4484  0.0501  0.6303
 6729TIP3    H141602   5.320   4.032  17.113  0.0012 -0.3776  0.4537
 6729TIP3    H241603   5.277   4.149  17.028 -0.3936 -0.4062  0.6108
 6730TIP3   OH241604   6.010   5.788  11.302 -0.2458  0.4804  0.7259
 6730TIP3    H141605   6.026   5.843  11.379 -1.6521 -1.2015  2.3081
 6730TIP3    H241606   6.090   5.795  11.251  0.8363  1.4672  2.4616
 6731TIP3   OH241607   6.324   5.534   4.411 -0.3818  0.0283 -0.4518
 6731TIP3    H141608   6.317   5.624   4.378  0.7582 -0.0518 -0.9455
 6731TIP3    H241609   6.332   5.480   4.333 -1.2776 -0.5414 -0.1616
 6732TIP3   OH241610   6.060   1.160  10.620  0.3508  0.0077  0.5983
 6732TIP3    H141611   5.967   1.184  10.620  0.1878 -0.5684  0.9423
 6732TIP3    H241612   6.063   1.079  10.568  1.0314  1.2456 -1.3801
 6733TIP3   OH241613   2.121   5.444  12.933  0.1569  0.5534  0.5711
 6733TIP3    H141614   2.046   5.397  12.970  1.7104 -1.8629  0.8411
 6733TIP3    H241615   2.187   5.440  13.002  1.5455  0.0034 -0.7427
 6734TIP3   OH241616   3.305   3.173  14.788  0.0536  0.3948  0.7894
 6734TIP3    H141617   3.383   3.125  14.760  0.3979  0.3824  1.7353
 6734TIP3    H241618   3.282   3.135  14.873 -1.4524 -0.1327  0.1844
 6735TIP3   OH241619   6.178   4.909  15.926 -0.3098 -0.2049  0.0244
 6735TIP3    H141620   6.095   4.953  15.913 -1.0859 -0.9568  2.0347
 6735TIP3    H241621   6.158   4.816  15.918  0.0426 -0.4634  1.6940
 6736TIP3   OH241622   0.316   2.695  10.485 -0.0439  0.0729 -0.2158
 6736TIP3    H141623   0.301   2.771  10.542  0.0397  0.1848 -0.3403
 6736TIP3    H241624   0.368   2.730  10.413  2.4719 -0.7025  1.1386
 6737TIP3   OH241625   3.967   4.117  13.936 -0.4286  0.5919 -0.2692
 6737TIP3    H141626   4.000   4.052  13.998  1.8378  1.2464 -0.7057
 6737TIP3    H241627   3.996   4.201  13.971  0.5819  1.0072 -1.9734
 6738TIP3   OH241628   3.345   4.482  15.730  0.6202 -0.2887 -0.5295
 6738TIP3    H141629   3.256   4.451  15.712  0.2111 -1.1620  2.5241
 6738TIP3    H241630   3.399   4.403  15.730  0.7634 -0.2098  0.8869
 6739TIP3   OH241631   5.426   6.053   0.857  0.0958 -0.3162  0.6015
 6739TIP3    H141632   5.449   5.993   0.928 -1.0431 -1.4122  0.0901
 6739TIP3    H241633   5.510   6.086   0.825  0.7498 -1.5074  1.0314
 6740TIP3   OH241634   5.778   1.106   4.853  0.2465  0.0281 -0.2513
 6740TIP3    H141635   5.796   1.156   4.932 -0.7915 -0.7274  0.4937
 6740TIP3    H241636   5.754   1.018   4.884  0.9767 -0.6326 -1.4624
 6741TIP3   OH241637   5.985   1.821   4.342  0.1847 -0.1970  0.4600
 6741TIP3    H141638   5.994   1.913   4.316  0.6512  0.6123  3.0789
 6741TIP3    H241639   6.046   1.812   4.416  0.8349 -2.9061 -0.3112
 6742TIP3   OH241640   1.078   6.079   4.243  0.3552 -0.0768 -0.4726
 6742TIP3    H141641   1.066   6.057   4.335 -0.2105 -0.8182 -0.7112
 6742TIP3    H241642   1.035   6.164   4.233 -3.4649 -1.8526 -0.9094
 6743TIP3   OH241643   6.123   3.975   1.241  0.1599 -0.0257 -0.2004
 6743TIP3    H141644   6.108   4.023   1.159  3.2291  3.3977  0.9670
 6743TIP3    H241645   6.044   3.921   1.251 -1.2474  0.8264 -4.3530
 6744TIP3   OH241646   4.701   6.571   1.280  0.2412 -0.2415 -0.0144
 6744TIP3    H141647   4.729   6.540   1.194  0.1986 -2.0242  0.5717
 6744TIP3    H241648   4.695   6.492   1.334 -2.0250  0.5257  1.0065
 6745TIP3   OH241649   3.488   1.598  10.429 -0.3512 -0.1676  0.2301
 6745TIP3    H141650   3.504   1.514  10.384 -0.3891 -0.4164  0.6763
 6745TIP3    H241651   3.394   1.613  10.418 -0.7145 -1.1355  1.7600
 6746TIP3   OH241652   6.060   3.598  13.633  0.2891  0.4444 -0.0846
 6746TIP3    H141653   6.072   3.591  13.728  0.4068 -0.5097 -0.1620
 6746TIP3    H241654   5.980   3.549  13.615  0.4273  0.3715 -0.5092
 6747TIP3   OH241655   1.888   0.330  15.789  0.7449  0.0856  1.2048
 6747TIP3    H141656   1.866   0.405  15.734  0.4029 -2.4904 -2.6324
 6747TIP3    H241657   1.984   0.324  15.785  0.8078  0.5461  1.9021
 6748TIP3   OH241658   3.087   0.560   4.671  0.5941 -0.2940 -0.5890
 6748TIP3    H141659   3.116   0.564   4.762  1.6122 -2.7189 -0.7375
 6748TIP3    H241660   3.080   0.466   4.652 -4.5879 -0.0045 -1.4972
 6749TIP3   OH241661   0.782   3.936   0.810  0.6690 -0.8215 -0.1105
 6749TIP3    H141662   0.815   3.940   0.720  0.3421 -0.6266 -0.2243
 6749TIP3    H241663   0.688   3.953   0.801  0.1241 -3.3782 -0.0200
 6750TIP3   OH241664   0.145   3.499  15.638  0.3196  0.1643  0.1150
 6750TIP3    H141665   0.160   3.453  15.721 -0.1117  0.2321  0.2321
 6750TIP3    H241666   0.052   3.487  15.620  0.5124 -0.2773 -0.6259
 6751TIP3   OH241667   4.900   0.554   0.825  0.0726  0.0041 -0.0973
 6751TIP3    H141668   4.942   0.617   0.767 -0.0647  0.7205  0.5644
 6751TIP3    H241669   4.972   0.511   0.870  0.1181  1.0123  0.8099
 6752TIP3   OH241670   4.569   2.217  11.848 -0.2229  0.7314 -0.5258
 6752TIP3    H141671   4.593   2.296  11.896  0.8664  0.8557 -1.2482
 6752TIP3    H241672   4.559   2.245  11.758 -1.4168  0.3319 -0.5470
 6753TIP3   OH241673   3.660   4.480  15.081 -0.5498  0.1362 -0.4602
 6753TIP3    H141674   3.711   4.546  15.034 -0.9696  0.5992 -0.2601
 6753TIP3    H241675   3.598   4.447  15.016 -0.7542  0.3755 -0.3845
 6754TIP3   OH241676   0.734   2.923   1.274  0.0754  0.2964  0.2620
 6754TIP3    H141677   0.765   2.838   1.241  0.2173  0.4681 -0.0521
 6754TIP3    H241678   0.654   2.939   1.224 -1.5931 -1.0092  2.3347
 6755TIP3   OH241679   4.190   0.974   5.938  0.9032  0.1931 -0.0589
 6755TIP3    H141680   4.134   1.035   5.985 -0.8244 -0.7856 -0.7796
 6755TIP3    H241681   4.163   0.888   5.968 -0.5192 -0.5035 -2.9762
 6756TIP3   OH241682   5.798   4.376  12.631  0.0984 -0.4964 -0.5021
 6756TIP3    H141683   5.792   4.415  12.544  3.3278 -1.3240 -1.2225
 6756TIP3    H241684   5.791   4.450  12.691 -3.3600 -0.0278 -1.2741
 6757TIP3   OH241685   3.663   0.539  12.267  0.1903 -0.1137  0.0140
 6757TIP3    H141686   3.575   0.503  12.281 -0.7034  1.9815  0.2007
 6757TIP3    H241687   3.647   0.619  12.217  2.1850 -0.6168 -1.5483
 6758TIP3   OH241688   6.364   5.866   2.624  0.4285 -0.1803  0.7673
 6758TIP3    H141689   6.402   5.917   2.696  1.3357 -0.9509  0.8553
 6758TIP3    H241690   6.362   5.927   2.550 -3.0504  1.5339  2.0374
 6759TIP3   OH241691   6.197   2.279  14.325  0.4331  0.9146 -0.3051
 6759TIP3    H141692   6.151   2.358  14.354  1.3912  1.4647 -0.2479
 6759TIP3    H241693   6.240   2.306  14.243  1.9273  0.8798  0.4477
 6760TIP3   OH241694   3.214   5.161  16.610  0.1074  0.1205  0.6027
 6760TIP3    H141695   3.141   5.195  16.661  0.0727  0.5209  0.2861
 6760TIP3    H241696   3.256   5.238  16.573  0.2959 -0.1517  0.2435
 6761TIP3   OH241697   0.969   5.965  13.202 -0.0713 -0.9397 -0.0876
 6761TIP3    H141698   0.906   6.038  13.200  2.0873  1.0518  0.7725
 6761TIP3    H241699   0.926   5.899  13.257 -0.1113  1.7475  3.4411
 6762TIP3   OH241700   3.644   5.992   4.329  0.3075 -0.0394  0.0183
 6762TIP3    H141701   3.560   5.950   4.311  0.3244  0.8728 -2.5938
 6762TIP3    H241702   3.645   6.069   4.272  1.2854  2.2381  2.8218
 6763TIP3   OH241703   4.535   4.029   2.918 -0.1918  0.5389 -0.0749
 6763TIP3    H141704   4.519   3.943   2.879 -0.4089  1.5867 -2.5372
 6763TIP3    H241705   4.457   4.080   2.896 -0.0686  1.3757  1.3391
 6764TIP3   OH241706   3.696   2.900   0.152 -0.0952  0.0097 -0.2333
 6764TIP3    H141707   3.700   2.968   0.220 -2.8429  0.8709 -0.7897
 6764TIP3    H241708   3.787   2.883   0.129  0.7887  1.6589  1.7297
 6765TIP3   OH241709   2.665   0.896   4.713 -0.4727  0.1066 -0.1088
 6765TIP3    H141710   2.732   0.865   4.774 -2.8283 -1.7848  1.6778
 6765TIP3    H241711   2.707   0.888   4.627  1.3835 -1.6828  0.8570
 6766TIP3   OH241712   0.253   4.824  14.587 -0.1449 -0.4148 -0.6458
 6766TIP3    H141713   0.231   4.848  14.497  0.5600 -1.0015 -0.9869
 6766TIP3    H241714   0.305   4.745  14.578 -2.4899 -2.2191  0.4237
 6767TIP3   OH241715   1.546   2.029  14.816 -0.4311  0.0061 -0.0931
 6767TIP3    H141716   1.586   2.104  14.858  1.0065 -0.3594 -0.7521
 6767TIP3    H241717   1.620   1.973  14.791 -1.4505 -1.5171  0.1764
 6768TIP3   OH241718   0.976   4.349   1.912  0.3516  0.4801  0.5020
 6768TIP3    H141719   1.065   4.315   1.925  0.2311 -0.2401 -0.4836
 6768TIP3    H241720   0.956   4.329   1.821 -0.9783  0.3026  0.8220
 6769TIP3   OH241721   2.413   3.480   2.161 -0.0823 -0.2714  0.0271
 6769TIP3    H141722   2.364   3.431   2.228  1.9371 -2.1190  0.2578
 6769TIP3    H241723   2.499   3.439   2.160  0.7081  1.2971 -2.0489
 6770TIP3   OH241724   5.933   2.475   4.440  0.3403  0.3097 -0.1897
 6770TIP3    H141725   5.906   2.462   4.531 -1.4692  0.6864 -0.6235
 6770TIP3    H241726   5.912   2.392   4.397 -1.1063  0.9311 -0.7380
 6771TIP3   OH241727   1.924   5.557  15.875 -0.5659  0.8108 -0.4274
 6771TIP3    H141728   2.014   5.527  15.858 -0.3831 -0.4615  2.2706
 6771TIP3    H241729   1.934   5.645  15.911 -0.4757  1.0220 -0.9675
 6772TIP3   OH241730   4.710   1.943   0.449  0.5249 -0.1325  0.4240
 6772TIP3    H141731   4.744   1.953   0.538  0.4447  0.5068  0.3916
 6772TIP3    H241732   4.615   1.955   0.459  0.4225 -0.8638  0.3643
 6773TIP3   OH241733   0.833   5.426  13.770 -0.2220 -0.1726  0.3218
 6773TIP3    H141734   0.785   5.361  13.822 -1.2759 -0.4113 -0.9134
 6773TIP3    H241735   0.794   5.509  13.795 -0.8168 -0.2992 -0.1725
 6774TIP3   OH241736   3.807   3.106   5.088  0.1072 -0.1657  0.1084
 6774TIP3    H141737   3.827   3.196   5.115  1.5515 -0.6551  0.7246
 6774TIP3    H241738   3.800   3.057   5.170 -0.6863 -0.6346 -0.2238
 6775TIP3   OH241739   4.696   3.629  16.901  0.2199  0.1813  0.1327
 6775TIP3    H141740   4.759   3.667  16.840  0.2783  0.1820  0.1941
 6775TIP3    H241741   4.631   3.587  16.845  0.9935 -0.9828  0.0693
 6776TIP3   OH241742   6.249   3.729   5.937  0.2742  0.1055  0.8862
 6776TIP3    H141743   6.296   3.771   6.008 -0.8632 -0.2148  1.8517
 6776TIP3    H241744   6.314   3.671   5.896  1.0527  0.6295  1.3663
 6777TIP3   OH241745   4.766   3.746   5.693 -0.6153  0.8636  0.7352
 6777TIP3    H141746   4.745   3.675   5.753 -1.1857  2.0632  1.9915
 6777TIP3    H241747   4.862   3.745   5.688 -0.6429 -0.4541  0.1344
 6778TIP3   OH241748   1.350   4.797  13.709  0.6544  0.0556  0.4179
 6778TIP3    H141749   1.346   4.836  13.796 -1.9840  2.6429 -0.7015
 6778TIP3    H241750   1.290   4.722  13.714  0.2511  0.3939  0.7586
 6779TIP3   OH241751   4.157   0.177   6.492  0.3775  0.4945  0.2744
 6779TIP3    H141752   4.239   0.204   6.534 -0.1843  1.9722  0.4994
 6779TIP3    H241753   4.090   0.196   6.558 -0.2088 -0.1841 -0.1119
 6780TIP3   OH241754   3.632   1.738  11.498 -0.9502  0.2945  0.2962
 6780TIP3    H141755   3.616   1.780  11.414  1.1683 -1.3918 -1.0558
 6780TIP3    H241756   3.584   1.655  11.494 -1.0174  0.3058  0.8333
 6781TIP3   OH241757   6.118   1.562  16.841  1.0652 -0.2778 -0.1683
 6781TIP3    H141758   6.114   1.598  16.752 -0.8185 -0.6569 -0.2907
 6781TIP3    H241759   6.039   1.596  16.884  1.3586 -1.0104  0.9960
 6782TIP3   OH241760   4.837   6.307   4.512  0.0783 -0.4711  0.0562
 6782TIP3    H141761   4.820   6.316   4.418  1.6616  0.6471 -0.1615
 6782TIP3    H241762   4.750   6.299   4.551 -0.5656 -2.2365 -1.5941
 6783TIP3   OH241763   4.736   5.973   4.182  0.1699 -0.5852  0.1946
 6783TIP3    H141764   4.733   6.005   4.272 -0.6183  1.8517 -0.6257
 6783TIP3    H241765   4.651   5.932   4.169 -0.3850  0.5450  0.1006
 6784TIP3   OH241766   1.285   6.285   1.788  0.0975 -0.0655 -0.5464
 6784TIP3    H141767   1.247   6.346   1.852  0.3856  0.0192 -0.4550
 6784TIP3    H241768   1.283   6.200   1.832 -3.2846 -0.8231 -1.8074
 6785TIP3   OH241769   6.531   3.239   1.713  0.2062  0.3542 -0.5390
 6785TIP3    H141770   6.499   3.320   1.753 -0.0483  0.4968 -1.0226
 6785TIP3    H241771   6.451   3.193   1.687  0.3758  0.2897 -0.9394
 6786TIP3   OH241772   1.221   3.505  13.495  0.2178  0.2206  0.2540
 6786TIP3    H141773   1.248   3.416  13.471 -0.1206  0.1023  0.3106
 6786TIP3    H241774   1.222   3.505  13.591  0.7978  0.4572  0.2524
 6787TIP3   OH241775   2.665   4.215  11.325  0.5330 -0.4868 -0.6579
 6787TIP3    H141776   2.637   4.306  11.328  0.4160 -0.5232 -0.6436
 6787TIP3    H241777   2.658   4.185  11.416  1.4901 -0.2327 -0.4830
 6788TIP3   OH241778   2.308   1.384  13.554  0.1046 -0.2616  0.2601
 6788TIP3    H141779   2.401   1.365  13.560  0.0825  0.0314  2.6736
 6788TIP3    H241780   2.270   1.308  13.510  1.4918 -0.1843 -1.1552
 6789TIP3   OH241781   1.842   3.606   5.037  0.2574 -0.2081 -0.5082
 6789TIP3    H141782   1.825   3.543   5.107  0.6510 -0.5614 -0.7276
 6789TIP3    H241783   1.759   3.653   5.027  0.0682 -0.4490 -0.1017
 6790TIP3   OH241784   0.170   1.852  16.618 -0.5230  0.3019 -0.3634
 6790TIP3    H141785   0.245   1.911  16.627 -0.2475 -0.0465 -0.3751
 6790TIP3    H241786   0.096   1.902  16.654 -0.2232  0.5164 -0.0433
 6791TIP3   OH241787   2.157   0.572   6.039 -0.2873  0.1000  0.3729
 6791TIP3    H141788   2.135   0.625   5.963  1.3055 -0.4734 -0.5261
 6791TIP3    H241789   2.221   0.624   6.088 -0.0737 -0.2211  0.4426
 6792TIP3   OH241790   5.657   0.481   5.939 -0.2916  0.8656 -0.4348
 6792TIP3    H141791   5.701   0.485   6.024 -0.5299  0.3910 -0.2840
 6792TIP3    H241792   5.564   0.486   5.959 -0.3218  1.5385 -0.7288
 6793TIP3   OH241793   1.632   3.431   6.289 -0.1120 -0.1997  0.3477
 6793TIP3    H141794   1.582   3.512   6.283  1.7500  0.9404 -1.1044
 6793TIP3    H241795   1.684   3.430   6.208  0.0516 -2.7733  0.4143
 6794TIP3   OH241796   2.466   1.604  12.036 -0.7497 -0.4160  0.6108
 6794TIP3    H141797   2.429   1.559  12.113 -0.3220 -0.5731  0.7260
 6794TIP3    H241798   2.514   1.679  12.073 -0.6738 -0.4025  0.4847
 6795TIP3   OH241799   4.503   3.168   3.675  0.0537  0.2551  0.2553
 6795TIP3    H141800   4.424   3.134   3.717  1.4077 -1.6147  1.4391
 6795TIP3    H241801   4.567   3.097   3.682  1.0611  0.6492 -3.1109
 6796TIP3   OH241802   5.804   0.079   1.946  0.3141  0.3117 -0.2416
 6796TIP3    H141803   5.843   0.003   1.990 -0.3117  0.5992  0.8285
 6796TIP3    H241804   5.713   0.079   1.973 -0.2100  0.2533 -1.9047
 6797TIP3   OH241805   0.599   0.862  14.998 -0.1928  0.0988  0.2608
 6797TIP3    H141806   0.627   0.782  15.044 -1.6723 -0.6550 -0.1172
 6797TIP3    H241807   0.658   0.868  14.923 -0.3768 -0.9236  0.0166
 6798TIP3   OH241808   4.055   6.612  16.326  0.7004 -0.1339  0.2567
 6798TIP3    H141809   4.097   6.578  16.247 -1.6826 -1.9110 -0.3726
 6798TIP3    H241810   4.110   6.582  16.398  1.2298 -1.2076 -0.5757
 6799TIP3   OH241811   0.073   3.212   2.781 -0.1075 -0.9302 -0.1076
 6799TIP3    H141812   0.081   3.192   2.688 -0.8149 -0.7980 -0.2037
 6799TIP3    H241813   0.027   3.136   2.818  1.7962 -1.8434  0.4859
 6800TIP3   OH241814   3.644   5.466   5.217  0.1785  0.4298 -0.4000
 6800TIP3    H141815   3.738   5.452   5.226 -0.0045 -0.4410  0.2549
 6800TIP3    H241816   3.606   5.379   5.214 -0.6218  0.7736 -0.5713
 6801TIP3   OH241817   4.210   3.967   3.360  0.4242 -0.6162 -0.0317
 6801TIP3    H141818   4.283   3.907   3.351  1.9682  1.0054  1.1392
 6801TIP3    H241819   4.250   4.051   3.381 -1.7230  0.5697 -0.3947
 6802TIP3   OH241820   3.170   2.627  12.900  0.0747  0.4180 -0.5970
 6802TIP3    H141821   3.109   2.554  12.885 -0.8945  0.7278  1.5448
 6802TIP3    H241822   3.256   2.589  12.883 -0.2819 -1.6726  1.7138
 6803TIP3   OH241823   6.541   4.764  14.603  0.2575  0.4636  0.1261
 6803TIP3    H141824   6.512   4.853  14.625  0.0454  0.2132  0.8880
 6803TIP3    H241825   6.491   4.708  14.661  0.5079 -0.1512 -0.2445
 6804TIP3   OH241826   4.804   1.391  13.331  0.4045 -0.5240  0.0816
 6804TIP3    H141827   4.783   1.440  13.411  0.3870 -1.3954  0.6266
 6804TIP3    H241828   4.898   1.405  13.318 -0.0080  1.5379 -1.0914
 6805TIP3   OH241829   2.062   6.177  15.159 -0.3277 -0.0015  0.2330
 6805TIP3    H141830   2.003   6.126  15.215  0.6175 -0.1662  1.1196
 6805TIP3    H241831   2.089   6.116  15.091  0.3858 -0.5665  0.9883
 6806TIP3   OH241832   3.456   0.883  15.434  0.4068 -0.2338 -0.1409
 6806TIP3    H141833   3.457   0.888  15.338 -0.2016  1.1786 -0.1063
 6806TIP3    H241834   3.417   0.966  15.461 -1.5180 -1.5188  1.2628
 6807TIP3   OH241835   1.768   6.632   4.661  0.4264  0.1482 -0.2852
 6807TIP3    H141836   1.812   6.566   4.607  0.0292 -0.3200 -0.0461
 6807TIP3    H241837   1.743   6.584   4.740 -1.6425  0.0755 -0.9411
 6808TIP3   OH241838   2.586   1.376   2.402 -0.0839  0.1547 -0.1274
 6808TIP3    H141839   2.539   1.313   2.347 -2.2915 -0.7405  2.5076
 6808TIP3    H241840   2.596   1.330   2.486 -2.5951  3.4292  2.2465
 6809TIP3   OH241841   4.809   5.979  15.961 -0.1661  0.0787 -0.5496
 6809TIP3    H141842   4.808   5.891  15.999 -3.4478 -0.3817 -1.4337
 6809TIP3    H241843   4.869   5.972  15.886 -0.2083 -1.3356 -0.4758
 6810TIP3   OH241844   5.260   4.173   6.316  0.2506 -0.0988  0.1537
 6810TIP3    H141845   5.340   4.124   6.297 -0.5180 -0.8917 -1.2840
 6810TIP3    H241846   5.209   4.166   6.235 -1.8021 -0.6870  1.4219
 6811TIP3   OH241847   3.701   2.704  13.253 -0.2285  0.0825  0.0069
 6811TIP3    H141848   3.732   2.671  13.169 -0.8496 -1.1258  0.2285
 6811TIP3    H241849   3.781   2.720  13.304  0.0888 -1.6379  0.0853
 6812TIP3   OH241850   5.177   1.220  16.404 -0.1671  0.5940 -0.0318
 6812TIP3    H141851   5.255   1.179  16.441  1.3012  0.1805 -3.2531
 6812TIP3    H241852   5.207   1.304  16.370 -0.9523  0.2176 -1.7755
 6813TIP3   OH241853   2.321   0.874   2.309 -0.1783 -0.5942 -0.3505
 6813TIP3    H141854   2.231   0.853   2.331 -0.0273 -1.2348 -0.3485
 6813TIP3    H241855   2.336   0.831   2.225  0.6459 -1.8896  0.4447
 6814TIP3   OH241856   5.274   2.479  13.906  0.4979  0.0055  0.4856
 6814TIP3    H141857   5.257   2.399  13.956  0.1116 -0.0840  0.2152
 6814TIP3    H241858   5.207   2.541  13.937 -2.3079 -1.1995 -2.5540
 6815TIP3   OH241859   5.293   5.458  16.346  0.2076 -0.4789  0.4794
 6815TIP3    H141860   5.358   5.398  16.384  0.9247 -0.4245 -0.6241
 6815TIP3    H241861   5.343   5.511  16.284 -0.8180 -0.1227 -0.0552
 6816TIP3   OH241862   0.898   6.049  11.544  0.4138  0.6899 -0.1791
 6816TIP3    H141863   0.819   6.041  11.596  2.4378 -3.7991  2.8291
 6816TIP3    H241864   0.888   5.984  11.475  2.3049 -1.9999  1.8724
 6817TIP3   OH241865   4.073   3.015  13.347  0.1079 -0.2452  0.5051
 6817TIP3    H141866   4.113   2.928  13.349  0.3210 -0.1423  0.8845
 6817TIP3    H241867   3.980   2.998  13.336  0.3310 -0.4575 -1.4382
 6818TIP3   OH241868   0.692   6.011  11.716 -0.1671 -0.1409 -0.2069
 6818TIP3    H141869   0.607   6.056  11.718 -0.4688 -0.7027  0.0106
 6818TIP3    H241870   0.731   6.029  11.801  0.2368  0.6844 -0.5633
 6819TIP3   OH241871   5.514   3.571  11.900 -0.1974  0.1649 -0.6180
 6819TIP3    H141872   5.507   3.492  11.955  0.5180 -0.1727 -0.9914
 6819TIP3    H241873   5.599   3.608  11.923  0.1669 -0.0481 -1.5730
 6820TIP3   OH241874   6.279   4.865  13.666  0.0234  0.1295  0.2965
 6820TIP3    H141875   6.281   4.798  13.598 -1.9482  0.2967 -0.0028
 6820TIP3    H241876   6.204   4.920  13.643  0.1573  1.0299  1.8390
 6821TIP3   OH241877   1.104   2.366  14.318 -0.4891 -0.3059  0.5730
 6821TIP3    H141878   1.084   2.359  14.225  1.0143  0.6207  0.1431
 6821TIP3    H241879   1.200   2.368  14.322 -0.5169 -0.7158  2.1774
 6822TIP3   OH241880   6.669   1.388   0.289  0.0724 -0.1297 -0.6124
 6822TIP3    H141881   6.714   1.315   0.331  0.7124  0.4861 -0.2052
 6822TIP3    H241882   6.628   1.436   0.361 -0.2235  0.0011 -0.8632
 6823TIP3   OH241883   2.261   3.276  12.999 -0.0480  0.2478  0.3480
 6823TIP3    H141884   2.326   3.343  12.977 -0.3375  0.3218 -0.3177
 6823TIP3    H241885   2.281   3.203  12.939  0.4303 -0.3789  1.2433
 6824TIP3   OH241886   4.644   4.303   4.781 -0.2422  0.6179  0.5007
 6824TIP3    H141887   4.722   4.359   4.782 -0.9475  1.6410 -0.1784
 6824TIP3    H241888   4.625   4.285   4.873  1.3954 -0.5282  0.6607
 6825TIP3   OH241889   2.982   6.573  13.140 -0.1117  0.2906 -0.7218
 6825TIP3    H141890   3.021   6.646  13.093 -1.6987  0.8117 -1.2973
 6825TIP3    H241891   2.915   6.539  13.082 -2.4286  1.2118  1.2270
 6826TIP3   OH241892   5.349   6.592   3.024  0.5492 -0.3653  0.8643
 6826TIP3    H141893   5.314   6.677   2.997 -3.1147 -1.1912  2.3960
 6826TIP3    H241894   5.411   6.568   2.954 -0.8621  2.0199 -1.3715
 6827TIP3   OH241895   4.065   3.422   4.564  0.0880 -0.0019 -0.8731
 6827TIP3    H141896   4.012   3.483   4.513  1.0614  0.6989 -1.0777
 6827TIP3    H241897   4.070   3.462   4.651 -1.8412 -1.3552 -0.0703
 6828TIP3   OH241898   5.224   5.048   0.906  0.7601 -0.6595  0.4361
 6828TIP3    H141899   5.156   5.052   0.974  1.9542 -0.9943  1.6812
 6828TIP3    H241900   5.194   4.980   0.846 -1.1223  0.7293 -0.3272
 6829TIP3   OH241901   3.139   3.112  15.552 -0.3369  0.2873  0.2376
 6829TIP3    H141902   3.152   3.113  15.457  0.5195 -1.2550  0.2890
 6829TIP3    H241903   3.081   3.186  15.570  0.8072  1.6374 -1.2842
 6830TIP3   OH241904   0.169   2.168   1.844 -0.4681 -0.1553 -0.4426
 6830TIP3    H141905   0.138   2.230   1.910  1.9929 -1.0830  1.7597
 6830TIP3    H241906   0.244   2.213   1.803  0.7641 -1.2272  0.5382
 6831TIP3   OH241907   0.223   5.322   3.722  0.6526  0.2319 -0.4122
 6831TIP3    H141908   0.309   5.311   3.762  1.1802  0.0995 -1.5547
 6831TIP3    H241909   0.176   5.242   3.744  0.6260  0.5227  0.6540
 6832TIP3   OH241910   3.908   4.898  11.811 -0.6488  0.0331  0.2779
 6832TIP3    H141911   3.895   4.929  11.901 -1.2116  1.7607 -0.3612
 6832TIP3    H241912   3.993   4.935  11.786 -0.6591 -0.1501 -0.0315
 6833TIP3   OH241913   3.466   2.236   2.560 -0.0193  0.0112 -0.1950
 6833TIP3    H141914   3.396   2.262   2.500 -0.2208  1.3791  0.5937
 6833TIP3    H241915   3.547   2.248   2.510 -0.0957  2.4084  0.1730
 6834TIP3   OH241916   4.270   2.409   5.011  0.0235 -0.1259  0.1165
 6834TIP3    H141917   4.184   2.431   5.047 -0.1681  0.7094 -0.7962
 6834TIP3    H241918   4.323   2.486   5.029 -0.2368  0.5738 -1.8223
 6835TIP3   OH241919   5.911   0.151   0.237  0.5899 -0.0410 -0.5694
 6835TIP3    H141920   5.855   0.093   0.185  0.3407 -0.9854  0.7048
 6835TIP3    H241921   5.850   0.205   0.287  0.8155  1.6040 -1.9867
 6836TIP3   OH241922   2.416   4.138  13.462  0.0071 -0.7402  0.2921
 6836TIP3    H141923   2.373   4.107  13.541 -0.8457 -0.5318 -0.0751
 6836TIP3    H241924   2.493   4.185  13.493 -0.2667 -0.7433  0.9888
 6837TIP3   OH241925   2.244   5.592   3.563 -0.0198 -0.2980 -0.3662
 6837TIP3    H141926   2.281   5.520   3.512  1.0911 -0.0049 -0.0162
 6837TIP3    H241927   2.240   5.559   3.653  3.1008  0.8914  0.3499
 6838TIP3   OH241928   1.187   4.816   5.075 -0.5467  0.1466  0.0417
 6838TIP3    H141929   1.235   4.769   5.007 -3.1424 -0.0963 -1.7862
 6838TIP3    H241930   1.253   4.866   5.121  1.9541 -3.0015  0.1819
 6839TIP3   OH241931   6.502   5.593   5.722  0.5767  0.0557  0.3099
 6839TIP3    H141932   6.461   5.619   5.805 -0.7580  2.4519 -0.9841
 6839TIP3    H241933   6.429   5.564   5.667  1.3649 -0.9341 -0.2414
 6840TIP3   OH241934   6.202   6.179  13.489 -0.3232 -0.7025  0.6489
 6840TIP3    H141935   6.126   6.185  13.547 -1.7134 -1.2182 -1.0373
 6840TIP3    H241936   6.184   6.239  13.418  0.7246 -1.0439  0.0613
 6841TIP3   OH241937   1.515   2.252   3.742  0.0051 -0.2923 -0.0251
 6841TIP3    H141938   1.458   2.176   3.741  1.3388 -1.3658  1.3174
 6841TIP3    H241939   1.594   2.222   3.786  0.3745  2.0118  1.0264
 6842TIP3   OH241940   3.637   4.035   6.192 -0.3874  0.0907 -0.4527
 6842TIP3    H141941   3.652   3.972   6.263  0.6019  1.9312  1.0595
 6842TIP3    H241942   3.542   4.039   6.183 -0.4676 -1.5837 -0.5633
 6843TIP3   OH241943   0.655   4.821   3.867  0.9179 -0.1412  0.2910
 6843TIP3    H141944   0.632   4.801   3.958 -1.4504 -0.0784 -0.2433
 6843TIP3    H241945   0.584   4.877   3.836  0.8612 -1.4065 -2.0618
 6844TIP3   OH241946   0.084   3.076   5.575  0.0186 -0.0076 -0.2114
 6844TIP3    H141947   0.012   3.028   5.617 -0.9396  0.7721 -0.9088
 6844TIP3    H241948   0.055   3.167   5.574  1.2330  0.4023 -0.0936
 6845TIP3   OH241949   1.094   2.372  11.068 -0.2328  0.0709  0.1902
 6845TIP3    H141950   1.093   2.397  10.975 -0.1306 -0.7696 -0.0422
 6845TIP3    H241951   1.004   2.390  11.097 -0.4407 -0.2497 -0.2334
 6846TIP3   OH241952   3.498   6.614   1.816 -0.3179 -1.0589  0.3584
 6846TIP3    H141953   3.562   6.596   1.886  1.6364  3.3900  0.0010
 6846TIP3    H241954   3.546   6.598   1.735 -0.6026 -0.4348  0.0642
 6847TIP3   OH241955   0.529   0.237  15.135 -0.5718 -0.1241 -0.9390
 6847TIP3    H141956   0.564   0.185  15.207 -1.3117  0.9585  0.2492
 6847TIP3    H241957   0.566   0.324  15.149  1.7974 -0.5315 -3.6952
 6848TIP3   OH241958   6.656   6.331  16.515 -0.1171 -0.4914  0.3728
 6848TIP3    H141959   6.638   6.293  16.601  1.2395 -0.0478  0.8874
 6848TIP3    H241960   6.677   6.257  16.460  1.9882 -0.6164  1.2348
 6849TIP3   OH241961   5.034   0.996   0.852  0.3363  0.1954  0.4794
 6849TIP3    H141962   5.027   0.927   0.918  0.9131 -2.0438 -1.6309
 6849TIP3    H241963   5.014   0.951   0.769  0.2743  2.7123 -0.9615
 6850TIP3   OH241964   0.173   4.933   3.696  0.3650 -0.5221  0.0312
 6850TIP3    H141965   0.114   4.859   3.710 -0.5941  0.3881  0.9755
 6850TIP3    H241966   0.172   4.947   3.601 -0.8345 -0.6186  0.0162
 6851TIP3   OH241967   6.070   0.126  13.098  0.1080  0.0593  0.2920
 6851TIP3    H141968   5.990   0.177  13.088 -0.3211 -0.8250 -1.0352
 6851TIP3    H241969   6.113   0.131  13.013  0.6764 -0.7402  0.5181
 6852TIP3   OH241970   5.727   1.798  13.315  1.0029 -0.6305  0.3139
 6852TIP3    H141971   5.727   1.799  13.411  0.9458  0.9410  0.3203
 6852TIP3    H241972   5.768   1.714  13.292  3.4087  0.0444  1.7409
 6853TIP3   OH241973   6.671   3.705  11.892 -0.5410 -0.1132 -0.3422
 6853TIP3    H141974   6.755   3.749  11.897 -0.6004 -0.0832  0.5992
 6853TIP3    H241975   6.692   3.612  11.904 -0.6774 -0.0617  0.3366
 6854TIP3   OH241976   6.061   4.331  16.568 -0.1401 -0.2842  0.3378
 6854TIP3    H141977   6.084   4.287  16.486 -0.3748  0.0793  0.0779
 6854TIP3    H241978   6.125   4.401  16.577  0.0303 -0.4673  0.5888
 6855TIP3   OH241979   2.774   4.410  15.166  0.0573 -0.1179  0.2086
 6855TIP3    H141980   2.720   4.488  15.175  1.7005  1.2880 -1.4021
 6855TIP3    H241981   2.827   4.426  15.088  1.2107 -2.3892  0.4425
 6856TIP3   OH241982   2.352   4.463   2.471 -0.4367  0.5728  0.1238
 6856TIP3    H141983   2.321   4.523   2.404 -0.9825 -0.4906 -0.6132
 6856TIP3    H241984   2.430   4.422   2.434 -1.2720 -0.7137 -0.3098
 6857TIP3   OH241985   6.377   5.368   0.951  0.6557  0.4771 -0.6961
 6857TIP3    H141986   6.457   5.377   0.899  0.0692  3.9198 -1.2266
 6857TIP3    H241987   6.383   5.436   1.018 -0.4726 -1.2456  1.3210
 6858TIP3   OH241988   6.473   6.693  15.913  0.3632  0.0585  0.3313
 6858TIP3    H141989   6.486   6.741  15.831  0.7712  0.4002  0.5911
 6858TIP3    H241990   6.379   6.675  15.916  0.4676 -0.6740 -0.6029
 6859TIP3   OH241991   6.687   6.241  13.289 -0.1729 -0.2942  0.4282
 6859TIP3    H141992   6.745   6.292  13.232 -1.1748  0.1844 -0.1752
 6859TIP3    H241993   6.747   6.199  13.351  0.7290  1.1550  0.5975
 6860TIP3   OH241994   3.513   6.110  11.195  0.0190  0.4188  0.2929
 6860TIP3    H141995   3.471   6.028  11.169  0.5096  1.0084 -2.8960
 6860TIP3    H241996   3.468   6.136  11.275 -0.7545 -2.4845  0.9178
 6861TIP3   OH241997   4.122   3.952   2.274  0.5006 -0.1271 -0.2978
 6861TIP3    H141998   4.165   4.004   2.206 -1.3634 -0.2180 -1.6200
 6861TIP3    H241999   4.035   3.991   2.283  0.2211 -0.9855  1.0708
 6862TIP3   OH242000   5.915   0.699  14.225 -0.1394 -1.1770  0.7279
 6862TIP3    H142001   5.992   0.642  14.227  0.4602 -0.5284 -1.2165
 6862TIP3    H242002   5.874   0.687  14.310  0.6332 -3.5712  0.8455
 6863TIP3   OH242003   6.167   4.699  14.383  0.0073 -0.2724  0.2542
 6863TIP3    H142004   6.077   4.666  14.378  0.0833 -1.0747  2.8853
 6863TIP3    H242005   6.172   4.744  14.467  1.3520  2.1890 -1.0313
 6864TIP3   OH242006   3.857   4.736   4.874  0.2473 -0.3002  0.3205
 6864TIP3    H142007   3.950   4.729   4.892  0.6450 -1.0591 -1.7680
 6864TIP3    H242008   3.833   4.653   4.834 -0.9780  0.4181 -0.5285
 6865TIP3   OH242009   1.292   0.208   0.060  0.3432  0.0967  0.3143
 6865TIP3    H142010   1.383   0.236   0.068  0.4148  0.0090 -0.1786
 6865TIP3    H242011   1.293   0.145  -0.012  0.2246 -1.3116  1.4955
 6866TIP3   OH242012   3.674   1.879   1.874 -0.3759 -0.8789  0.1550
 6866TIP3    H142013   3.713   1.798   1.907  1.0265 -0.8622 -1.3487
 6866TIP3    H242014   3.685   1.874   1.779  1.0965  1.6988  0.0994
 6867TIP3   OH242015   0.081   2.787   5.893 -0.7035 -0.6196 -0.0672
 6867TIP3    H142016   0.159   2.834   5.867 -2.5047  1.9398 -1.2888
 6867TIP3    H242017   0.068   2.811   5.985  0.3252 -1.7209  0.3918
 6868TIP3   OH242018   0.448   6.531  13.762  0.2554 -0.4636 -0.0660
 6868TIP3    H142019   0.537   6.520  13.729 -0.1486  0.2169 -1.4803
 6868TIP3    H242020   0.404   6.448  13.742 -0.4996  0.5303 -3.1172
 6869TIP3   OH242021   3.761   0.809  12.193 -0.3469  0.6749  1.0589
 6869TIP3    H142022   3.841   0.785  12.238 -0.8191 -1.3291  0.9094
 6869TIP3    H242023   3.712   0.861  12.257  0.6117  1.0752  1.4881
 6870TIP3   OH242024   6.072   6.037   0.159 -0.9369 -0.2087  0.3432
 6870TIP3    H142025   6.106   6.112   0.111  1.1944 -0.1847  1.7388
 6870TIP3    H242026   6.093   5.961   0.105 -2.6283  0.0959 -0.8221
 6871TIP3   OH242027   3.082   5.519   2.944 -0.5322 -0.1144  0.5858
 6871TIP3    H142028   3.055   5.463   2.871  0.2840 -0.5870  0.6393
 6871TIP3    H242029   3.050   5.606   2.920 -1.2635 -0.4804  0.2058
 6872TIP3   OH242030   5.996   4.674   4.912  0.0796 -0.0500  0.4025
 6872TIP3    H142031   6.058   4.747   4.910  0.6849 -0.5666 -1.2049
 6872TIP3    H242032   6.051   4.596   4.899 -0.8730 -0.5300 -0.8432
 6873TIP3   OH242033   2.292   4.799   2.766 -0.4161 -0.0595  0.3984
 6873TIP3    H142034   2.253   4.712   2.757 -2.7998  0.9594 -0.0453
 6873TIP3    H242035   2.334   4.815   2.682 -2.3595  0.2223 -0.5920
 6874TIP3   OH242036   3.053   6.488  15.691  0.8492 -0.3001  0.1906
 6874TIP3    H142037   3.088   6.487  15.602 -0.3129 -0.5174 -0.2800
 6874TIP3    H242038   3.119   6.533  15.742  1.7138 -0.5093 -0.7099
 6875TIP3   OH242039   0.336   0.792   3.929 -0.2969 -0.2819  0.7376
 6875TIP3    H142040   0.256   0.780   3.878  0.1055  0.0694  0.0052
 6875TIP3    H242041   0.387   0.713   3.913  1.3097  1.1817 -2.1766
 6876TIP3   OH242042   1.190   0.201  13.959  0.0529  0.6499 -0.4156
 6876TIP3    H142043   1.102   0.239  13.963 -0.6012 -0.7424 -0.8716
 6876TIP3    H242044   1.175   0.109  13.934  1.5391  0.0209  0.8637
 6877TIP3   OH242045   0.329   6.543  11.855  0.1148  0.2618  0.0489
 6877TIP3    H142046   0.341   6.448  11.862 -0.8058  0.1225 -0.1083
 6877TIP3    H242047   0.237   6.554  11.834 -0.1215  1.2487  1.4141
 6878TIP3   OH242048   6.420   4.134   6.255  0.3754 -0.1615  0.0472
 6878TIP3    H142049   6.403   4.139   6.349  1.5991 -0.9878  0.3447
 6878TIP3    H242050   6.361   4.198   6.216  1.2878  1.7096  1.5602
 6879TIP3   OH242051   0.124   3.127   2.482 -0.0148  0.1924  0.2159
 6879TIP3    H142052   0.162   3.213   2.465 -0.1292 -0.0173 -1.1861
 6879TIP3    H242053   0.158   3.071   2.412 -0.1380 -0.8456  0.9643
 6880TIP3   OH242054   1.552   4.924  12.736 -1.0090  0.4436 -0.6144
 6880TIP3    H142055   1.505   4.952  12.657  1.2548  1.0722 -1.8213
 6880TIP3    H242056   1.586   4.837  12.713  0.0524  0.8272 -0.5329
 6881TIP3   OH242057   4.597   4.654   5.551  0.2505 -0.0778 -0.0280
 6881TIP3    H142058   4.552   4.597   5.613 -1.2183  0.1956 -0.8024
 6881TIP3    H242059   4.653   4.595   5.501  0.1047 -0.5597  0.3690
 6882TIP3   OH242060   3.853   0.899   0.614 -0.3045  0.0358 -0.2635
 6882TIP3    H142061   3.781   0.935   0.563 -0.0703 -1.2762 -1.5788
 6882TIP3    H242062   3.916   0.971   0.623 -0.4399  0.3486 -1.6829
 6883TIP3   OH242063   0.793   2.452  11.765  0.4715  0.1625  0.1409
 6883TIP3    H142064   0.834   2.529  11.806 -0.7079  1.6979 -1.4345
 6883TIP3    H242065   0.800   2.468  11.671  0.1494 -1.6593 -0.2265
 6884TIP3   OH242066   4.042   5.518  11.637 -0.0980  0.2865 -0.1038
 6884TIP3    H142067   4.105   5.451  11.663 -0.5851  0.3835  1.4426
 6884TIP3    H242068   4.096   5.590  11.603  0.4187 -0.9193 -1.9880
 6885TIP3   OH242069   5.125   2.820  14.682 -0.3261 -0.2668  0.3752
 6885TIP3    H142070   5.180   2.755  14.638  1.7797  1.4460  0.2615
 6885TIP3    H242071   5.092   2.875  14.611  0.5374  0.6378  0.6397
 6886TIP3   OH242072   3.723   2.589   5.178 -0.3437 -0.6310  0.0107
 6886TIP3    H142073   3.716   2.606   5.272  0.1053  0.3278 -0.1187
 6886TIP3    H242074   3.817   2.580   5.162 -0.4073 -0.6115 -0.3774
 6887TIP3   OH242075   2.647   3.606  17.013 -0.3256  0.6506 -0.4076
 6887TIP3    H142076   2.648   3.554  16.933  0.9482  1.0953 -0.6979
 6887TIP3    H242077   2.700   3.683  16.993  0.7133  0.3816  1.1091
 6888TIP3   OH242078   1.180   6.108  12.900  0.6194  0.1555  0.9847
 6888TIP3    H142079   1.221   6.090  12.984  1.8414  0.8744  0.5715
 6888TIP3    H242080   1.245   6.160  12.852  0.2764 -0.9150 -0.7136
 6889TIP3   OH242081   3.714   1.244  12.138 -0.3814  0.4964  0.0864
 6889TIP3    H142082   3.806   1.244  12.161 -0.4327  1.6966  0.3398
 6889TIP3    H242083   3.669   1.276  12.216 -0.7816  2.2339 -0.8105
 6890TIP3   OH242084   2.040   6.046  12.203  0.3509  0.1325  0.0417
 6890TIP3    H142085   2.035   5.967  12.257 -3.7269  0.9114  1.1891
 6890TIP3    H242086   2.090   6.108  12.256 -0.3739 -0.2856  1.2573
 6891TIP3   OH242087   3.906   4.114   2.239  0.1545  1.0686 -0.2260
 6891TIP3    H142088   3.853   4.068   2.175  0.5497 -1.3481  1.0668
 6891TIP3    H242089   3.898   4.207   2.215 -1.1035  0.4155 -2.6444
 6892TIP3   OH242090   5.842   6.648   5.079 -0.0225 -0.0265 -0.2400
 6892TIP3    H142091   5.748   6.637   5.086 -0.1179  1.1744  0.9395
 6892TIP3    H242092   5.856   6.742   5.092  1.4110 -0.3349  0.7207
 6893TIP3   OH242093   0.318   4.840  16.331  0.7338  0.7567  0.0397
 6893TIP3    H142094   0.230   4.872  16.313  0.3024  0.2154  1.0854
 6893TIP3    H242095   0.368   4.860  16.252 -0.7310 -0.4259 -1.2417
 6894TIP3   OH242096   0.665   6.245   6.443 -0.4501 -0.1282 -0.8097
 6894TIP3    H142097   0.612   6.168   6.463 -0.6862  0.1981 -0.1605
 6894TIP3    H242098   0.604   6.306   6.402 -0.7688  0.5265  0.5777
 6895TIP3   OH242099   3.215   4.588   5.846 -0.2404 -0.1889  0.3019
 6895TIP3    H142100   3.241   4.612   5.757 -0.2677 -0.9138  0.0866
 6895TIP3    H242101   3.127   4.625   5.857 -0.8968 -1.4192 -0.5561
 6896TIP3   OH242102   1.010   6.742   4.976  1.2187  0.5217  0.3698
 6896TIP3    H142103   0.961   6.736   4.894 -0.2341  0.2513  1.2239
 6896TIP3    H242104   0.942   6.745   5.045  2.3759  1.3184  1.5329
 6897TIP3   OH242105   3.237   1.024   1.115  0.0306 -0.0707 -0.1701
 6897TIP3    H142106   3.277   1.079   1.183  1.4404 -0.8803 -0.2979
 6897TIP3    H242107   3.220   1.084   1.042  0.6262  0.3953  0.0641
 6898TIP3   OH242108   6.396   2.716   1.735 -0.1335 -0.3069 -0.0745
 6898TIP3    H142109   6.313   2.757   1.760 -2.1529 -3.6243 -0.7927
 6898TIP3    H242110   6.372   2.642   1.680  3.2363 -2.1429  0.6165
 6899TIP3   OH242111   0.657   6.664  11.532 -0.0727  0.3694  0.3131
 6899TIP3    H142112   0.722   6.634  11.469  0.3676  3.9237 -1.1932
 6899TIP3    H242113   0.573   6.650  11.489 -0.0188 -0.3436  0.4341
 6900TIP3   OH242114   3.457   2.581  16.913 -0.1071  0.2476  0.2570
 6900TIP3    H142115   3.464   2.559  17.006 -1.6554  1.8174  0.7999
 6900TIP3    H242116   3.543   2.558  16.877 -0.1965 -2.5535  1.5509
 6901TIP3   OH242117   1.920   6.061   0.131  0.1655  0.1202  0.1235
 6901TIP3    H142118   1.878   6.009   0.200  0.7535 -0.6575 -0.0926
 6901TIP3    H242119   1.848   6.107   0.088 -0.5097 -1.2970 -0.3334
 6902TIP3   OH242120   6.606   0.771   6.005  0.5252 -0.0822 -0.3588
 6902TIP3    H142121   6.668   0.757   6.076  0.6297  0.3228 -0.3646
 6902TIP3    H242122   6.596   0.686   5.964  0.8691 -0.2060 -0.1857
 6903TIP3   OH242123   3.835   4.422  14.212 -0.2909  0.2089  0.0394
 6903TIP3    H142124   3.917   4.389  14.177 -1.7359 -1.6025 -1.9078
 6903TIP3    H242125   3.842   4.409  14.307  0.6311 -2.5428 -0.3112
 6904TIP3   OH242126   3.030   5.294  12.932  0.1716  0.2015 -0.4961
 6904TIP3    H142127   3.066   5.340  13.008 -1.5408 -0.4926  0.7862
 6904TIP3    H242128   2.939   5.324  12.927  0.2246  0.1766 -2.2598
 6905TIP3   OH242129   0.216   5.592   3.650 -0.3149  0.6433 -0.2252
 6905TIP3    H142130   0.243   5.501   3.667 -2.5796 -0.4061 -1.6545
 6905TIP3    H242131   0.262   5.643   3.716  0.9518 -1.5637  0.7303
 6906TIP3   OH242132   5.369   5.995  15.829 -0.4201 -0.5413  0.3931
 6906TIP3    H142133   5.416   6.029  15.906 -0.7565 -1.9635  1.2735
 6906TIP3    H242134   5.438   5.966  15.770 -0.0869  2.3614 -0.7881
 6907TIP3   OH242135   1.279   5.663  12.844 -0.4570  0.2231 -0.3540
 6907TIP3    H142136   1.241   5.749  12.827  2.0444  1.8470  1.5474
 6907TIP3    H242137   1.361   5.663  12.794 -1.3456 -1.9769 -1.9813
 6908TIP3   OH242138   5.118   5.878   2.169  0.0737  0.8268 -0.0291
 6908TIP3    H142139   5.028   5.851   2.190 -0.7525  2.1159 -1.7408
 6908TIP3    H242140   5.159   5.891   2.255 -1.2521 -0.1147  0.7869
 6909TIP3   OH242141   5.168   1.204   4.427  0.5551  0.2498 -0.7291
 6909TIP3    H142142   5.172   1.298   4.411  1.4037  0.8871  2.5904
 6909TIP3    H242143   5.078   1.180   4.405  0.0796  1.9907 -0.8173
 6910TIP3   OH242144   1.634   4.024   4.754 -0.5123  0.0222  0.3601
 6910TIP3    H142145   1.547   4.064   4.753 -1.9182 -2.7208  0.4512
 6910TIP3    H242146   1.691   4.087   4.711 -2.7399  1.5735 -0.4748
 6911TIP3   OH242147   4.891   6.529  15.332  0.0559 -0.1799 -0.6579
 6911TIP3    H142148   4.938   6.608  15.309  0.1601 -0.2244 -0.5975
 6911TIP3    H242149   4.862   6.493  15.248 -0.8737  0.4585 -0.6301
 6912TIP3   OH242150   3.523   0.077   4.416  0.1451  0.3029 -0.2444
 6912TIP3    H142151   3.444   0.040   4.378 -0.8452 -1.3477  3.0572
 6912TIP3    H242152   3.492   0.150   4.469  0.5725 -1.0711  2.0084
 6913TIP3   OH242153   0.947   4.425   4.150  0.2843  0.1586 -0.4390
 6913TIP3    H142154   0.853   4.435   4.165  0.5006  0.4129  0.9635
 6913TIP3    H242155   0.977   4.370   4.223  0.8696 -1.8931 -2.1380
 6914TIP3   OH242156   3.460   4.693  15.241  0.5001 -0.8288 -0.2057
 6914TIP3    H142157   3.386   4.744  15.207  1.1027  0.0531 -0.2484
 6914TIP3    H242158   3.490   4.642  15.166  0.0499 -1.0516 -0.2361
 6915TIP3   OH242159   4.398   2.745  15.129 -0.1491  0.1200 -0.1250
 6915TIP3    H142160   4.435   2.723  15.214 -0.9517  0.5649  0.3564
 6915TIP3    H242161   4.459   2.809  15.091  0.6565 -0.7082 -0.2735
 6916TIP3   OH242162   1.342   3.795   4.556  0.2390 -0.3915 -0.1271
 6916TIP3    H142163   1.435   3.785   4.538  0.3621 -1.0358  0.8379
 6916TIP3    H242164   1.336   3.871   4.614  0.1056 -0.0216 -0.6183
 6917TIP3   OH242165   4.227   4.505  14.882 -0.0696 -0.5743  0.2326
 6917TIP3    H142166   4.145   4.486  14.837 -1.1831 -0.2398  2.0113
 6917TIP3    H242167   4.209   4.586  14.931  0.9938 -1.0458  1.4501
 6918TIP3   OH242168   6.350   3.386  14.025  0.1605  0.2612 -0.0337
 6918TIP3    H142169   6.394   3.393  13.940 -0.3298 -1.1080 -0.4282
 6918TIP3    H242170   6.273   3.442  14.017  0.3714  0.5119 -0.3210
 6919TIP3   OH242171   1.311   5.615  14.652 -0.0851 -0.2287 -0.9579
 6919TIP3    H142172   1.377   5.547  14.654  0.5578  0.3842 -0.8837
 6919TIP3    H242173   1.229   5.570  14.673  0.3720 -0.9151 -0.6110
 6920TIP3   OH242174   1.877   2.363   4.496 -0.3069  0.4818 -0.4168
 6920TIP3    H142175   1.913   2.314   4.422 -1.2508 -0.3161 -0.3669
 6920TIP3    H242176   1.800   2.313   4.522  0.5995  0.1276  1.8017
 6921TIP3   OH242177   1.944   1.944   3.926  0.0329  0.1479  0.1787
 6921TIP3    H142178   1.979   1.885   3.993  0.5902 -0.8524 -0.9529
 6921TIP3    H242179   2.016   1.958   3.865  0.5960  3.7144  1.4188
 6922TIP3   OH242180   1.230   5.905  15.610  0.4496 -0.1599  0.3461
 6922TIP3    H142181   1.287   5.897  15.687  1.9599 -0.3817 -0.7434
 6922TIP3    H242182   1.289   5.931  15.539 -1.0952  1.2433 -0.5111
 6923TIP3   OH242183   1.697   0.786  14.740 -0.3601  0.0669 -0.1928
 6923TIP3    H142184   1.637   0.861  14.737  0.0896  0.4201 -0.6724
 6923TIP3    H242185   1.701   0.762  14.832  0.1659  1.1900  0.0983
 6924TIP3   OH242186   3.708   1.406  12.356 -0.3936  0.3233  0.4291
 6924TIP3    H142187   3.640   1.465  12.324  1.3460  1.3035 -1.7558
 6924TIP3    H242188   3.762   1.461  12.413  1.4122  1.1089 -1.8565
 6925TIP3   OH242189   1.083   3.142  13.963  0.0185 -0.0790  0.3952
 6925TIP3    H142190   1.148   3.136  13.892  1.5284 -1.5707  1.8129
 6925TIP3    H242191   1.062   3.051  13.983 -1.3085  0.3598  1.0726
 6926TIP3   OH242192   3.898   5.244  16.896  0.6920  0.1331 -0.1674
 6926TIP3    H142193   3.875   5.255  16.988  0.2504  0.1004 -0.2711
 6926TIP3    H242194   3.845   5.170  16.866  3.6630 -2.5016  0.5346
 6927TIP3   OH242195   3.223   5.793   4.434  0.4330 -0.0503 -0.6089
 6927TIP3    H142196   3.274   5.848   4.494 -1.1282 -1.2166  1.9456
 6927TIP3    H242197   3.232   5.837   4.349  3.2646  1.3646  0.2606
 6928TIP3   OH242198   3.395   4.195  13.131  0.4227  0.1845  0.4727
 6928TIP3    H142199   3.445   4.239  13.199 -0.5818 -0.3817  1.6139
 6928TIP3    H242200   3.311   4.173  13.173  0.4225 -1.7059 -0.4197
 6929TIP3   OH242201   2.124   3.128   0.465  0.8267 -0.3806  0.1128
 6929TIP3    H142202   2.168   3.125   0.380 -0.0632 -1.1306 -0.3469
 6929TIP3    H242203   2.070   3.207   0.462 -1.0150 -1.5977 -1.0016
 6930TIP3   OH242204   5.517   0.778   2.715 -0.4063 -0.1283 -0.0720
 6930TIP3    H142205   5.611   0.790   2.702 -0.2758 -1.2470 -0.2529
 6930TIP3    H242206   5.477   0.835   2.649  0.1063  1.1228  0.6624
 6931TIP3   OH242207   0.179   3.284   4.939  0.6407 -0.1324  0.3609
 6931TIP3    H142208   0.141   3.370   4.959  2.1010  0.7974 -0.6396
 6931TIP3    H242209   0.187   3.241   5.024 -1.8110 -0.0600  0.6946
 6932TIP3   OH242210   4.382   0.026   4.847  0.7409 -0.2865 -0.4240
 6932TIP3    H142211   4.446   0.026   4.918  0.1248  0.8459  0.1608
 6932TIP3    H242212   4.357  -0.065   4.836 -1.0890 -0.2503  2.5961
 6933TIP3   OH242213   0.251   6.309  12.672 -0.0081  0.4242 -0.6662
 6933TIP3    H142214   0.193   6.237  12.649  1.7321 -1.0742 -0.6326
 6933TIP3    H242215   0.339   6.275  12.655  0.9550  1.9667  0.8921
 6934TIP3   OH242216   2.744   1.538   2.201 -0.1068 -0.3188  0.2253
 6934TIP3    H142217   2.807   1.506   2.137 -0.1967  1.0632 -0.6088
 6934TIP3    H242218   2.740   1.470   2.267  2.3261 -0.4467  0.3509
 6935TIP3   OH242219   3.700   5.190   2.333 -0.3981 -0.3965 -0.0963
 6935TIP3    H142220   3.639   5.229   2.396 -0.0806  0.9182 -0.5735
 6935TIP3    H242221   3.778   5.171   2.385  0.1851  1.4670 -0.1886
 6936TIP3   OH242222   3.165   5.518  15.867 -0.1993 -0.0231 -0.3817
 6936TIP3    H142223   3.229   5.588  15.852  2.7924 -2.1462  1.4898
 6936TIP3    H242224   3.114   5.549  15.942  0.9219  0.3065  0.2675
 6937TIP3   OH242225   3.661   1.840   1.332 -0.1435 -0.0881 -0.3003
 6937TIP3    H142226   3.696   1.846   1.243 -0.9529  2.1405 -0.5260
 6937TIP3    H242227   3.606   1.762   1.330  0.6560 -0.6660 -1.4351
 6938TIP3   OH242228   3.443   3.998   4.951  0.1331  0.1397  0.0447
 6938TIP3    H142229   3.418   4.051   4.876 -1.1848 -2.3160 -1.4008
 6938TIP3    H242230   3.362   3.954   4.977  0.9183 -0.3239  1.8868
 6939TIP3   OH242231   2.134   0.937  15.358  0.3334 -0.1843  0.1309
 6939TIP3    H142232   2.162   0.883  15.284 -0.7347  0.1866 -0.5719
 6939TIP3    H242233   2.177   1.022  15.343  0.7548 -0.3529  0.3759
 6940TIP3   OH242234   3.860   5.933   2.821 -1.0728  0.6364 -0.2344
 6940TIP3    H142235   3.951   5.903   2.814 -0.6557  1.4710  1.0956
 6940TIP3    H242236   3.848   5.991   2.747 -1.6261 -2.0029 -2.3627
 6941TIP3   OH242237   4.253   2.819  12.354  0.6054 -0.1058  0.2371
 6941TIP3    H142238   4.307   2.888  12.315  0.9933 -0.3981  0.2592
 6941TIP3    H242239   4.255   2.748  12.290  0.1142 -0.0583  0.1651
 6942TIP3   OH242240   2.131   6.372  17.394 -0.0722 -0.5074 -0.0998
 6942TIP3    H142241   2.055   6.399  17.342  0.2208  0.3574 -0.0944
 6942TIP3    H242242   2.094   6.347  17.479 -0.3060  0.4176  0.0826
 6943TIP3   OH242243   2.685   1.593  11.476  0.0482  0.4643 -0.4455
 6943TIP3    H142244   2.685   1.663  11.410 -0.3789  1.8271  0.9366
 6943TIP3    H242245   2.704   1.638  11.558 -1.4917 -0.8553  0.6933
 6944TIP3   OH242246   3.962   5.868  14.972  0.6357 -0.1287  0.1198
 6944TIP3    H142247   3.947   5.778  15.003  0.0229 -0.2023 -0.3724
 6944TIP3    H242248   3.964   5.921  15.052 -1.3927 -0.2457  0.2829
 6945TIP3   OH242249   6.550   3.059   4.771 -0.3367 -0.2942 -0.3352
 6945TIP3    H142250   6.584   3.066   4.861  2.4357  0.0275 -1.3231
 6945TIP3    H242251   6.526   3.149   4.748  0.2611 -0.1380 -0.3701
 6946TIP3   OH242252   6.265   4.777   4.095 -0.6492  0.3790 -0.8096
 6946TIP3    H142253   6.205   4.706   4.117 -1.3253  1.3343  0.5609
 6946TIP3    H242254   6.336   4.769   4.159 -0.3384  0.4758 -1.1427
 6947TIP3   OH242255   6.761   0.384  13.278 -0.5067  0.1172  0.2900
 6947TIP3    H142256   6.769   0.470  13.319 -1.4491  0.3720 -0.0310
 6947TIP3    H242257   6.834   0.334  13.314  1.7927  1.8539 -1.6440
 6948TIP3   OH242258   6.343   3.298   4.774  0.3213 -0.3086 -0.1719
 6948TIP3    H142259   6.367   3.215   4.816 -0.5946 -0.7405 -0.4855
 6948TIP3    H242260   6.252   3.286   4.747  0.4751  0.4555 -1.0715
 6949TIP3   OH242261   2.611   2.839  15.668 -0.2732 -0.1955 -0.1692
 6949TIP3    H142262   2.653   2.766  15.714 -0.3032 -0.1696 -0.1013
 6949TIP3    H242263   2.662   2.916  15.695 -0.2616 -0.1870 -0.2159
 6950TIP3   OH242264   5.563   6.151  14.930  0.4015  0.1148  0.5261
 6950TIP3    H142265   5.479   6.158  14.975  0.3525  1.0974  0.2961
 6950TIP3    H242266   5.578   6.238  14.893  0.5986 -0.5607 -1.0694
 6951TIP3   OH242267   3.829   1.955  16.537 -0.1045  0.3009  0.0556
 6951TIP3    H142268   3.823   1.923  16.627 -0.1523 -0.1350 -0.1000
 6951TIP3    H242269   3.878   1.888  16.491 -0.8121  0.1126 -0.4361
 6952TIP3   OH242270   4.159   2.746   1.089 -0.2762 -0.5672 -0.6094
 6952TIP3    H142271   4.228   2.681   1.102 -1.4515 -1.4642  1.8076
 6952TIP3    H242272   4.202   2.830   1.105 -0.1244 -1.2264  3.6781
 6953TIP3   OH242273   4.527   5.340  13.443  0.3180 -0.2585  0.5475
 6953TIP3    H142274   4.587   5.283  13.394  0.3519 -0.2121  0.5343
 6953TIP3    H242275   4.580   5.416  13.467 -0.2607  0.7935 -1.2788
 6954TIP3   OH242276   3.924   3.166   4.146 -0.4940 -0.2441 -0.4987
 6954TIP3    H142277   3.910   3.073   4.165  2.5182 -0.4094  1.4758
 6954TIP3    H242278   4.012   3.170   4.108  0.1376  1.9245  0.9955
 6955TIP3   OH242279   3.974   2.467  12.258 -0.0369  0.1045  0.1759
 6955TIP3    H142280   3.956   2.376  12.285 -0.4082  0.4010  0.9733
 6955TIP3    H242281   3.922   2.520  12.319  1.6938  0.9317  1.0003
 6956TIP3   OH242282   6.126   0.890  15.899  1.0829  0.3391 -0.1716
 6956TIP3    H142283   6.094   0.905  15.988  1.5148  0.2002  0.0062
 6956TIP3    H242284   6.068   0.943  15.844  0.4252 -0.0457  0.1300
 6957TIP3   OH242285   2.890   2.815   3.015  0.3024 -0.0503 -0.0262
 6957TIP3    H142286   2.972   2.780   2.981  0.2265 -0.2713  0.0180
 6957TIP3    H242287   2.823   2.783   2.954  0.0007 -1.5232  1.0294
 6958TIP3   OH242288   3.641   3.180  11.364 -0.0396  0.4974  0.0320
 6958TIP3    H142289   3.612   3.154  11.276  0.1892 -0.0634  0.1229
 6958TIP3    H242290   3.671   3.099  11.405 -0.2196  0.7416  0.6606
 6959TIP3   OH242291   5.825   4.494  15.078 -0.2639 -0.3105 -0.1679
 6959TIP3    H142292   5.869   4.415  15.110  1.8089 -0.4452 -3.0122
 6959TIP3    H242293   5.871   4.566  15.120  0.8337 -0.5410 -0.9436
 6960TIP3   OH242294   0.234   1.246  15.030  0.0232 -0.1230 -0.3857
 6960TIP3    H142295   0.156   1.228  14.977 -0.5476  1.1106 -0.0210
 6960TIP3    H242296   0.280   1.314  14.982  2.0638 -2.2987 -1.6906
 6961TIP3   OH242297   2.383   3.787   3.980 -0.3981 -1.1269 -0.1236
 6961TIP3    H142298   2.436   3.740   4.045  1.3987 -1.2788 -1.6180
 6961TIP3    H242299   2.379   3.876   4.013  0.0597 -1.3130  0.4516
 6962TIP3   OH242300   6.271   0.087   5.787 -0.5258 -0.1030 -0.1383
 6962TIP3    H142301   6.345   0.084   5.847  1.3851  1.7853 -2.2186
 6962TIP3    H242302   6.219   0.161   5.817  0.3309  0.7290 -0.6527
 6963TIP3   OH242303   4.893   4.664  15.627  0.1062 -0.1451  0.0256
 6963TIP3    H142304   4.926   4.701  15.546  0.6297  0.7896  0.6591
 6963TIP3    H242305   4.885   4.738  15.687  2.2408 -1.1351  1.6914
 6964TIP3   OH242306   1.249   1.413  12.065 -0.3706  0.2838  0.1076
 6964TIP3    H142307   1.228   1.475  12.134 -2.1538 -0.6893  0.4909
 6964TIP3    H242308   1.170   1.409  12.011  1.2213  1.5775 -2.4876
 6965TIP3   OH242309   5.191   2.503  14.291 -0.2004  0.2477  0.6509
 6965TIP3    H142310   5.226   2.581  14.247 -0.3909 -0.2537 -0.4071
 6965TIP3    H242311   5.252   2.433  14.268 -0.6202 -0.1424  0.7062
 6966TIP3   OH242312   4.150   5.292   1.572 -0.2234  0.0654 -0.2837
 6966TIP3    H142313   4.087   5.231   1.534  0.9918 -0.5816 -1.3410
 6966TIP3    H242314   4.132   5.376   1.529 -2.3162  0.6904  1.6302
 6967TIP3   OH242315   1.246   6.362   3.292 -0.1126  0.2094  0.4729
 6967TIP3    H142316   1.160   6.368   3.252  0.2651 -0.8226 -0.5172
 6967TIP3    H242317   1.237   6.295   3.360 -0.2392  0.5462  0.7939
 6968TIP3   OH242318   0.888   1.532   1.852  0.3351 -0.4345 -0.7025
 6968TIP3    H142319   0.904   1.625   1.871 -0.0300 -0.0789 -2.0706
 6968TIP3    H242320   0.927   1.486   1.926 -0.9979  0.8836  0.9239
 6969TIP3   OH242321   6.121   1.444  14.841  0.1117  0.2479 -0.9555
 6969TIP3    H142322   6.036   1.411  14.872  0.4409  0.1397 -0.1424
 6969TIP3    H242323   6.106   1.465  14.749 -0.5577 -0.6120 -1.0586
 6970TIP3   OH242324   2.772   4.975  11.761  0.1942 -0.0867 -0.5182
 6970TIP3    H142325   2.850   4.996  11.710 -1.1758  1.2550 -2.1929
 6970TIP3    H242326   2.772   4.880  11.767  1.3171 -0.1736 -1.5389
 6971TIP3   OH242327   4.209   0.556  13.005 -0.4940 -0.2174 -0.0369
 6971TIP3    H142328   4.281   0.618  13.000 -0.0152 -0.8103 -0.7896
 6971TIP3    H242329   4.244   0.481  13.053 -0.0186 -1.2355 -1.8727
 6972TIP3   OH242330   0.758   1.462  15.538 -0.3617  0.7651 -0.0246
 6972TIP3    H142331   0.795   1.529  15.481  0.7089 -0.1770 -0.4719
 6972TIP3    H242332   0.663   1.474  15.531 -0.2058  1.6096 -0.8433
 6973TIP3   OH242333   1.257   5.610  15.008  0.2154  0.0847  0.0962
 6973TIP3    H142334   1.351   5.598  14.996  0.3945 -2.0932  2.7998
 6973TIP3    H242335   1.218   5.525  14.988 -0.8543  0.1778  1.6088
 6974TIP3   OH242336   0.337   0.591  14.333  0.1131 -0.2184  0.6137
 6974TIP3    H142337   0.402   0.521  14.327 -0.1435 -0.4133  0.1090
 6974TIP3    H242338   0.313   0.610  14.242 -0.9618 -0.5477  0.8142
 6975TIP3   OH242339   5.178   0.012   3.259  0.2824  0.5123  0.3443
 6975TIP3    H142340   5.103  -0.042   3.283  1.3327 -0.6358  1.1591
 6975TIP3    H242341   5.245  -0.010   3.323  1.9312  0.1767 -1.3878
 6976TIP3   OH242342   1.622   4.476  12.301 -0.2234 -0.3719  0.6352
 6976TIP3    H142343   1.562   4.516  12.364  1.0405  0.9461  1.0511
 6976TIP3    H242344   1.709   4.493  12.336  0.5810  1.1456 -1.8655
 6977TIP3   OH242345   2.043   3.729   4.639  0.0171 -0.4099 -0.1376
 6977TIP3    H142346   1.990   3.680   4.702  1.3286  0.2200  1.5293
 6977TIP3    H242347   2.036   3.678   4.558 -1.8063 -1.1945  0.4481
 6978TIP3   OH242348   6.257   6.411  12.566  0.5107  0.5779  0.3548
 6978TIP3    H142349   6.310   6.331  12.573 -1.6790 -1.1871 -1.6235
 6978TIP3    H242350   6.291   6.468  12.635  4.2860 -0.7537 -0.1466
 6979TIP3   OH242351   6.214   4.619   6.060 -0.1335 -0.5570  0.7892
 6979TIP3    H142352   6.204   4.526   6.079 -1.0628 -0.6998 -0.2661
 6979TIP3    H242353   6.138   4.661   6.101  0.0644 -0.3176  0.9149
 6980TIP3   OH242354   3.822   6.014  14.806  0.0175 -0.1213  0.0267
 6980TIP3    H142355   3.803   5.965  14.726  0.7269 -0.0530 -0.1925
 6980TIP3    H242356   3.888   5.962  14.851 -0.5784 -0.2969  0.7083
 6981TIP3   OH242357   0.978   1.257  14.531  0.0731  0.1913  0.7115
 6981TIP3    H142358   1.043   1.321  14.559  1.3641 -0.7423 -0.0449
 6981TIP3    H242359   0.913   1.308  14.481  1.2888  0.8690 -0.2272
 6982TIP3   OH242360   3.938   5.902   0.610  0.3716  0.4471 -0.3855
 6982TIP3    H142361   3.914   5.993   0.591  1.3163  0.8353  0.1798
 6982TIP3    H242362   4.023   5.891   0.567  1.0034  0.3380  0.8655
 6983TIP3   OH242363   4.520   2.140  16.759 -0.1527  0.0971 -0.2028
 6983TIP3    H142364   4.435   2.179  16.737  0.1448  1.1511  0.4169
 6983TIP3    H242365   4.513   2.049  16.733 -0.6541  0.6970 -2.3950
 6984TIP3   OH242366   6.057   0.271   6.210 -0.9904 -1.0199  0.7612
 6984TIP3    H142367   6.008   0.267   6.292 -1.0726  3.1850  1.1138
 6984TIP3    H242368   6.017   0.343   6.161  1.1779 -1.2186 -1.5209
 6985TIP3   OH242369   1.140   1.565   5.605 -0.3759  0.0419  0.4612
 6985TIP3    H142370   1.135   1.507   5.529  0.3090  0.0869  0.3838
 6985TIP3    H242371   1.057   1.550   5.651 -1.9707  1.8936 -1.6313
 6986TIP3   OH242372   3.096   3.510   4.458  0.4578 -0.3027 -0.2548
 6986TIP3    H142373   3.111   3.461   4.539  1.6423 -0.3039 -0.4481
 6986TIP3    H242374   3.013   3.477   4.425 -0.0725 -0.2642  0.9811
 6987TIP3   OH242375   0.612   0.929   2.699  1.2985  0.6335  0.5097
 6987TIP3    H142376   0.530   0.953   2.740  0.6390 -2.2411  1.1043
 6987TIP3    H242377   0.637   1.006   2.648 -1.4479  1.7804  0.7307
 6988TIP3   OH242378   0.868   4.703   2.520 -0.0214 -0.4500  0.3695
 6988TIP3    H142379   0.834   4.630   2.572 -0.2956 -0.1189  0.6616
 6988TIP3    H242380   0.958   4.679   2.499  0.1895 -0.4443  1.2596
 6989TIP3   OH242381   3.387   6.242   5.026  0.3565 -0.3401 -0.2747
 6989TIP3    H142382   3.359   6.326   4.990 -3.7849 -1.5510 -0.4032
 6989TIP3    H242383   3.354   6.177   4.964  0.0996 -2.1676  1.6607
 6990TIP3   OH242384   4.670   5.506   2.128  0.4402 -0.0134  0.2389
 6990TIP3    H142385   4.612   5.478   2.199 -0.1519  1.9381  0.5909
 6990TIP3    H242386   4.749   5.538   2.172  1.5745 -1.9955 -0.2072
 6991TIP3   OH242387   2.625   1.895   2.325  0.3481 -0.4371 -0.1677
 6991TIP3    H142388   2.690   1.964   2.320  1.1746 -1.1905 -0.1269
 6991TIP3    H242389   2.626   1.853   2.239  1.6316 -1.9320  0.5155
 6992TIP3   OH242390   5.929   5.848   3.474 -0.3156 -0.1300 -0.7556
 6992TIP3    H142391   5.885   5.785   3.531 -0.2629  1.1068  0.6969
 6992TIP3    H242392   5.875   5.850   3.395 -1.0910 -0.9658 -0.2682
 6993TIP3   OH242393   5.513   3.337   6.195 -0.4944 -0.5314 -0.1549
 6993TIP3    H142394   5.500   3.243   6.205  1.7469 -1.0962 -1.7659
 6993TIP3    H242395   5.608   3.348   6.195 -0.7007  1.6451 -0.7383
 6994TIP3   OH242396   1.618   3.238  10.848 -0.6465 -0.1010 -0.3814
 6994TIP3    H142397   1.551   3.234  10.916 -1.0812 -1.2421 -0.8490
 6994TIP3    H242398   1.574   3.202  10.770  0.0259  0.6175 -1.1026
 6995TIP3   OH242399   0.288   5.885   3.554  0.3243  0.1787  0.1090
 6995TIP3    H142400   0.382   5.894   3.571  0.0184  0.6900  1.6803
 6995TIP3    H242401   0.246   5.923   3.631 -1.1821 -0.7805 -0.2043
 6996TIP3   OH242402   1.393   1.001  15.913 -0.4307 -0.6153  0.2288
 6996TIP3    H142403   1.398   1.078  15.855 -1.4702 -1.2426 -0.7353
 6996TIP3    H242404   1.314   0.955  15.884  0.7830 -2.6559  0.0339
 6997TIP3   OH242405   1.200   5.981  14.504  0.2216  0.2649  0.1637
 6997TIP3    H142406   1.236   5.897  14.531 -0.4767 -0.2070 -0.3221
 6997TIP3    H242407   1.190   6.030  14.585 -1.1928 -0.8527  0.7142
 6998TIP3   OH242408   6.586   3.632  11.229 -0.3767  0.3660  0.6432
 6998TIP3    H142409   6.563   3.718  11.193 -0.9121 -0.1355 -0.2698
 6998TIP3    H242410   6.531   3.571  11.180  2.0409 -0.7969 -0.8083
 6999TIP3   OH242411   0.733   4.237  12.972 -0.4067  0.2350 -0.3534
 6999TIP3    H142412   0.743   4.330  12.994 -0.1939  0.0477  0.3820
 6999TIP3    H242413   0.806   4.218  12.914 -0.5195  0.5565 -0.6012
 7000TIP3   OH242414   3.808   5.753   6.407 -0.1222  0.5727  0.5928
 7000TIP3    H142415   3.880   5.816   6.411 -1.4302  2.0595  2.0569
 7000TIP3    H242416   3.850   5.668   6.423  1.5580  1.1313 -0.5719
 7001TIP3   OH242417   0.632   1.838   4.856 -0.2454  0.3596 -0.9039
 7001TIP3    H142418   0.592   1.926   4.863  2.4737  1.5720  1.1145
 7001TIP3    H242419   0.666   1.835   4.767 -1.0113  1.0311 -1.2423
 7002TIP3   OH242420   5.758   1.067   2.843  0.1415  1.0268 -0.2005
 7002TIP3    H142421   5.708   1.100   2.768  0.3370 -1.0627 -1.3194
 7002TIP3    H242422   5.797   1.146   2.882  0.4673  2.1657 -2.6329
 7003TIP3   OH242423   2.472   4.936   6.524 -0.0426 -0.1952  0.4971
 7003TIP3    H142424   2.450   4.934   6.617  1.5872  0.6731  0.9358
 7003TIP3    H242425   2.418   5.006   6.488 -2.0014 -1.6909  0.3777
 7004TIP3   OH242426   6.232   0.273  12.455 -0.1239 -0.1140 -0.2774
 7004TIP3    H142427   6.321   0.278  12.422 -0.2476  0.2211 -0.5690
 7004TIP3    H242428   6.180   0.324  12.393 -0.9284 -2.3342 -1.5705
 7005TIP3   OH242429   5.734   5.892  17.227  0.6586  0.7895 -0.0074
 7005TIP3    H142430   5.641   5.897  17.247  0.7850  2.0269  0.3472
 7005TIP3    H242431   5.760   5.806  17.260 -0.0466  1.0565  1.3392
 7006TIP3   OH242432   0.060   4.444   4.734  0.1961 -0.2951 -0.3769
 7006TIP3    H142433   0.042   4.480   4.821  0.6528 -1.3905  0.2002
 7006TIP3    H242434   0.112   4.511   4.690  0.1868  0.1610  0.2900
 7007TIP3   OH242435   1.523   6.327   3.392  0.2098 -0.1718  0.1711
 7007TIP3    H142436   1.438   6.334   3.348 -0.8242  1.1036  2.2484
 7007TIP3    H242437   1.533   6.234   3.409 -1.0825 -0.2833  0.4511
 7008TIP3   OH242438   6.298   4.653  13.867 -0.6540  0.6108 -0.4082
 7008TIP3    H142439   6.392   4.667  13.878 -0.5380 -0.3248 -0.1913
 7008TIP3    H242440   6.267   4.733  13.824 -0.0862  1.7630  1.2135
 7009TIP3   OH242441   2.755   3.135   6.484  0.0242  0.0841  0.0371
 7009TIP3    H142442   2.834   3.190   6.487 -1.8817  2.9864  0.5423
 7009TIP3    H242443   2.738   3.114   6.576  0.8091 -1.5728 -0.1627
 7010TIP3   OH242444   4.081   1.930  13.417 -0.4513 -0.4727  0.0990
 7010TIP3    H142445   4.097   2.023  13.398 -1.1779 -0.3857 -0.1216
 7010TIP3    H242446   4.118   1.884  13.341  2.9343 -0.6405  1.6979
 7011TIP3   OH242447   0.202   1.425  12.213 -0.2227  0.5350 -0.0494
 7011TIP3    H142448   0.238   1.435  12.125 -1.8144  0.8516 -0.7083
 7011TIP3    H242449   0.197   1.514  12.248  1.8429  0.2894  1.0170
 7012TIP3   OH242450   5.889   1.212  14.215  0.0474  0.8839 -0.4029
 7012TIP3    H142451   5.822   1.195  14.282  1.8196  1.3848  1.6361
 7012TIP3    H242452   5.910   1.126  14.179 -0.5680  0.5119  0.1056
 7013TIP3   OH242453   2.663   4.223   4.598 -0.3535  0.2808  0.7096
 7013TIP3    H142454   2.748   4.255   4.628 -0.1582 -0.5035  1.0173
 7013TIP3    H242455   2.600   4.267   4.655 -0.1831  1.1250  0.2588
 7014TIP3   OH242456   1.958   6.402  12.888  0.9553 -0.0783  0.2484
 7014TIP3    H142457   2.053   6.412  12.884  1.2981 -2.7598 -0.1997
 7014TIP3    H242458   1.944   6.308  12.898 -1.6650  0.2835  0.7556
 7015TIP3   OH242459   0.251   1.872   4.150 -0.4207  0.3248 -0.6034
 7015TIP3    H142460   0.247   1.825   4.067 -0.4962 -1.7076  0.4938
 7015TIP3    H242461   0.160   1.894   4.170 -0.2975  1.8775 -1.5832
 7016TIP3   OH242462   1.675   4.858   3.825  0.2031  0.0091 -0.0938
 7016TIP3    H142463   1.704   4.773   3.793  0.3347  0.4278 -1.1447
 7016TIP3    H242464   1.580   4.851   3.834  0.2594 -0.3671  0.2268
 7017TIP3   OH242465   0.088   4.012  12.895 -0.1835 -0.9335  0.2866
 7017TIP3    H142466   0.085   4.086  12.835 -2.3028 -1.6684 -0.6265
 7017TIP3    H242467   0.007   4.019  12.946  0.4484 -1.6416  1.4169
 7018TIP3   OH242468   4.638   6.684   6.804 -0.3035  0.3534  0.0745
 7018TIP3    H142469   4.708   6.624   6.778 -0.2895  0.1854  0.4878
 7018TIP3    H242470   4.567   6.627   6.832  0.3906  0.4834  2.3057
 7019TIP3   OH242471   1.705   2.569   3.863  0.0408 -0.2685 -0.3273
 7019TIP3    H142472   1.611   2.551   3.859 -0.1473  0.6535 -0.1202
 7019TIP3    H242473   1.725   2.573   3.956 -0.0843  1.3605 -0.3452
 7020TIP3   OH242474   1.189   4.613   5.687 -0.3002 -0.5474  0.1492
 7020TIP3    H142475   1.258   4.660   5.640 -1.0079 -0.3429 -0.7287
 7020TIP3    H242476   1.137   4.571   5.617 -2.2868  0.9975  0.6061
 7021TIP3   OH242477   5.937   6.348  13.280  0.8593 -0.3773 -0.3004
 7021TIP3    H142478   6.028   6.347  13.312  0.2381  2.0708  1.8558
 7021TIP3    H242479   5.933   6.425  13.223  0.3355 -1.0146 -1.1415
 7022TIP3   OH242480   4.705   1.911  14.419 -0.2244  0.5090 -0.1880
 7022TIP3    H142481   4.711   1.904  14.514 -0.9118  0.4191 -0.1455
 7022TIP3    H242482   4.672   1.826  14.390  1.1677  0.1011 -0.6273
 7023TIP3   OH242483   4.296   0.887  15.879  0.2779 -0.5472 -0.3125
 7023TIP3    H142484   4.343   0.964  15.910  0.4982 -1.2649  1.2432
 7023TIP3    H242485   4.351   0.852  15.809  1.0017 -0.2125  0.0846
 7024TIP3   OH242486   0.318   0.678  15.952 -0.0273  0.1945 -0.0688
 7024TIP3    H142487   0.411   0.659  15.968  1.2545  3.4599 -2.4318
 7024TIP3    H242488   0.302   0.642  15.865 -0.8178  0.1640  0.0895
 7025TIP3   OH242489   5.389   1.822  15.961 -0.5212  0.2542  0.3687
 7025TIP3    H142490   5.340   1.796  15.883  0.5833 -1.9747  0.3098
 7025TIP3    H242491   5.460   1.876  15.927 -1.1445  0.9063  0.0824
 7026TIP3   OH242492   5.790   0.285   2.174 -0.6340 -0.9515 -0.2439
 7026TIP3    H142493   5.765   0.370   2.211 -0.7210 -0.0262 -2.2564
 7026TIP3    H242494   5.767   0.222   2.241  1.7385  0.7581  2.3942
 7027TIP3   OH242495   1.984   2.997  14.204 -0.3037 -0.2083  0.2184
 7027TIP3    H142496   2.077   3.020  14.213 -0.4554 -0.0926  1.7468
 7027TIP3    H242497   1.938   3.081  14.209 -0.5030 -0.2354 -0.8005
 7028TIP3   OH242498   4.714   1.457   4.457  0.0199 -0.0093 -0.3987
 7028TIP3    H142499   4.661   1.455   4.377  0.0410  0.3264 -0.4251
 7028TIP3    H242500   4.722   1.550   4.477 -3.7686 -0.0806  2.5438
 7029TIP3   OH242501   2.023   6.112  15.834  0.1102  0.4705  0.0712
 7029TIP3    H142502   2.070   6.029  15.823 -0.3807  0.2492 -0.3747
 7029TIP3    H242503   1.996   6.113  15.925 -1.2699 -0.6047 -0.3057
 7030TIP3   OH242504   2.406   4.545   4.917  0.2384 -0.8228  1.0606
 7030TIP3    H142505   2.465   4.620   4.928  0.1168 -0.2941 -1.4445
 7030TIP3    H242506   2.370   4.530   5.005  1.9954  0.5642  2.0924
 7031TIP3   OH242507   0.339   6.162  11.372 -0.0805 -0.2020 -0.1448
 7031TIP3    H142508   0.377   6.250  11.370 -0.5688  0.0042 -0.4312
 7031TIP3    H242509   0.405   6.106  11.330 -0.0462  0.1322 -0.5390
 7032TIP3   OH242510   3.693   1.410   1.678  0.6678 -0.4756 -0.1685
 7032TIP3    H142511   3.743   1.459   1.612 -0.1244  1.4843  0.5985
 7032TIP3    H242512   3.760   1.359   1.724  1.7478  0.7452 -0.3019
 7033TIP3   OH242513   3.918   1.251   4.253 -0.1560  0.0328  0.3119
 7033TIP3    H142514   3.868   1.273   4.175 -0.6970 -0.0707  0.6297
 7033TIP3    H242515   4.001   1.298   4.243 -0.0276 -0.3674 -0.5546
 7034TIP3   OH242516   0.373   3.108  13.593 -0.6607  0.4749 -0.0801
 7034TIP3    H142517   0.398   3.169  13.524 -0.4389 -0.0155 -0.4456
 7034TIP3    H242518   0.306   3.154  13.643 -0.0662  1.2489  0.0288
 7035TIP3   OH242519   4.704   2.779   1.060  0.1349 -0.0977 -0.4090
 7035TIP3    H142520   4.619   2.795   1.019  0.3045 -0.8790 -1.0829
 7035TIP3    H242521   4.762   2.846   1.024 -0.0676  0.1023 -0.3602
 7036TIP3   OH242522   4.698   6.755  12.390  0.5839  0.3467  0.2546
 7036TIP3    H142523   4.779   6.711  12.364  0.6449  1.0144 -0.7530
 7036TIP3    H242524   4.671   6.710  12.470  0.9220 -1.1687 -0.4366
 7037TIP3   OH242525   6.394   0.067  17.252  0.0013 -0.3516 -0.8787
 7037TIP3    H142526   6.437   0.094  17.333  0.4500 -0.8335 -0.9590
 7037TIP3    H242527   6.301   0.062  17.276 -0.0354  0.7260 -0.7187
 7038TIP3   OH242528   3.325   2.158  12.897 -0.0364  0.1088  0.2511
 7038TIP3    H142529   3.324   2.209  12.817 -0.6187 -0.3278 -0.0297
 7038TIP3    H242530   3.304   2.221  12.966  0.5465  0.4996  0.0780
 7039TIP3   OH242531   0.915   2.608  16.653  0.0135 -0.2223 -0.2599
 7039TIP3    H142532   0.979   2.653  16.708  0.0585 -0.7695  0.1460
 7039TIP3    H242533   0.885   2.534  16.706 -0.0418 -0.6858 -0.9148
 7040TIP3   OH242534   0.976   2.426  17.030 -0.3540 -0.1160  0.5945
 7040TIP3    H142535   0.996   2.409  16.938 -1.8157 -1.7601  0.5440
 7040TIP3    H242536   1.059   2.410  17.075  0.1077 -0.3287 -0.3009
 7041TIP3   OH242537   5.945   4.144  14.663  0.1884  0.0656  0.1211
 7041TIP3    H142538   5.984   4.168  14.747  1.8417 -1.0913 -0.2734
 7041TIP3    H242539   5.979   4.210  14.602  1.2019 -0.6490 -0.1234
 7042TIP3   OH242540   4.666   6.339  13.859  0.2077  0.1611  0.0191
 7042TIP3    H142541   4.704   6.353  13.945 -1.1758  0.2785  0.6453
 7042TIP3    H242542   4.662   6.426  13.819 -3.0128  0.9065  1.5836
 7043TIP3   OH242543   3.734   0.462  15.494 -0.0224  0.1923 -0.5050
 7043TIP3    H142544   3.777   0.483  15.577 -1.3282  1.0589 -0.0184
 7043TIP3    H242545   3.654   0.515  15.494 -0.9094 -1.0862 -1.5437
 7044TIP3   OH242546   6.099   6.723   0.375  0.0875 -0.1220 -0.3588
 7044TIP3    H142547   6.041   6.680   0.438 -0.5029  0.9785 -0.1225
 7044TIP3    H242548   6.041   6.779   0.324  0.1136 -2.6540 -3.5177
 7045TIP3   OH242549   6.628   6.218  14.766  0.2902 -0.4131  0.2004
 7045TIP3    H142550   6.558   6.261  14.717 -0.7593  0.5859  2.4116
 7045TIP3    H242551   6.608   6.125  14.759  0.1030 -0.2952 -1.1065
 7046TIP3   OH242552   5.887   0.063  13.303  0.4931 -0.3027  0.2659
 7046TIP3    H142553   5.914   0.155  13.301  2.4404 -0.8386 -0.0222
 7046TIP3    H242554   5.842   0.050  13.219  1.3141  0.0890 -0.2537
 7047TIP3   OH242555   2.950   4.663   0.853  0.1584 -0.5298 -0.0587
 7047TIP3    H142556   2.997   4.690   0.774  0.2134  1.6625  0.6436
 7047TIP3    H242557   3.018   4.653   0.920 -0.0531 -0.5670  0.1542
 7048TIP3   OH242558   3.196   1.686  12.876  0.7271 -0.1750  0.2168
 7048TIP3    H142559   3.158   1.623  12.815  0.3770  0.6967 -0.4809
 7048TIP3    H242560   3.187   1.644  12.962 -0.0826 -0.8003 -0.1572
 7049TIP3   OH242561   1.804   3.993  16.219 -0.2246  0.1373 -0.6032
 7049TIP3    H142562   1.712   3.978  16.237  0.3006 -0.8044  1.5381
 7049TIP3    H242563   1.813   3.975  16.125 -1.6981 -2.5102 -0.3235
 7050TIP3   OH242564   2.096   4.398  13.099  0.0784  0.2316 -0.2575
 7050TIP3    H142565   2.116   4.352  13.180 -0.4788  2.3121  1.1566
 7050TIP3    H242566   2.027   4.460  13.124 -1.9541 -0.7789 -2.9263
 7051TIP3   OH242567   3.752   3.677   1.118 -0.4997  0.0004 -0.7832
 7051TIP3    H142568   3.787   3.694   1.031  0.0033 -0.7037 -0.7248
 7051TIP3    H242569   3.657   3.677   1.107 -0.4406  0.0789 -1.2931
 7052TIP3   OH242570   0.024   3.502  11.681 -0.5875  0.5122 -0.0508
 7052TIP3    H142571   0.117   3.524  11.674 -0.5690  0.4993  0.1710
 7052TIP3    H242572  -0.006   3.500  11.590 -0.4497  0.8522 -0.1040
 7053TIP3   OH242573   2.968   5.924  13.957  0.1085 -0.5218  0.0495
 7053TIP3    H142574   3.050   5.874  13.952  0.5169 -0.0795  1.9111
 7053TIP3    H242575   2.957   5.958  13.868  0.7783 -2.3745 -0.8088
 7054TIP3   OH242576   1.943   6.735   5.902 -0.6563  0.3633 -0.1465
 7054TIP3    H142577   1.849   6.717   5.901 -0.8842  1.4735 -0.9357
 7054TIP3    H242578   1.959   6.767   5.991 -0.8592 -0.5898  0.2422
 7055TIP3   OH242579   3.758   2.483  16.867  0.1746  0.7494 -0.3473
 7055TIP3    H142580   3.786   2.432  16.943  0.3613  0.7478 -0.4160
 7055TIP3    H242581   3.837   2.490  16.813 -0.8602 -2.9242 -2.6752
 7056TIP3   OH242582   0.877   3.144   5.630 -0.1504 -0.9087  0.0635
 7056TIP3    H142583   0.825   3.105   5.559  1.5335 -0.3508 -1.5487
 7056TIP3    H242584   0.923   3.070   5.669  1.1893 -0.9257 -1.4253
 7057TIP3   OH242585   2.355   0.332   1.067  0.6106 -0.6621  0.2383
 7057TIP3    H142586   2.441   0.374   1.061  0.5884 -0.8291 -1.6249
 7057TIP3    H242587   2.313   0.376   1.142  1.3865  1.1716 -0.3314
 7058TIP3   OH242588   2.859   0.961  14.385  0.1997 -0.2006  0.0094
 7058TIP3    H142589   2.944   0.985  14.350  0.3142 -0.6188 -0.0062
 7058TIP3    H242590   2.842   0.874  14.349 -1.1603  0.6853 -1.6598
 7059TIP3   OH242591   2.051   5.860   0.406  0.0722  0.6146 -0.4783
 7059TIP3    H142592   2.055   5.804   0.329  0.5745 -0.4253  0.2768
 7059TIP3    H242593   2.139   5.856   0.444  0.0641  1.7699 -0.2973
 7060TIP3   OH242594   1.641   0.921   2.061 -0.2983  0.1219 -0.3130
 7060TIP3    H142595   1.707   0.975   2.105 -0.2861 -0.6410  0.6493
 7060TIP3    H242596   1.604   0.867   2.131 -1.4894  0.0644 -0.9516
 7061TIP3   OH242597   2.023   5.549   6.278 -0.2203  0.2899 -0.9132
 7061TIP3    H142598   2.096   5.606   6.255 -0.1748  0.1003 -1.2323
 7061TIP3    H242599   1.981   5.594   6.352  1.0375 -0.2896  0.1972
 7062TIP3   OH242600   0.427   4.324   2.659 -0.3151 -0.6187  0.5397
 7062TIP3    H142601   0.521   4.311   2.659 -0.0690  0.9267 -0.4806
 7062TIP3    H242602   0.405   4.340   2.567 -1.3072  0.6942  0.9835
 7063TIP3   OH242603   4.387   1.230   0.025 -0.2958 -0.0951 -0.4345
 7063TIP3    H142604   4.325   1.221   0.098 -1.0939 -1.6007 -1.2282
 7063TIP3    H242605   4.473   1.227   0.066 -0.7183 -1.2769  0.4366
 7064TIP3   OH242606   5.156   0.380  16.956 -0.5816  0.1884 -0.4347
 7064TIP3    H142607   5.091   0.326  17.002  0.4090 -0.5486  0.1394
 7064TIP3    H242608   5.240   0.354  16.994  0.4527 -1.3588 -3.4014
 7065TIP3   OH242609   3.267   6.170   6.119 -0.2028  0.3965  0.1150
 7065TIP3    H142610   3.318   6.153   6.198  1.2558 -0.1684 -0.9047
 7065TIP3    H242611   3.318   6.236   6.071 -1.8057  1.8182  0.3024
 7066TIP3   OH242612   5.421   4.642  12.149  0.4911 -0.1311  0.1311
 7066TIP3    H142613   5.470   4.672  12.072 -0.7534 -0.0748 -0.6619
 7066TIP3    H242614   5.393   4.722  12.193 -1.6684 -0.0503 -1.2421
 7067TIP3   OH242615   0.442   6.509  15.725 -0.4978 -0.3970  0.1638
 7067TIP3    H142616   0.414   6.554  15.805  0.6982 -0.4604  0.6247
 7067TIP3    H242617   0.361   6.472  15.690 -1.0270 -0.4766  1.4086
 7068TIP3   OH242618   3.952   5.570  13.473  0.3519  0.5403 -0.2427
 7068TIP3    H142619   3.879   5.593  13.530  0.3842  0.9036 -0.3454
 7068TIP3    H242620   3.994   5.496  13.517 -0.4723 -0.1122 -0.5204
 7069TIP3   OH242621   5.088   4.133  15.685  0.5751  0.0529 -0.3797
 7069TIP3    H142622   5.109   4.193  15.613 -0.5661  0.3065 -0.5308
 7069TIP3    H242623   5.071   4.190  15.760  1.0944 -0.1782 -0.0788
 7070TIP3   OH242624   0.392   2.374  17.015 -0.1357 -0.5739 -0.1621
 7070TIP3    H142625   0.400   2.460  16.974 -0.9798 -0.6893 -0.6017
 7070TIP3    H242626   0.320   2.384  17.078  0.9303 -0.4911  1.0646
 7071TIP3   OH242627   3.630   4.524  11.587  0.4101 -0.4629  0.2838
 7071TIP3    H142628   3.711   4.539  11.539  0.8057  0.9060  1.3147
 7071TIP3    H242629   3.566   4.500  11.520  1.7533 -2.0857 -0.4873
 7072TIP3   OH242630   3.385   3.751   1.257 -0.2322  0.0312 -0.3623
 7072TIP3    H142631   3.382   3.748   1.162  0.8042 -1.7243 -0.3697
 7072TIP3    H242632   3.293   3.757   1.284 -0.5312  0.5078 -1.4576
 7073TIP3   OH242633   3.890   2.337   5.303  0.0294 -0.0094 -0.5895
 7073TIP3    H142634   3.951   2.343   5.376 -1.1264  0.7052  0.3558
 7073TIP3    H242635   3.874   2.428   5.278 -1.0552 -0.1530 -0.4648
 7074TIP3   OH242636   3.834   4.246  13.217 -0.0784 -0.4575 -0.4865
 7074TIP3    H142637   3.745   4.282  13.223 -0.0500  0.1672 -2.7674
 7074TIP3    H242638   3.836   4.177  13.283 -1.4389  1.0906  1.3028
 7075TIP3   OH242639   6.222   5.853  16.307 -0.3514  0.6507  0.2872
 7075TIP3    H142640   6.170   5.862  16.227  2.3928 -0.9758 -1.8656
 7075TIP3    H242641   6.178   5.783  16.356 -2.4086  2.0654  0.5882
 7076TIP3   OH242642   6.387   0.958   1.369 -0.0142 -0.3907 -0.5802
 7076TIP3    H142643   6.429   0.907   1.299  1.4272 -0.2265  0.1495
 7076TIP3    H242644   6.330   0.894   1.413 -0.0442 -0.7809 -1.1640
 7077TIP3   OH242645   2.166   0.420  12.398  0.1941  0.1633 -0.0315
 7077TIP3    H142646   2.137   0.372  12.475 -0.9708  0.9788  0.0687
 7077TIP3    H242647   2.185   0.508  12.430  1.1541  0.1069 -0.4204
 7078TIP3   OH242648   3.333   5.882   3.462 -0.5377 -0.0560 -0.2209
 7078TIP3    H142649   3.349   5.911   3.372 -1.3091  1.7751  0.1608
 7078TIP3    H242650   3.254   5.931   3.488  0.0472 -0.0343  1.6568
 7079TIP3   OH242651   5.722   1.444   1.536 -0.1744  0.1075  0.1250
 7079TIP3    H142652   5.647   1.400   1.497  1.3508 -1.2033 -1.4510
 7079TIP3    H242653   5.740   1.518   1.478  2.4108 -2.1335 -2.1966
 7080TIP3   OH242654   6.375   4.055  15.188 -0.7561  0.2746 -0.6091
 7080TIP3    H142655   6.372   3.985  15.253 -1.3008  0.2664 -0.6433
 7080TIP3    H242656   6.298   4.041  15.134 -0.7938  0.8175 -0.7006
 7081TIP3   OH242657   2.857   6.709  11.459  0.2683 -0.2651  0.2039
 7081TIP3    H142658   2.927   6.774  11.458  0.6593 -0.6814  0.1987
 7081TIP3    H242659   2.873   6.659  11.540 -0.4807  0.1313  0.6084
 7082TIP3   OH242660   4.640   4.105  11.793  0.0860  0.4066 -0.3495
 7082TIP3    H142661   4.678   4.166  11.856 -1.0692  3.5742 -2.4564
 7082TIP3    H242662   4.688   4.121  11.712 -1.3277 -0.3011 -1.3832
 7083TIP3   OH242663   3.561   0.200  15.670  0.5637 -0.0398 -0.0056
 7083TIP3    H142664   3.624   0.241  15.610  0.1197 -0.9647 -1.1513
 7083TIP3    H242665   3.476   0.237  15.644  0.4837  0.3280  0.7597
 7084TIP3   OH242666   4.849   3.498  10.993 -0.4583 -0.1817 -0.2398
 7084TIP3    H142667   4.831   3.404  10.992  1.0672 -0.4925 -0.5826
 7084TIP3    H242668   4.788   3.535  10.929 -1.0931 -0.9249 -0.0800
 7085TIP3   OH242669   4.042   1.473  16.258 -0.0373  0.0771  0.3799
 7085TIP3    H142670   4.024   1.541  16.324  0.9704  0.4462  0.2980
 7085TIP3    H242671   3.984   1.401  16.281 -0.5813  0.6774  0.9346
 7086TIP3   OH242672   1.176   5.494  11.422 -0.5331  0.1490 -0.0396
 7086TIP3    H142673   1.195   5.522  11.332 -0.5389  1.7585  0.4245
 7086TIP3    H242674   1.182   5.574  11.474 -1.3120 -0.6054  1.2834
 7087TIP3   OH242675   6.709   4.177  14.381 -0.1865 -0.3450 -0.0801
 7087TIP3    H142676   6.781   4.129  14.423  0.6037  0.5737 -0.3604
 7087TIP3    H242677   6.702   4.258  14.431 -0.4767 -0.0576 -0.5796
 7088TIP3   OH242678   4.555   4.772   5.300  0.2823  0.8411 -0.5348
 7088TIP3    H142679   4.562   4.710   5.372 -0.1421  0.3282 -0.9289
 7088TIP3    H242680   4.470   4.814   5.312 -1.4164 -1.6530 -2.5785
 7089TIP3   OH242681   3.578   5.456  15.938  0.4506  0.0716 -0.7716
 7089TIP3    H142682   3.512   5.390  15.921 -0.9565  0.2700  3.0913
 7089TIP3    H242683   3.653   5.407  15.972  0.4311  0.2498 -0.4716
 7090TIP3   OH242684   0.248   6.436  16.623 -0.2120 -0.1181 -0.0663
 7090TIP3    H142685   0.184   6.459  16.691 -0.0901  1.1035 -0.3323
 7090TIP3    H242686   0.332   6.433  16.669 -0.0012  1.5817 -0.2924
 7091TIP3   OH242687   5.178   4.839  14.381  0.0663 -0.2483 -0.4079
 7091TIP3    H142688   5.177   4.747  14.406 -0.6202  0.0924  0.9207
 7091TIP3    H242689   5.086   4.863  14.371  0.2274  0.3205 -0.5828
 7092TIP3   OH242690   1.658   0.820  14.251 -0.1221 -0.1018  0.4110
 7092TIP3    H142691   1.699   0.749  14.300  0.3255 -0.2037 -0.0996
 7092TIP3    H242692   1.730   0.878  14.228 -0.3274 -0.0585 -0.1312
 7093TIP3   OH242693   6.297   3.390  12.250  0.3756  0.0099 -0.2979
 7093TIP3    H142694   6.274   3.420  12.162 -1.1951  0.9667  0.3848
 7093TIP3    H242695   6.251   3.450  12.309  2.2024  0.0254  1.2119
 7094TIP3   OH242696   1.145   4.704  14.603  0.3806 -0.5670 -0.6441
 7094TIP3    H142697   1.200   4.637  14.645  1.2206 -0.2158 -1.1440
 7094TIP3    H242698   1.069   4.655  14.571 -0.2481 -0.8539  1.1685
 7095TIP3   OH242699   1.266   5.654  17.304  0.5195 -0.1470 -0.1253
 7095TIP3    H142700   1.250   5.722  17.240 -2.1821  1.5838  2.1272
 7095TIP3    H242701   1.357   5.628  17.291  0.6630  1.5148 -3.2179
 7096TIP3   OH242702   2.918   5.319  16.536  0.0497 -0.1812  0.5634
 7096TIP3    H142703   2.913   5.339  16.443  0.5388 -0.9435  0.3597
 7096TIP3    H242704   2.965   5.393  16.574  1.1386 -0.5324 -0.0433
 7097TIP3   OH242705   5.755   6.531  13.768 -0.0124 -0.2960  0.0212
 7097TIP3    H142706   5.792   6.447  13.794 -0.7779 -0.5933  0.1622
 7097TIP3    H242707   5.662   6.513  13.751 -0.2609  0.5788  0.3859
 7098TIP3   OH242708   4.810   1.037  13.419  0.2839 -0.1730 -0.0187
 7098TIP3    H142709   4.843   1.120  13.385 -0.9381  0.1487 -0.4501
 7098TIP3    H242710   4.828   1.042  13.513  0.7226  0.3333 -0.1211
 7099TIP3   OH242711   1.929   3.583   5.759 -0.6558 -0.2537 -0.1502
 7099TIP3    H142712   2.005   3.553   5.709  0.1542  1.4213  0.0233
 7099TIP3    H242713   1.904   3.508   5.813  1.2693 -0.6470  0.2484
 7100TIP3   OH242714   5.941   4.454  17.020  0.0067  0.0005  0.1652
 7100TIP3    H142715   6.004   4.408  16.965 -0.0817  0.2972 -0.1932
 7100TIP3    H242716   5.988   4.532  17.050 -0.3659  0.5301 -0.5839
 7101TIP3   OH242717   6.158   0.489  13.059  0.0986  0.6755 -0.2843
 7101TIP3    H142718   6.202   0.409  13.085 -1.4766 -0.5059 -1.0829
 7101TIP3    H242719   6.142   0.536  13.141  2.4408  1.0104  0.0636
 7102TIP3   OH242720   6.638   0.659  14.836  0.2389 -0.1153  0.4520
 7102TIP3    H142721   6.695   0.582  14.836  1.0278  0.3303 -2.5725
 7102TIP3    H242722   6.551   0.625  14.814  0.0211 -0.3993  1.6873
 7103TIP3   OH242723   4.304   2.047  13.867  0.7189 -0.1304  0.2965
 7103TIP3    H142724   4.287   2.139  13.885  0.7843 -0.0141 -0.2295
 7103TIP3    H242725   4.235   2.020  13.807  0.8495 -0.3563  0.2435
 7104TIP3   OH242726   2.429   4.737  13.623 -0.8628 -0.0186 -0.0754
 7104TIP3    H142727   2.385   4.740  13.708 -1.1784  0.7770 -0.2478
 7104TIP3    H242728   2.373   4.791  13.566  0.1917  0.7876 -0.3693
 7105TIP3   OH242729   1.698   0.038  13.514 -0.0077 -0.1298  0.2286
 7105TIP3    H142730   1.773  -0.015  13.489 -1.0707 -0.8047 -1.8522
 7105TIP3    H242731   1.633  -0.025  13.544  0.4228  0.4982  2.6173
 7106TIP3   OH242732   1.797   6.019  12.347  0.0337  0.1377  0.0603
 7106TIP3    H142733   1.763   5.946  12.294  0.0701  0.5118 -0.4821
 7106TIP3    H242734   1.864   6.060  12.292 -0.3104  0.8672  0.1739
 7107TIP3   OH242735   0.749   1.225   4.261 -0.4679  0.0242 -0.1071
 7107TIP3    H142736   0.712   1.312   4.243  0.4027  0.6183  0.8392
 7107TIP3    H242737   0.753   1.182   4.176 -1.2300  0.7847 -0.5399
 7108TIP3   OH242738   2.845   5.371   0.327 -0.1854 -0.3168  0.2042
 7108TIP3    H142739   2.852   5.425   0.406  1.9450 -1.7768  1.1137
 7108TIP3    H242740   2.879   5.427   0.257  3.3080 -0.7295  1.3521
 7109TIP3   OH242741   1.147   4.696  11.014  0.5451 -0.1505 -0.4154
 7109TIP3    H142742   1.242   4.687  11.006  0.7866  2.1938 -1.1853
 7109TIP3    H242743   1.130   4.789  10.996 -2.1158 -0.9002 -2.4688
 7110TIP3   OH242744   4.224   3.969   1.148 -0.3748 -0.3882 -0.1647
 7110TIP3    H142745   4.149   4.007   1.193  1.4637 -0.1995  2.9873
 7110TIP3    H242746   4.237   4.025   1.071 -1.3538  1.7393  1.1446
 7111TIP3   OH242747   3.082   5.252  15.064 -0.1924 -0.1382  0.3714
 7111TIP3    H142748   3.004   5.307  15.053  0.2458  0.3526 -0.3656
 7111TIP3    H242749   3.060   5.193  15.135 -1.2186  0.0432  0.2162
 7112TIP3   OH242750   0.194   0.895  13.130 -0.3787 -0.8666  0.6287
 7112TIP3    H142751   0.234   0.904  13.044 -1.4842 -0.9584  0.0923
 7112TIP3    H242752   0.183   0.985  13.161 -1.9555 -0.7072 -0.2794
 7113TIP3   OH242753   1.283   6.113  13.739 -0.1216  0.4032  0.5826
 7113TIP3    H142754   1.301   6.027  13.702 -1.0257 -0.0614  1.1729
 7113TIP3    H242755   1.191   6.128  13.721 -0.0389  1.1183  0.7399
 7114TIP3   OH242756   3.437   3.946   3.846 -0.2807  0.5198  0.4188
 7114TIP3    H142757   3.411   3.855   3.861 -1.9516  0.5328 -1.8309
 7114TIP3    H242758   3.515   3.940   3.791  0.7978  0.4760  1.9221
 7115TIP3   OH242759   6.011   1.179   3.404 -0.3025 -1.3434 -0.2842
 7115TIP3    H142760   6.047   1.221   3.482 -0.3824 -0.1978 -0.8463
 7115TIP3    H242761   5.917   1.173   3.421 -0.4029 -0.5578 -0.5216
 7116TIP3   OH242762   4.237   1.324   2.799  0.3356  0.0370 -0.0353
 7116TIP3    H142763   4.236   1.261   2.727  0.6894 -0.4994  0.4254
 7116TIP3    H242764   4.329   1.327   2.827  0.3386  0.8103 -0.0946
 7117TIP3   OH242765   5.214   1.012   2.889 -0.1532 -0.0768 -0.6056
 7117TIP3    H142766   5.291   1.060   2.858 -0.9086  0.7917 -1.2040
 7117TIP3    H242767   5.243   0.921   2.892  1.1955  0.3481  0.1639
 7118TIP3   OH242768   4.317   3.273  11.573 -0.1231 -0.1390 -0.1168
 7118TIP3    H142769   4.282   3.294  11.486 -0.6767  0.0139  0.1333
 7118TIP3    H242770   4.387   3.337  11.587 -0.9723  0.7698  0.1245
 7119TIP3   OH242771   1.661   5.235  14.378  0.2532  0.7769 -1.0624
 7119TIP3    H142772   1.597   5.301  14.405 -1.0804 -0.9010  0.1154
 7119TIP3    H242773   1.630   5.205  14.293  0.6397  1.3598 -1.4186
 7120TIP3   OH242774   1.818   2.127  11.194  0.2694  0.4168  0.0291
 7120TIP3    H142775   1.763   2.143  11.118  0.3926 -1.6283 -0.5453
 7120TIP3    H242776   1.860   2.043  11.176  1.6223  0.7042  1.5964
 7121TIP3   OH242777   5.396   0.193  14.566 -0.3382 -0.2065  0.2249
 7121TIP3    H142778   5.373   0.270  14.618  0.8120  1.6022 -1.7747
 7121TIP3    H242779   5.314   0.146  14.554 -1.0735  0.7207  1.4871
 7122TIP3   OH242780   3.521   5.217  14.935 -0.2084 -0.0166  0.2583
 7122TIP3    H142781   3.524   5.149  15.001 -1.2341 -1.4463 -1.0925
 7122TIP3    H242782   3.434   5.257  14.946 -0.2097  0.0347  0.0659
 7123TIP3   OH242783   3.563   5.095   5.643 -0.1360 -0.1769 -0.0442
 7123TIP3    H142784   3.520   5.054   5.567 -0.9130  1.2119 -0.3904
 7123TIP3    H242785   3.491   5.118   5.701  0.0743  2.2846 -0.6699
 7124TIP3   OH242786   6.224   5.867   3.125  0.0880 -0.2204  0.5628
 7124TIP3    H142787   6.225   5.949   3.176 -0.6460 -0.0425  0.3024
 7124TIP3    H242788   6.220   5.895   3.034 -1.4702 -0.5291  0.5070
 7125TIP3   OH242789   0.048   3.518   2.087  0.6908 -0.1350 -0.4645
 7125TIP3    H142790   0.060   3.540   2.180  1.4330  0.9424 -0.7928
 7125TIP3    H242791   0.022   3.426   2.088 -0.1383  0.0812  0.8537
 7126TIP3   OH242792   6.505   1.029  16.584  0.1524  0.1028 -0.5408
 7126TIP3    H142793   6.530   0.938  16.600  0.0594  0.4879  2.3079
 7126TIP3    H242794   6.583   1.068  16.544  2.2814 -0.0824  2.9779
 7127TIP3   OH242795   3.155   5.785   1.523 -0.2727 -0.2170  0.1712
 7127TIP3    H142796   3.176   5.692   1.525 -0.1214 -0.2552 -1.5014
 7127TIP3    H242797   3.192   5.820   1.604  2.3658 -1.0993 -0.5479
 7128TIP3   OH242798   2.487   1.702   0.223 -0.0339  0.0684  0.4852
 7128TIP3    H142799   2.434   1.634   0.266  0.4843 -1.4379 -1.1339
 7128TIP3    H242800   2.565   1.708   0.277  0.1492 -1.0399  0.3820
 7129TIP3   OH242801   6.065   6.058   5.306  0.0352 -0.1300  0.4957
 7129TIP3    H142802   6.104   6.122   5.366  0.7730 -1.7068  1.7880
 7129TIP3    H242803   5.973   6.083   5.302 -0.3123 -0.6154  3.2935
 7130TIP3   OH242804   3.344   0.047   4.673  0.3248  0.1979  0.2349
 7130TIP3    H142805   3.348   0.137   4.642  1.8171  0.0187 -0.1851
 7130TIP3    H242806   3.261   0.013   4.640 -2.1122  2.4210  3.3755
 7131TIP3   OH242807   0.703   2.112   0.542  0.1232 -0.0062 -0.0098
 7131TIP3    H142808   0.751   2.194   0.528 -1.5288  1.1866  1.0189
 7131TIP3    H242809   0.769   2.044   0.530  0.8755  1.2224 -4.1385
 7132TIP3   OH242810   0.683   2.390  13.298 -0.1741 -0.1407 -0.4116
 7132TIP3    H142811   0.703   2.296  13.292  0.7284 -0.1604  1.8648
 7132TIP3    H242812   0.615   2.396  13.365  0.2310  0.8797 -0.0717
 7133TIP3   OH242813   5.223   1.794   2.077 -0.0176  0.3059 -0.1692
 7133TIP3    H142814   5.262   1.772   1.992 -0.6012  0.5783 -0.5153
 7133TIP3    H242815   5.263   1.733   2.138  0.8249  0.4743 -0.5448
 7134TIP3   OH242816   1.517   4.239   3.505 -0.1548  0.5286 -0.1710
 7134TIP3    H142817   1.457   4.206   3.572  0.5747  1.0310  0.7539
 7134TIP3    H242818   1.465   4.299   3.453 -0.6294  0.4491  0.2059
 7135TIP3   OH242819   0.481   5.306   2.746 -0.3384  0.3184  0.0693
 7135TIP3    H142820   0.547   5.274   2.684 -0.9836 -0.2223 -0.3409
 7135TIP3    H242821   0.502   5.399   2.756 -1.0501  0.7835 -2.0599
 7136TIP3   OH242822   6.347   3.685   1.060 -0.0887 -0.1683  0.0233
 7136TIP3    H142823   6.258   3.653   1.075  0.3593 -1.4663  0.0302
 7136TIP3    H242824   6.374   3.722   1.145 -0.6693  0.3965 -0.0284
 7137TIP3   OH242825   0.830   5.432  12.973 -0.0278  0.1324  0.4900
 7137TIP3    H142826   0.809   5.438  12.880 -0.4966 -0.6226  0.5425
 7137TIP3    H242827   0.834   5.523  13.002  1.3139  0.4266 -0.5197
 7138TIP3   OH242828   4.489   5.143  14.796  0.5359  0.6115 -0.4226
 7138TIP3    H142829   4.581   5.118  14.799  0.2950 -0.2696  0.2213
 7138TIP3    H242830   4.466   5.140  14.704  1.2744  1.3379 -0.6449
 7139TIP3   OH242831   6.252   4.462   5.014 -0.9516  0.4905  0.0019
 7139TIP3    H142832   6.318   4.532   5.014 -0.9038  0.4627  0.9044
 7139TIP3    H242833   6.241   4.439   4.922  1.1387 -0.2855 -0.1297
 7140TIP3   OH242834   1.950   3.954  10.897  0.0049  0.2248  0.2455
 7140TIP3    H142835   2.018   3.943  10.831 -0.9084  2.8531 -1.2613
 7140TIP3    H242836   1.998   3.962  10.980  1.4785  1.1499 -0.6588
 7141TIP3   OH242837   1.093   4.091  13.500 -0.0445  1.0806  0.6830
 7141TIP3    H142838   1.015   4.036  13.485  1.7428 -1.1682 -1.1794
 7141TIP3    H242839   1.071   4.175  13.459 -1.1562  0.1498 -0.7359
 7142TIP3   OH242840   0.015   5.410   1.494 -0.3415 -0.7059 -0.0591
 7142TIP3    H142841  -0.028   5.374   1.572  0.6860  0.8362  1.2872
 7142TIP3    H242842   0.078   5.343   1.468  1.2545 -0.1896  2.1551
 7143TIP3   OH242843   4.981   2.541   5.478  0.2476  0.2762 -0.1785
 7143TIP3    H142844   4.963   2.508   5.390 -0.1904  1.5661 -0.6006
 7143TIP3    H242845   4.910   2.602   5.495  0.2212 -0.1136  1.1628
 7144TIP3   OH242846   6.472   1.040   4.668  0.3543 -0.3888 -0.0036
 7144TIP3    H142847   6.568   1.038   4.673  0.3526  1.0714  1.3817
 7144TIP3    H242848   6.445   0.957   4.709  1.0107 -0.5626  0.0967
 7145TIP3   OH242849   6.400   3.326  10.664 -0.5942 -0.3559 -0.3814
 7145TIP3    H142850   6.314   3.298  10.633 -1.4428  0.2091  1.3603
 7145TIP3    H242851   6.393   3.420  10.675 -0.4549 -0.5326  1.6894
 7146TIP3   OH242852   3.853   4.102   5.120  0.5545 -0.2371 -0.5888
 7146TIP3    H142853   3.811   4.026   5.079 -0.9710  0.3802 -0.2503
 7146TIP3    H242854   3.799   4.176   5.093  1.2972  0.5752  0.0969
 7147TIP3   OH242855   2.611   3.637  16.580 -0.6499 -0.1028  0.0801
 7147TIP3    H142856   2.574   3.581  16.648 -1.2241  1.6248  1.2551
 7147TIP3    H242857   2.538   3.654  16.520 -1.0927  1.1232  0.9286
 7148TIP3   OH242858   3.787   3.255   3.665 -0.0424  0.0188 -0.1199
 7148TIP3    H142859   3.869   3.225   3.705  0.6497  2.1312  0.1970
 7148TIP3    H242860   3.771   3.193   3.594  1.1683 -1.1516  0.5720
 7149TIP3   OH242861   3.460   2.032  12.498  0.5334  0.4152  0.4765
 7149TIP3    H142862   3.549   2.047  12.530 -0.6146  0.6730  3.9952
 7149TIP3    H242863   3.418   1.980  12.567 -1.3499 -2.0721 -2.2825
 7150TIP3   OH242864   6.377   1.015  15.836  0.2758 -0.5692  0.5093
 7150TIP3    H142865   6.311   1.018  15.767  1.2680  0.0670 -0.4491
 7150TIP3    H242866   6.349   0.943  15.893 -1.3230 -0.1935  0.2377
 7151TIP3   OH242867   3.780   2.972   4.385 -0.3104  0.2576  0.4170
 7151TIP3    H142868   3.804   2.925   4.465 -0.6137 -1.3831 -0.3934
 7151TIP3    H242869   3.816   2.918   4.314  1.8321  2.7683 -0.5546
 7152TIP3   OH242870   6.084   5.119   5.557  0.5472  0.0603  0.2777
 7152TIP3    H142871   6.126   5.033   5.548 -1.7894 -1.1031 -0.3360
 7152TIP3    H242872   6.109   5.166   5.478  0.2378 -0.8348 -0.3728
 7153TIP3   OH242873   0.492   4.379  13.526  0.7794 -0.6173 -0.2101
 7153TIP3    H142874   0.517   4.409  13.438 -1.6076  0.1998 -0.6673
 7153TIP3    H242875   0.506   4.284  13.523  1.0554 -0.5557 -1.3585
 7154TIP3   OH242876   4.488   0.894  15.201 -0.2983  0.3457  0.2232
 7154TIP3    H142877   4.472   0.985  15.225  4.0046  1.4297 -0.2460
 7154TIP3    H242878   4.534   0.857  15.276 -0.1788 -0.8322 -0.4003
 7155TIP3   OH242879   5.820   4.104  15.430 -0.1755  0.2516  0.1257
 7155TIP3    H142880   5.847   4.012  15.438 -0.2159  0.2564  0.3182
 7155TIP3    H242881   5.725   4.102  15.431 -0.2290  0.1499 -1.4776
 7156TIP3   OH242882   0.467   3.957   2.970  0.1694  0.2158  0.4835
 7156TIP3    H142883   0.479   3.905   2.891  0.1188 -0.3600  0.8454
 7156TIP3    H242884   0.450   4.046   2.939  2.4894  0.5117 -0.1258
 7157TIP3   OH242885   6.487   1.843  14.817 -0.8168  0.5113 -0.5671
 7157TIP3    H142886   6.450   1.756  14.803 -0.3176  0.1753  0.1839
 7157TIP3    H242887   6.581   1.832  14.803  0.0411 -0.2185  4.1950
 7158TIP3   OH242888   5.820   4.243  16.663 -1.0106  0.0273 -0.4932
 7158TIP3    H142889   5.900   4.273  16.620 -1.4359 -0.1459 -1.4254
 7158TIP3    H242890   5.850   4.198  16.742 -0.2623  1.0745 -0.1664
 7159TIP3   OH242891   0.120   0.068   2.782 -0.7182  0.2699  0.6204
 7159TIP3    H142892   0.070   0.139   2.820 -0.1220  0.8376  0.3574
 7159TIP3    H242893   0.212   0.092   2.795 -0.5002  0.3325 -0.8702
 7160TIP3   OH242894   5.828   4.863  13.098 -0.1332  0.0940  0.4943
 7160TIP3    H142895   5.750   4.854  13.044 -0.3321 -1.3606  0.9875
 7160TIP3    H242896   5.798   4.845  13.187  1.0809 -2.4787  0.4617
 7161TIP3   OH242897   4.916   0.384   1.763  0.0607 -0.0596  0.0547
 7161TIP3    H142898   5.008   0.404   1.783  0.3564 -2.3434  1.2705
 7161TIP3    H242899   4.874   0.380   1.849 -0.7468 -0.8732 -0.3701
 7162TIP3   OH242900   3.652   1.700   3.834  0.2421 -0.2013 -0.1532
 7162TIP3    H142901   3.662   1.726   3.742 -0.7046 -0.1371 -0.2463
 7162TIP3    H242902   3.711   1.625   3.844  1.6301  0.8258 -0.3580
 7163TIP3   OH242903   2.161   2.602  15.587  0.2704 -0.2858 -0.1086
 7163TIP3    H142904   2.218   2.671  15.620  0.5760  0.0644 -1.3119
 7163TIP3    H242905   2.079   2.647  15.567 -0.2366 -0.6700  1.0126
 7164TIP3   OH242906   5.172   6.391   5.101 -0.2024 -0.2803  0.1310
 7164TIP3    H142907   5.234   6.319   5.109  1.8215  1.4949  1.4492
 7164TIP3    H242908   5.148   6.412   5.191 -0.2419  1.1365 -0.1965
 7165TIP3   OH242909   5.104   3.254   0.557  0.8739  0.1920 -0.2305
 7165TIP3    H142910   5.047   3.260   0.481  0.4299  0.0921  0.0857
 7165TIP3    H242911   5.173   3.318   0.541  2.1695 -1.5183 -1.8428
 7166TIP3   OH242912   2.066   2.437  13.157  0.3674 -0.0350  0.2929
 7166TIP3    H142913   2.121   2.468  13.229  0.9854  0.3272 -0.3156
 7166TIP3    H242914   2.102   2.352  13.134  1.3544  0.6240 -0.7576
 7167TIP3   OH242915   3.276   3.140  13.216  0.0265 -0.4818  0.1462
 7167TIP3    H142916   3.364   3.175  13.229 -0.5089  1.3056 -0.7802
 7167TIP3    H242917   3.250   3.107  13.302  0.3669  1.9775  1.2580
 7168TIP3   OH242918   2.780   5.047   5.227 -0.3366  0.4359  0.8493
 7168TIP3    H142919   2.835   4.995   5.287 -2.2085 -1.3370  1.1244
 7168TIP3    H242920   2.825   5.041   5.143 -0.3343 -1.4312  0.9425
 7169TIP3   OH242921   5.321   1.375   6.054 -0.3169 -0.0700 -0.3058
 7169TIP3    H142922   5.232   1.364   6.021 -1.2945 -2.1852  2.6758
 7169TIP3    H242923   5.377   1.346   5.981 -1.8907  2.3295 -2.6358
 7170TIP3   OH242924   1.945   5.570  11.662 -0.2564  0.2330  0.1334
 7170TIP3    H142925   2.036   5.580  11.631  0.0943 -0.5397  0.8894
 7170TIP3    H242926   1.937   5.477  11.683 -0.8708  0.5029  1.1471
 7171TIP3   OH242927   0.199   1.238   3.062 -0.3430  0.0899 -0.3928
 7171TIP3    H142928   0.164   1.196   3.141  0.3762 -1.2579 -0.7433
 7171TIP3    H242929   0.139   1.210   2.993 -1.5485  2.0742 -0.2199
 7172TIP3   OH242930   2.641   4.931  16.665  0.4284 -0.0367 -0.2783
 7172TIP3    H142931   2.587   4.859  16.700  0.2384  1.1636  2.1294
 7172TIP3    H242932   2.605   5.010  16.707  1.8956  1.2301 -1.3004
 7173TIP3   OH242933   0.251   6.167   5.964 -0.2215  0.1647  0.2021
 7173TIP3    H142934   0.315   6.221   5.919 -0.5137  0.9005  0.6620
 7173TIP3    H242935   0.174   6.223   5.976 -0.2010 -0.0376  1.5009
 7174TIP3   OH242936   5.272   2.739  13.757  0.0264  0.2116  0.0536
 7174TIP3    H142937   5.178   2.731  13.738  0.1229  1.1358 -0.9235
 7174TIP3    H242938   5.300   2.650  13.777 -1.1399 -0.0139  0.7802
 7175TIP3   OH242939   5.371   2.136   3.770  0.0575 -0.3608  0.5516
 7175TIP3    H142940   5.297   2.190   3.741  0.0272 -1.2045 -1.0621
 7175TIP3    H242941   5.443   2.163   3.714  1.0502  0.5239  2.1865
 7176TIP3   OH242942   0.910   2.689   3.937 -0.1363 -0.4794 -0.1459
 7176TIP3    H142943   0.984   2.740   3.969 -0.4253 -0.2766  0.2090
 7176TIP3    H242944   0.919   2.603   3.979  0.5100 -0.8179 -0.9675
 7177TIP3   OH242945   3.686   0.097   3.754  0.1398 -0.3917 -0.4972
 7177TIP3    H142946   3.681   0.163   3.685  2.9897  0.6130  0.1118
 7177TIP3    H242947   3.616   0.121   3.815 -0.0172  1.0248 -1.1873
 7178TIP3   OH242948   0.786   3.298  15.670 -0.4067  0.2780  0.3499
 7178TIP3    H142949   0.758   3.369  15.612  0.2047  0.3547  0.1461
 7178TIP3    H242950   0.819   3.230  15.611 -2.2936 -0.7871  0.4531
 7179TIP3   OH242951   6.086   3.858   2.417  0.2677  0.0760  0.0539
 7179TIP3    H142952   6.061   3.935   2.367  0.7878 -0.1347 -0.5432
 7179TIP3    H242953   6.111   3.892   2.503 -0.5247  0.4521  0.1478
 7180TIP3   OH242954   0.774   1.197  13.110 -0.2322  0.3359  0.7998
 7180TIP3    H142955   0.856   1.207  13.159 -0.8884 -0.2184  2.0527
 7180TIP3    H242956   0.745   1.286  13.091  1.1310  0.5419 -0.5128
 7181TIP3   OH242957   4.204   6.179   5.353  0.0491  0.4553  0.3541
 7181TIP3    H142958   4.263   6.230   5.408  1.7566 -0.4357 -0.5612
 7181TIP3    H242959   4.178   6.104   5.407  1.0957 -0.0052  0.2507
 7182TIP3   OH242960   5.662   1.853  10.863 -0.1619 -0.0269 -0.6350
 7182TIP3    H142961   5.661   1.846  10.767  0.9771  0.4800 -0.6969
 7182TIP3    H242962   5.698   1.940  10.880 -2.9218  1.0589  0.2485
 7183TIP3   OH242963   2.817   6.355  10.628 -0.1716 -0.3524 -0.1915
 7183TIP3    H142964   2.885   6.420  10.647  0.5485 -0.2208 -2.8384
 7183TIP3    H242965   2.737   6.394  10.661  0.7141  0.4666  1.0633
 7184TIP3   OH242966   5.121   2.338  15.410  0.5350  0.2316  0.1923
 7184TIP3    H142967   5.086   2.290  15.335 -1.6323 -0.2239  1.4170
 7184TIP3    H242968   5.079   2.424  15.405  0.3659  0.1962  0.8724
 7185TIP3   OH242969   5.929   3.626   0.316 -0.4306  0.3933  0.4043
 7185TIP3    H142970   5.942   3.703   0.371  0.9424  0.3448  0.1869
 7185TIP3    H242971   6.006   3.624   0.258 -1.5543  0.1205 -1.1358
 7186TIP3   OH242972   3.457   0.550  13.999  0.7389  0.4896  0.1005
 7186TIP3    H142973   3.466   0.643  13.980  2.3693 -0.0817 -2.5439
 7186TIP3    H242974   3.547   0.519  14.008  0.2113 -0.7781  1.3741
 7187TIP3   OH242975   0.646   0.329  13.887 -0.2582  0.0283 -0.6476
 7187TIP3    H142976   0.602   0.356  13.807 -1.9668 -1.0068 -0.1069
 7187TIP3    H242977   0.737   0.315  13.860 -1.1624 -2.3162 -2.9518
 7188TIP3   OH242978   2.049   2.020  17.101 -0.2217 -0.0413 -0.2338
 7188TIP3    H142979   2.130   2.071  17.110 -0.0984 -0.4738  1.3958
 7188TIP3    H242980   2.061   1.945  17.159 -1.7580 -0.1483 -0.0155
 7189TIP3   OH242981   0.216   1.438   3.564  0.1604  0.0170 -0.1366
 7189TIP3    H142982   0.245   1.439   3.655  0.2773  1.4679 -0.1667
 7189TIP3    H242983   0.156   1.363   3.559 -0.1376  0.1307  1.2228
 7190TIP3   OH242984   5.191   5.928   4.360  0.1150 -0.0476  0.3563
 7190TIP3    H142985   5.263   5.898   4.415 -1.9568 -2.4469  2.0208
 7190TIP3    H242986   5.148   5.997   4.411  0.6906  0.7742 -0.2467
 7191TIP3   OH242987   2.947   1.594   5.307  0.4850 -0.1720  0.6868
 7191TIP3    H142988   2.985   1.674   5.272 -1.4658  0.8540  0.7830
 7191TIP3    H242989   2.856   1.596   5.278  0.2268 -2.0636  1.2121
 7192TIP3   OH242990   0.448   2.867   2.498  0.2232  0.0465 -0.3052
 7192TIP3    H142991   0.354   2.861   2.483  0.0086 -0.3249  1.0774
 7192TIP3    H242992   0.477   2.776   2.502  0.6881  0.1605 -0.9388
 7193TIP3   OH242993   6.687   6.526  16.334 -0.1506  0.1409 -0.4052
 7193TIP3    H142994   6.645   6.452  16.378 -0.3655  0.6096  0.1837
 7193TIP3    H242995   6.766   6.543  16.386  0.0339  0.1671 -0.6903
 7194TIP3   OH242996   1.024   2.024  13.030 -0.8365  0.7020 -0.6344
 7194TIP3    H142997   0.983   1.944  13.064 -0.2956  0.2948 -0.9271
 7194TIP3    H242998   1.006   2.090  13.097 -1.7504  0.4757 -0.6409
 7195TIP3   OH242999   3.109   2.414  15.722  0.6422 -0.1707  0.3938
 7195TIP3    H143000   3.029   2.442  15.766  0.3138 -0.9091  0.2879
 7195TIP3    H243001   3.149   2.495  15.690  1.0621  0.4366  2.2994
 7196TIP3   OH243002   5.678   3.847   0.822  0.6880  0.8140 -0.0923
 7196TIP3    H143003   5.609   3.862   0.887  0.4440  1.3315 -0.4687
 7196TIP3    H243004   5.633   3.806   0.748  0.9371  0.3769 -0.0033
 7197TIP3   OH243005   4.628   4.130  15.689 -0.2540 -0.1182  0.0456
 7197TIP3    H143006   4.670   4.045  15.703 -2.2511 -0.8584  2.2242
 7197TIP3    H243007   4.654   4.181  15.766 -0.2818  0.7361 -0.5070
 7198TIP3   OH243008   0.287   6.117   1.859 -0.0461  0.2504  0.2988
 7198TIP3    H143009   0.337   6.106   1.940  0.5099  0.1207 -0.0557
 7198TIP3    H243010   0.351   6.149   1.796 -0.0504 -1.3688 -0.5725
 7199TIP3   OH243011   5.196   3.020   5.992 -0.2598 -0.3188  0.2208
 7199TIP3    H143012   5.222   3.103   5.951 -0.2425 -0.0040  0.8552
 7199TIP3    H243013   5.149   3.046   6.071 -0.7965 -0.9152  0.0987
 7200TIP3   OH243014   0.285   5.495  12.521 -0.4331  0.4269  0.2860
 7200TIP3    H143015   0.346   5.439  12.473  0.2412  0.0814  1.5247
 7200TIP3    H243016   0.296   5.582  12.482  1.0456  0.4247  0.6779
 7201TIP3   OH243017   5.538   2.420   2.077 -0.2803  0.0085 -0.0756
 7201TIP3    H143018   5.625   2.414   2.040 -0.2664 -0.2003 -0.0095
 7201TIP3    H243019   5.481   2.374   2.015  0.1780 -3.0776  1.5916
 7202TIP3   OH243020   2.163   1.016   0.099 -0.1027  0.3990 -0.0321
 7202TIP3    H143021   2.174   0.990   0.190  1.0691 -1.8986 -0.7213
 7202TIP3    H243022   2.078   0.979   0.074 -0.9687  2.0208  0.3793
 7203TIP3   OH243023   5.144   3.792   2.284  0.3442 -0.5261 -0.0074
 7203TIP3    H143024   5.161   3.820   2.374  0.2363 -1.9759  0.4921
 7203TIP3    H243025   5.083   3.857   2.250  2.0450  1.2762  0.2092
 7204TIP3   OH243026   1.370   3.942   1.940 -0.1312  0.0021 -0.5952
 7204TIP3    H143027   1.414   3.891   2.009 -0.2451  0.0923 -0.4568
 7204TIP3    H243028   1.324   3.877   1.888 -0.9995  0.0443  0.0999
 7205TIP3   OH243029   6.757   5.548  12.576  0.0295 -0.2527  0.2939
 7205TIP3    H143030   6.730   5.458  12.593 -1.5647  0.2959  0.8762
 7205TIP3    H243031   6.851   5.542  12.558 -0.2519 -2.1673 -0.8361
 7206TIP3   OH243032   0.249   1.580  15.081 -0.2405  0.1819 -0.3076
 7206TIP3    H143033   0.155   1.579  15.060  0.1082  0.7410 -2.0067
 7206TIP3    H243034   0.281   1.662  15.044  0.3712  1.6303  3.0326
 7207TIP3   OH243035   3.200   1.458  16.716  0.2367  0.6346  0.0262
 7207TIP3    H143036   3.270   1.398  16.689  0.5723  0.7637  0.5878
 7207TIP3    H243037   3.172   1.501  16.635 -0.6986 -0.9895 -0.5563
 7208TIP3   OH243038   6.702   2.455   4.118  0.1201 -0.0760  0.0776
 7208TIP3    H143039   6.765   2.469   4.048  0.5510 -1.2270  0.2020
 7208TIP3    H243040   6.696   2.540   4.162  0.8555  0.3083 -0.5298
 7209TIP3   OH243041   0.323   3.990   3.896 -0.0087 -0.1640  0.4517
 7209TIP3    H143042   0.242   3.986   3.845 -0.1803  1.3696  0.5864
 7209TIP3    H243043   0.391   3.966   3.833 -0.4455 -0.3989  0.0596
 7210TIP3   OH243044   2.049   1.467   0.387  0.0509  0.0512  0.2467
 7210TIP3    H143045   1.992   1.543   0.379 -0.5960 -0.3596  0.8594
 7210TIP3    H243046   2.035   1.436   0.476  0.5607 -0.5921  0.1108
 7211TIP3   OH243047   2.521   6.083  11.506 -0.2268 -0.4352 -0.0028
 7211TIP3    H143048   2.514   6.133  11.587 -1.3743  0.2244 -0.4979
 7211TIP3    H243049   2.562   6.001  11.532  1.9020  0.7950  0.8024
 7212TIP3   OH243050   3.349   3.314   5.554 -0.3307 -0.7034 -0.0300
 7212TIP3    H143051   3.333   3.320   5.460 -1.2057 -2.6425 -0.0425
 7212TIP3    H243052   3.313   3.229   5.579  1.2604 -0.8974  1.7905
 7213TIP3   OH243053   6.670   5.480  16.630 -0.0150  0.1955  1.0525
 7213TIP3    H143054   6.615   5.463  16.706  1.1012  0.1708  1.8749
 7213TIP3    H243055   6.758   5.452  16.656  0.2955 -0.3772 -0.4500
 7214TIP3   OH243056   2.524   1.216  13.537  0.1036  0.6970  0.3467
 7214TIP3    H143057   2.461   1.172  13.481 -0.1231  2.1854 -0.6364
 7214TIP3    H243058   2.608   1.206  13.492 -0.0333  1.6526 -0.1609
 7215TIP3   OH243059   5.073   3.152  16.112  0.1116  0.1229 -0.3115
 7215TIP3    H143060   4.999   3.102  16.076 -1.8374  2.7078 -0.1923
 7215TIP3    H243061   5.124   3.177  16.035  0.9873 -1.7453 -0.3923
 7216TIP3   OH243062   4.872   5.626  13.857 -0.0148 -0.2637 -0.7697
 7216TIP3    H143063   4.855   5.652  13.766  0.8793 -1.8101 -1.4290
 7216TIP3    H243064   4.953   5.671  13.881 -0.2090  0.0839 -0.7641
 7217TIP3   OH243065   4.962   0.879   1.722  0.3891  0.1852  0.6742
 7217TIP3    H143066   4.915   0.809   1.678  1.1285 -0.2475  0.5512
 7217TIP3    H243067   5.030   0.905   1.660 -0.3004  1.4938  0.4407
 7218TIP3   OH243068   2.256   0.128  12.053  0.1023 -0.6314  0.3867
 7218TIP3    H143069   2.183   0.069  12.068  0.6258 -1.0265  1.4797
 7218TIP3    H243070   2.216   0.206  12.014 -0.8858 -0.8595  0.9190
 7219TIP3   OH243071   4.766   5.797   1.600  0.1559  0.2131 -0.6318
 7219TIP3    H143072   4.761   5.795   1.695  0.7876  2.2639 -0.4911
 7219TIP3    H243073   4.728   5.882   1.576 -1.3633 -0.8716 -2.3478
 7220TIP3   OH243074   1.634   2.167  16.811 -0.3974  0.3917 -0.1160
 7220TIP3    H143075   1.577   2.202  16.880  0.7900  0.7248  0.7433
 7220TIP3    H243076   1.672   2.088  16.850 -0.1109  0.2941 -0.5921
 7221TIP3   OH243077   0.089   3.061  17.115 -0.3790  0.9447  0.8356
 7221TIP3    H143078  -0.002   3.049  17.087 -0.1233  0.1553  0.3030
 7221TIP3    H243079   0.106   3.155  17.104 -0.5469  0.7980 -0.8950
 7222TIP3   OH243080   2.284   4.898   1.533 -0.1350 -0.4027  0.5903
 7222TIP3    H143081   2.377   4.920   1.537 -0.7662  2.4229  1.8925
 7222TIP3    H243082   2.266   4.889   1.439  1.4990 -1.5747  0.3368
 7223TIP3   OH243083   6.163   2.297  11.207  0.5822 -0.4348 -0.3542
 7223TIP3    H143084   6.201   2.281  11.294 -1.9601  1.0357  1.1319
 7223TIP3    H243085   6.125   2.213  11.182 -0.4808 -0.3726  0.9481
 7224TIP3   OH243086   2.853   2.438  13.930 -0.6810  0.0015  0.1005
 7224TIP3    H143087   2.839   2.374  14.000  0.5577 -2.6361 -1.8803
 7224TIP3    H243088   2.766   2.457  13.897 -1.0572 -0.8276  0.5913
 7225TIP3   OH243089   2.283   2.238  13.647  0.1185 -0.3581  0.0150
 7225TIP3    H143090   2.273   2.247  13.742  0.7241 -2.5076  0.3485
 7225TIP3    H243091   2.373   2.208  13.635  0.1747  0.2532 -1.2845
 7226TIP3   OH243092   4.568   2.835   5.074 -0.3890  0.3298  1.1199
 7226TIP3    H143093   4.614   2.805   4.996 -1.6092 -0.3702  0.6445
 7226TIP3    H243094   4.556   2.929   5.061  1.7429  0.7363  1.7166
 7227TIP3   OH243095   1.291   6.550   5.297 -0.1673 -0.0309  0.2313
 7227TIP3    H143096   1.306   6.529   5.389 -1.9021 -1.6653  0.2070
 7227TIP3    H243097   1.378   6.571   5.263  0.7159 -0.7259  1.9276
 7228TIP3   OH243098   3.685   0.463  13.049  0.1826 -0.0358 -0.3252
 7228TIP3    H143099   3.664   0.556  13.061  3.0838  0.8822 -1.6021
 7228TIP3    H243100   3.774   0.462  13.015 -0.0790 -3.2795 -1.2744
 7229TIP3   OH243101   4.095   0.488  17.027 -0.5182  0.5209 -0.3462
 7229TIP3    H143102   4.115   0.519  17.116 -1.4207 -1.1221  0.4801
 7229TIP3    H243103   4.113   0.394  17.030 -1.4282  0.2854 -1.6435
 7230TIP3   OH243104   0.860   5.686   3.699 -0.2557  0.0185 -0.5732
 7230TIP3    H143105   0.800   5.742   3.749  0.5201  1.0705 -0.7803
 7230TIP3    H243106   0.811   5.661   3.621 -1.0055 -0.5326  0.0533
 7231TIP3   OH243107   4.621   6.068   4.412  0.2869  0.2073  0.2028
 7231TIP3    H143108   4.641   6.088   4.503 -0.4946  1.9011  0.0293
 7231TIP3    H243109   4.585   5.979   4.414 -5.8632  2.2656  2.5497
 7232TIP3   OH243110   2.889   4.094  12.268 -0.4782  0.1925  0.2562
 7232TIP3    H143111   2.936   4.014  12.293 -1.4440 -0.2863  0.6196
 7232TIP3    H243112   2.951   4.143  12.214  0.2479 -0.6513  0.3020
 7233TIP3   OH243113   2.236   4.684   0.145 -0.5835  0.1816 -0.0353
 7233TIP3    H143114   2.259   4.592   0.134  4.5028  1.3794 -2.9877
 7233TIP3    H243115   2.192   4.708   0.064  3.9751  1.3372 -2.5580
 7234TIP3   OH243116   5.668   4.004   4.375 -0.1691 -0.0009 -0.5423
 7234TIP3    H143117   5.694   4.019   4.466  0.3495 -1.3019 -0.4631
 7234TIP3    H243118   5.741   3.956   4.336 -1.6859 -2.2676 -0.7733
 7235TIP3   OH243119   5.472   2.851  14.979  0.1058  0.2800  0.0614
 7235TIP3    H143120   5.501   2.939  15.004 -0.2150  0.9573 -1.7769
 7235TIP3    H243121   5.381   2.863  14.951  0.8932 -0.0032 -2.9659
 7236TIP3   OH243122   4.713   6.617  15.055 -0.1825  0.0711 -0.3182
 7236TIP3    H143123   4.709   6.708  15.028  2.3546 -0.1374 -1.7430
 7236TIP3    H243124   4.650   6.572  14.999 -2.3420  1.0493  1.2206
 7237TIP3   OH243125   1.681   0.420  15.380  0.1982 -0.0661 -0.4523
 7237TIP3    H143126   1.695   0.514  15.386  0.2664 -0.0039 -1.3850
 7237TIP3    H243127   1.754   0.382  15.429  0.1766  0.3628 -0.0808
 7238TIP3   OH243128   1.373   5.734  16.168  0.3354  0.0975 -0.4548
 7238TIP3    H143129   1.428   5.811  16.155  0.7014 -0.3714 -1.8241
 7238TIP3    H243130   1.408   5.669  16.107  1.9299 -2.2065  2.6432
 7239TIP3   OH243131   2.874   1.418   5.546  0.6019 -0.5041 -0.0644
 7239TIP3    H143132   2.907   1.462   5.467  1.8700  0.6046  1.0473
 7239TIP3    H243133   2.867   1.326   5.520  0.1738 -0.0530 -1.7137
 7240TIP3   OH243134   6.616   2.679   2.678 -0.1497 -0.1081 -0.0424
 7240TIP3    H143135   6.532   2.703   2.718 -0.8986  1.0884 -2.1871
 7240TIP3    H243136   6.665   2.761   2.676  0.2191 -0.3403 -0.7372
 7241TIP3   OH243137   3.299   5.203  11.655 -0.0803  0.1554 -0.5825
 7241TIP3    H143138   3.312   5.113  11.685  0.0814  0.1979 -0.5242
 7241TIP3    H243139   3.205   5.217  11.662  0.0431  0.4729  0.8220
 7242TIP3   OH243140   6.359   1.307   4.051  0.4996 -0.6062 -0.9050
 7242TIP3    H143141   6.274   1.316   4.008  1.1775  0.0219 -2.1531
 7242TIP3    H243142   6.398   1.394   4.047  1.9013 -1.2391 -1.8729
 7243TIP3   OH243143   6.505   4.883  12.045 -0.0217 -0.0131 -0.5075
 7243TIP3    H143144   6.435   4.897  11.981  1.7280  1.1747 -2.2669
 7243TIP3    H243145   6.502   4.962  12.100  0.6798  0.6346 -1.3660
 7244TIP3   OH243146   5.493   6.653  14.674 -0.1285  0.5178  0.2957
 7244TIP3    H143147   5.448   6.655  14.758 -0.5264 -1.7658  0.2112
 7244TIP3    H243148   5.585   6.666  14.695 -0.4348  1.9278  0.8383
 7245TIP3   OH243149   4.760   5.669  16.917 -0.4245 -0.6501  0.2916
 7245TIP3    H143150   4.745   5.577  16.937 -0.8235 -0.5422  0.5151
 7245TIP3    H243151   4.692   5.692  16.854 -0.6911 -0.3654  0.6755
 7246TIP3   OH243152   2.784   5.301   0.746  0.1752  0.6062 -0.4037
 7246TIP3    H143153   2.762   5.349   0.666 -0.8363  0.6015 -0.1381
 7246TIP3    H243154   2.785   5.367   0.815  0.5168  0.5270 -0.3307
 7247TIP3   OH243155   0.728   4.150   0.967 -0.8711 -0.6548  0.0400
 7247TIP3    H143156   0.753   4.067   0.927  0.0526 -0.3104 -0.1374
 7247TIP3    H243157   0.699   4.205   0.894 -1.7161 -0.8936  0.1875
 7248TIP3   OH243158   4.927   4.215  12.294  0.0559  0.2956  0.2627
 7248TIP3    H143159   4.918   4.221  12.389 -0.1856 -1.5195  0.3888
 7248TIP3    H243160   4.860   4.152  12.267  2.2427 -1.7591 -0.6829
 7249TIP3   OH243161   0.866   4.129   6.120  0.0246  0.6216  0.4818
 7249TIP3    H143162   0.802   4.092   6.180 -0.3175  1.9447  0.9795
 7249TIP3    H243163   0.875   4.064   6.050 -0.5370 -0.3582  1.3043
 7250TIP3   OH243164   1.304   2.989   5.696 -0.1725  0.3018 -0.6680
 7250TIP3    H143165   1.395   2.962   5.707 -0.5823 -1.0792 -0.3727
 7250TIP3    H243166   1.280   3.026   5.780  0.8142  3.0830 -1.5031
 7251TIP3   OH243167   6.367   2.258  10.571  0.0236 -0.0864  0.0305
 7251TIP3    H143168   6.431   2.315  10.612 -0.7971  0.9115 -0.0277
 7251TIP3    H243169   6.411   2.174  10.564  0.9349  0.2838  0.9804
 7252TIP3   OH243170   2.550   1.018  11.114 -1.0320 -1.1405  0.1591
 7252TIP3    H143171   2.526   0.970  11.035  0.5122 -1.3912 -0.1845
 7252TIP3    H243172   2.478   1.080  11.127 -1.2516 -1.0082 -1.4965
 7253TIP3   OH243173   0.902   1.805   3.115 -0.6005  0.2708  0.5025
 7253TIP3    H143174   0.921   1.753   3.193  0.6836 -1.9078 -1.1775
 7253TIP3    H243175   0.983   1.853   3.098 -0.4318 -0.2341 -0.1724
 7254TIP3   OH243176   4.899   6.141   2.941 -0.2560 -0.6433  0.2687
 7254TIP3    H143177   4.960   6.124   3.013 -0.6038 -1.9034  0.2938
 7254TIP3    H243178   4.947   6.116   2.862 -1.1934 -3.1443  0.3993
 7255TIP3   OH243179   3.753   5.545  15.706 -0.4241 -0.2256 -0.2215
 7255TIP3    H143180   3.756   5.629  15.751 -1.0339  0.1628 -0.8808
 7255TIP3    H243181   3.691   5.493  15.757  0.1233 -0.3615  0.3161
 7256TIP3   OH243182   0.885   6.706   4.515  0.1318  0.6070  0.3951
 7256TIP3    H143183   0.865   6.752   4.434 -2.9617  0.3486  0.8770
 7256TIP3    H243184   0.874   6.613   4.493 -1.0588  0.5502  1.1324
 7257TIP3   OH243185   5.928   3.597   4.052 -0.2599  0.2907  0.0837
 7257TIP3    H143186   6.013   3.558   4.031 -0.1151  0.7234 -0.1529
 7257TIP3    H243187   5.949   3.670   4.110 -0.3500  1.1339 -0.9150
 7258TIP3   OH243188   5.424   2.602   3.930 -0.4116  0.3411  0.9571
 7258TIP3    H143189   5.498   2.592   3.870 -1.0030  0.9317  0.1091
 7258TIP3    H243190   5.364   2.532   3.907 -0.6102  0.5288  0.8986
 7259TIP3   OH243191   3.958   2.214   5.574 -0.1987 -0.1541  0.2408
 7259TIP3    H143192   3.921   2.300   5.590  0.1663 -0.1379  1.0154
 7259TIP3    H243193   4.040   2.232   5.526 -1.8432 -0.2516 -2.9036
 7260TIP3   OH243194   3.237   1.789  15.985 -0.3603  0.1034 -0.5868
 7260TIP3    H143195   3.285   1.763  15.906 -0.6887 -1.5333 -0.2805
 7260TIP3    H243196   3.145   1.781  15.960 -0.4739 -1.1052  0.1457
 7261TIP3   OH243197   1.822   3.328  13.011  0.7254 -0.0003  0.6292
 7261TIP3    H143198   1.874   3.403  13.038  1.6323 -0.4004  0.0507
 7261TIP3    H243199   1.817   3.334  12.915  0.6741 -0.5896  0.5869
 7262TIP3   OH243200   1.726   5.867   3.884 -0.4478  0.1014 -0.1179
 7262TIP3    H143201   1.641   5.909   3.895 -0.5163 -0.2953  1.0181
 7262TIP3    H243202   1.731   5.847   3.790 -1.4775  0.3943 -0.2481
 7263TIP3   OH243203   1.704   1.827   5.993  0.2361 -0.2592 -0.5073
 7263TIP3    H143204   1.718   1.892   6.062 -0.8096 -0.3683 -0.1733
 7263TIP3    H243205   1.779   1.837   5.935 -0.6463  2.3167 -1.3346
 7264TIP3   OH243206   0.106   6.536  12.345  0.5672 -0.6281  0.0413
 7264TIP3    H143207   0.130   6.600  12.278  0.8759 -1.0078 -0.2171
 7264TIP3    H243208   0.095   6.454  12.296 -1.9033 -0.3728  0.0337
 7265TIP3   OH243209   5.490   3.812  15.328 -0.1379  0.0648 -0.5054
 7265TIP3    H143210   5.415   3.804  15.269  1.0483  0.1514 -2.0606
 7265TIP3    H243211   5.475   3.895  15.374 -3.3703 -2.0023  2.7389
 7266TIP3   OH243212   6.210   3.334  15.109 -0.3619  0.1707 -0.2027
 7266TIP3    H143213   6.145   3.379  15.163 -0.9190 -1.7181  0.8129
 7266TIP3    H243214   6.264   3.287  15.172 -0.1911 -1.0304 -1.2069
 7267TIP3   OH243215   5.563   3.146  17.190  0.1590 -0.0888 -0.1755
 7267TIP3    H143216   5.615   3.072  17.221 -0.5185 -0.3052  0.4715
 7267TIP3    H243217   5.490   3.151  17.252 -0.9216 -0.1626 -1.4185
 7268TIP3   OH243218   4.942   6.060   1.530 -0.4313 -0.8882 -0.4968
 7268TIP3    H143219   4.980   6.077   1.616  1.6359 -1.0927 -1.3119
 7268TIP3    H243220   4.852   6.034   1.548 -0.2502 -0.2428  1.5400
 7269TIP3   OH243221   3.493   1.937  13.593  0.5537 -0.3270  0.3211
 7269TIP3    H143222   3.517   1.997  13.664 -0.8284 -1.5901  1.9400
 7269TIP3    H243223   3.567   1.941  13.533  1.4326  1.3952  1.4270
 7270TIP3   OH243224   1.286   1.944   3.366 -0.3407 -0.0880  0.2172
 7270TIP3    H143225   1.369   1.908   3.397 -0.3989 -0.3020  0.1285
 7270TIP3    H243226   1.223   1.921   3.434 -0.9175 -2.4574 -1.0072
 7271TIP3   OH243227   1.013   3.439   0.575 -0.2260 -0.1034  0.1097
 7271TIP3    H143228   0.965   3.521   0.587  1.5248  0.8271  1.3795
 7271TIP3    H243229   0.968   3.376   0.632 -0.8615  0.3200  0.0797
 7272TIP3   OH243230   4.576   1.948   4.669  0.4080  0.0531  0.1014
 7272TIP3    H143231   4.509   1.979   4.729 -1.9612 -2.7850 -0.8186
 7272TIP3    H243232   4.618   2.027   4.635 -1.2955  1.8825  2.0200
 7273TIP3   OH243233   6.746   3.765   4.411  0.2843 -0.3292 -0.1723
 7273TIP3    H143234   6.736   3.699   4.479  0.5726  1.2479  1.4900
 7273TIP3    H243235   6.841   3.780   4.405  0.1620  0.8282  0.4304
 7274TIP3   OH243236   5.221   4.240   5.559 -0.7393  0.1710 -0.6614
 7274TIP3    H143237   5.218   4.146   5.541 -1.6154  0.1196 -0.2591
 7274TIP3    H243238   5.256   4.278   5.479 -0.3843 -0.4942 -0.8310
 7275TIP3   OH243239   2.135   3.005   5.604 -0.3519  0.1031 -0.2558
 7275TIP3    H143240   2.120   2.932   5.544 -0.7638  1.3068 -1.6750
 7275TIP3    H243241   2.047   3.037   5.626 -0.2086 -0.3272  1.0251
 7276TIP3   OH243242   3.133   2.427   4.483  0.1171 -0.1752  0.0882
 7276TIP3    H143243   3.079   2.396   4.555 -1.9365  1.5190 -0.6355
 7276TIP3    H243244   3.172   2.508   4.515  0.0737  0.0172 -0.3474
 7277TIP3   OH243245   2.289   4.461   3.229  0.0118 -0.9248 -0.5785
 7277TIP3    H143246   2.336   4.484   3.149  0.5623 -0.9587 -0.2743
 7277TIP3    H243247   2.255   4.373   3.212 -1.2241 -0.3152 -1.3584
 7278TIP3   OH243248   2.824   4.410   4.345  0.4440  0.1640  0.7711
 7278TIP3    H143249   2.736   4.372   4.345  0.3990  0.2374 -0.3537
 7278TIP3    H243250   2.881   4.335   4.363  0.1658  0.1145  1.5034
 7279TIP3   OH243251   0.578   4.255  11.219  0.2537  0.2780  0.5924
 7279TIP3    H143252   0.626   4.231  11.298  1.8187  0.3864 -0.2847
 7279TIP3    H243253   0.625   4.331  11.185 -1.2294  1.1058  0.2727
 7280TIP3   OH243254   0.127   6.439  13.612 -0.0290 -0.4456 -0.1801
 7280TIP3    H143255   0.081   6.378  13.554 -1.0234 -1.4283  1.5544
 7280TIP3    H243256   0.215   6.401  13.620 -0.0068 -0.5190 -0.7209
 7281TIP3   OH243257   4.075   2.706   4.935 -0.5514  0.0433 -0.4213
 7281TIP3    H143258   4.047   2.797   4.942  1.4447  0.6955 -0.4466
 7281TIP3    H243259   4.111   2.698   4.847  0.0262 -0.5502 -0.1389
 7282TIP3   OH243260   3.101   3.585   0.692  0.8213  0.1497  0.5330
 7282TIP3    H143261   3.030   3.520   0.691 -0.5381  1.5577 -1.0461
 7282TIP3    H243262   3.081   3.639   0.769 -0.0433  0.7203 -0.0674
 7283TIP3   OH243263   3.972   1.941  14.052 -0.0907  0.4790 -0.2669
 7283TIP3    H143264   3.901   1.951  13.989  0.6102  0.7040 -1.0449
 7283TIP3    H243265   3.953   1.860  14.098 -1.2321  0.9057  0.0459
 7284TIP3   OH243266   0.555   5.904  16.157  0.1383  0.9295 -0.5367
 7284TIP3    H143267   0.549   5.986  16.207 -0.5858  0.7239 -0.2617
 7284TIP3    H243268   0.529   5.928  16.068 -1.5453  0.7452 -0.1395
 7285TIP3   OH243269   5.060   3.596  12.024 -0.2307  0.0109 -0.5563
 7285TIP3    H143270   5.115   3.522  12.000 -0.8123 -0.4947 -0.3471
 7285TIP3    H243271   5.107   3.640  12.095 -1.0219 -1.5758  1.0153
 7286TIP3   OH243272   6.687   0.495   2.243 -0.6998  0.0511  0.4346
 7286TIP3    H143273   6.686   0.440   2.321  1.2180 -1.4300 -0.4920
 7286TIP3    H243274   6.753   0.561   2.260  0.9655 -1.2905 -0.4958
 7287TIP3   OH243275   2.026   4.780  14.671 -0.2141 -0.2570 -0.5084
 7287TIP3    H143276   2.069   4.717  14.614 -1.7337  1.3500 -3.6692
 7287TIP3    H243277   2.097   4.837  14.701  0.7513 -1.6933  0.0349
 7288TIP3   OH243278   6.035   1.468  15.440 -0.0555  0.4495 -0.4412
 7288TIP3    H143279   6.092   1.398  15.408 -1.5807 -0.6280 -0.8933
 7288TIP3    H243280   5.997   1.434  15.521 -2.2351 -0.0724 -1.6096
 7289TIP3   OH243281   2.066   3.329   4.538 -0.0263 -0.3902  0.6381
 7289TIP3    H143282   2.140   3.359   4.591 -0.4093 -1.0054  1.5480
 7289TIP3    H243283   2.104   3.310   4.452  0.3405  2.0832  0.1778
 7290TIP3   OH243284   1.014   1.230   4.874 -0.5567  0.1203  0.0859
 7290TIP3    H143285   0.949   1.163   4.898 -1.5557  1.1549  0.3537
 7290TIP3    H243286   0.994   1.304   4.930  0.8864  0.4674  0.1691
 7291TIP3   OH243287   4.259   4.303   2.381  0.0269  0.2250 -0.0541
 7291TIP3    H143288   4.306   4.334   2.458  0.3188  2.7879 -1.1684
 7291TIP3    H243289   4.327   4.282   2.317 -0.2461 -0.5689 -0.0979
 7292TIP3   OH243290   4.792   6.256   4.865  0.2854 -0.3582  0.3113
 7292TIP3    H143291   4.856   6.219   4.926  0.1914 -0.5489  0.2965
 7292TIP3    H243292   4.754   6.330   4.912 -0.3304 -0.9606  0.7839
 7293TIP3   OH243293   2.549   0.825   5.249  0.4231  0.2265 -0.4823
 7293TIP3    H143294   2.612   0.753   5.241  1.0630  0.6653  0.4440
 7293TIP3    H243295   2.492   0.799   5.321  2.2416  1.7405  1.6554
 7294TIP3   OH243296   0.296   1.947  12.214 -0.3025 -0.2032  0.3768
 7294TIP3    H143297   0.358   1.895  12.161  0.1077  1.4679 -0.8591
 7294TIP3    H243298   0.323   2.038  12.200 -0.2742  0.3518  3.3898
 7295TIP3   OH243299   0.779   4.912   1.321  0.1210 -0.3487  0.5040
 7295TIP3    H143300   0.843   4.982   1.335  0.4998 -0.9675  2.1488
 7295TIP3    H243301   0.708   4.932   1.381 -0.7091 -0.3062 -0.4756
 7296TIP3   OH243302   4.734   3.849   1.354 -0.0874 -0.0108 -0.2572
 7296TIP3    H143303   4.715   3.814   1.441  0.6782  0.8515  0.2720
 7296TIP3    H243304   4.652   3.890   1.327  0.4842  2.4879  1.4356
 7297TIP3   OH243305   6.652   4.133  13.668  0.4821 -0.1842  0.3440
 7297TIP3    H143306   6.728   4.077  13.678  1.6521  1.2274 -0.2013
 7297TIP3    H243307   6.592   4.106  13.737  1.6809 -1.0267  1.0739
 7298TIP3   OH243308   5.640   0.533   0.987  0.2624 -0.3966  0.5977
 7298TIP3    H143309   5.588   0.476   0.930  0.5437 -0.3860  0.3238
 7298TIP3    H243310   5.600   0.619   0.977  1.1014 -0.1262 -0.6047
 7299TIP3   OH243311   4.384   3.369  10.658  0.1739  0.0218  0.1296
 7299TIP3    H143312   4.417   3.301  10.717 -0.1925 -0.6510 -0.4176
 7299TIP3    H243313   4.463   3.416  10.630  0.5547 -0.7997 -0.2293
 7300TIP3   OH243314   0.904   3.957   2.494 -0.0370 -0.3368  0.1145
 7300TIP3    H143315   0.904   3.862   2.504  0.5716 -0.3241  0.2635
 7300TIP3    H243316   0.984   3.976   2.445 -0.2048  0.0903  0.0051
 7301TIP3   OH243317   4.946   4.300   1.747 -0.4204  0.4839  0.4559
 7301TIP3    H143318   4.946   4.395   1.758  1.5202  0.6929 -0.9912
 7301TIP3    H243319   4.979   4.285   1.659 -0.9643 -1.5457  0.5375
 7302TIP3   OH243320   0.902   4.183  10.804 -0.0254  0.0483  0.3703
 7302TIP3    H143321   0.835   4.142  10.859 -0.9464  0.7903 -0.1537
 7302TIP3    H243322   0.894   4.277  10.823  1.2449  0.1078  0.6915
 7303TIP3   OH243323   5.547   0.859  13.673 -0.3696  0.7970 -0.4512
 7303TIP3    H143324   5.614   0.834  13.737 -0.8081 -1.9043 -0.9235
 7303TIP3    H243325   5.464   0.842  13.717 -0.6986  0.7573 -1.0813
 7304TIP3   OH243326   3.026   1.514  14.926  0.5627  0.1100  0.4815
 7304TIP3    H143327   3.121   1.503  14.915  0.6127  1.1380 -0.3648
 7304TIP3    H243328   2.987   1.449  14.868  0.7521 -0.0226  0.5016
 7305TIP3   OH243329   5.070   1.882   4.087 -0.6106  0.4553 -0.4805
 7305TIP3    H143330   5.058   1.961   4.140  0.6725  0.0176  0.5105
 7305TIP3    H243331   5.138   1.904   4.024  0.9377 -0.3000  0.8446
 7306TIP3   OH243332   6.018   5.941  16.033  0.2289  0.4128  0.2468
 7306TIP3    H143333   6.053   5.866  15.985 -1.2679  0.1306 -0.4399
 7306TIP3    H243334   5.939   5.908  16.076 -1.1419  1.8562 -1.0253
 7307TIP3   OH243335   2.013   1.194   5.419  0.9670 -0.1295  0.0301
 7307TIP3    H143336   1.976   1.116   5.460  0.6856  0.5010  0.9984
 7307TIP3    H243337   2.091   1.162   5.373 -0.6501 -1.4648 -1.9684
 7308TIP3   OH243338   4.789   0.194  14.733 -0.2378 -0.1513 -0.0436
 7308TIP3    H143339   4.704   0.235  14.745  0.0275  1.0466 -1.9113
 7308TIP3    H243340   4.778   0.136  14.658  0.1646 -1.3202  0.7669
 7309TIP3   OH243341   4.862   4.283  11.857 -0.2140 -0.1011  1.0080
 7309TIP3    H143342   4.832   4.374  11.864 -1.0412 -0.2875  0.1561
 7309TIP3    H243343   4.891   4.274  11.766  0.7549 -0.4359  1.3435
 7310TIP3   OH243344   3.573   1.638   4.621  0.8521 -0.1128  0.1092
 7310TIP3    H143345   3.491   1.674   4.653  1.1287 -0.8960  1.8617
 7310TIP3    H243346   3.573   1.655   4.527  0.2500  2.9070  0.5740
 7311TIP3   OH243347   0.865   6.452   4.769  0.0383  0.0781 -0.0572
 7311TIP3    H143348   0.886   6.432   4.678  0.8552  1.4283 -0.1868
 7311TIP3    H243349   0.780   6.496   4.765  1.3557  2.7436 -0.5248
 7312TIP3   OH243350   2.182   3.113   0.801  0.4482  0.0962  0.0854
 7312TIP3    H143351   2.204   3.204   0.781 -1.6211  0.2638 -1.8438
 7312TIP3    H243352   2.243   3.062   0.747  0.7864  0.3574  0.2154
 7313TIP3   OH243353   2.615   0.634  10.962  0.3153 -0.7327  0.0854
 7313TIP3    H143354   2.566   0.704  10.919  1.4199  0.2057  0.2861
 7313TIP3    H243355   2.694   0.625  10.908  1.0414 -0.5361  1.0965
 7314TIP3   OH243356   3.994   4.786  14.264 -0.1923 -0.8279  0.3509
 7314TIP3    H143357   4.042   4.720  14.313  0.7508 -0.5450 -0.1627
 7314TIP3    H243358   3.933   4.736  14.209 -0.4159 -1.1955  0.9244
 7315TIP3   OH243359   5.433   6.094   5.682  0.4051 -0.1820  0.1578
 7315TIP3    H143360   5.391   6.090   5.596  0.7390  3.6957 -0.3432
 7315TIP3    H243361   5.371   6.142   5.737  1.2511 -0.4463  1.3762
 7316TIP3   OH243362   4.773   6.669  16.806 -0.0899  0.2872 -0.0417
 7316TIP3    H143363   4.729   6.630  16.882 -2.0678  0.7570 -0.8868
 7316TIP3    H243364   4.821   6.744  16.842  0.1903 -0.3565  0.9471
 7317TIP3   OH243365   5.400   5.476  12.524 -0.5568 -0.0139  0.5216
 7317TIP3    H143366   5.362   5.534  12.590 -0.7255 -1.4087  1.7124
 7317TIP3    H243367   5.349   5.492  12.445  1.2473  3.5451 -0.1073
 7318TIP3   OH243368   1.143   2.672   4.500  0.0153 -0.2072  0.0607
 7318TIP3    H143369   1.192   2.598   4.464 -0.4036 -0.7496  0.5670
 7318TIP3    H243370   1.164   2.671   4.594 -3.4414 -2.5480  1.0089
 7319TIP3   OH243371   6.213   1.035  16.240 -0.0065 -0.3592  0.1919
 7319TIP3    H143372   6.189   1.037  16.333 -1.0343 -0.2482 -0.0671
 7319TIP3    H243373   6.142   0.988  16.198 -0.6165  1.3919 -0.8444
 7320TIP3   OH243374   0.528   5.882   1.496 -0.5340  0.5256  0.3498
 7320TIP3    H143375   0.474   5.959   1.477  1.0262  1.6424  0.2176
 7320TIP3    H243376   0.467   5.809   1.494 -2.4416  1.9333  2.2949
 7321TIP3   OH243377   2.280   0.684  14.620  0.2177 -0.5455 -0.1690
 7321TIP3    H143378   2.334   0.606  14.609 -0.3922 -1.1739  1.1523
 7321TIP3    H243379   2.298   0.713  14.709  0.1528  0.6246 -0.5154
 7322TIP3   OH243380   1.786   4.814   0.159 -0.7911  0.6468  0.1830
 7322TIP3    H143381   1.849   4.815   0.087 -1.1567 -0.5779 -0.1666
 7322TIP3    H243382   1.701   4.800   0.118 -0.8546 -1.3664  0.9251
 7323TIP3   OH243383   2.332   1.084  13.412 -0.1639  0.6032  0.0166
 7323TIP3    H143384   2.338   1.004  13.361  0.1626  0.0269  0.9455
 7323TIP3    H243385   2.251   1.126  13.381  0.4229  0.6837 -1.5311
 7324TIP3   OH243386   3.142   6.199   0.421  0.2850  0.4022 -0.2184
 7324TIP3    H143387   3.136   6.258   0.345 -1.2027 -0.6830 -0.9990
 7324TIP3    H243388   3.186   6.251   0.488  1.0251  1.6295 -1.5976
 7325TIP3   OH243389   5.442   2.680   4.734 -0.0914  0.2809 -0.5985
 7325TIP3    H143390   5.484   2.683   4.648  0.9989  3.0383 -0.0714
 7325TIP3    H243391   5.501   2.729   4.791 -2.5426  1.7012  0.8788
 7326TIP3   OH243392   5.525   3.734   5.334 -0.2945 -0.6482  0.0544
 7326TIP3    H143393   5.598   3.789   5.307 -0.7166  0.4478  1.0744
 7326TIP3    H243394   5.453   3.758   5.275  0.3392 -2.3223 -1.5081
 7327TIP3   OH243395   6.351   2.309  13.512  0.0394  0.0306 -0.1491
 7327TIP3    H143396   6.421   2.320  13.577 -0.4495  0.2664  0.3476
 7327TIP3    H243397   6.293   2.384  13.527 -0.7378 -0.5824 -0.0261
 7328TIP3   OH243398   1.544   3.322   3.503  0.9300 -0.6766  0.2325
 7328TIP3    H143399   1.597   3.298   3.579  0.2240  0.8806  1.2830
 7328TIP3    H243400   1.455   3.296   3.527  0.5140  0.8673  0.4802
 7329TIP3   OH243401   3.739   3.932  13.163  0.2090 -0.2699 -0.1087
 7329TIP3    H143402   3.706   3.973  13.083 -1.7670  0.6573  1.1057
 7329TIP3    H243403   3.829   3.963  13.170 -0.1445  1.0656 -1.0828
 7330TIP3   OH243404   5.965   4.552  15.391  0.1731 -0.1687 -0.3696
 7330TIP3    H143405   5.915   4.614  15.337  0.0864  0.1482  0.0672
 7330TIP3    H243406   6.054   4.556  15.356  0.0004 -0.3812 -0.8450
 7331TIP3   OH243407   1.517   3.686  14.879  0.1512  0.0884 -0.8242
 7331TIP3    H143408   1.548   3.777  14.887 -0.4655  0.1498  1.7619
 7331TIP3    H243409   1.594   3.633  14.898 -0.4136  0.2063  2.3076
 7332TIP3   OH243410   5.155   3.536   1.171  0.3146 -0.4005 -0.0709
 7332TIP3    H143411   5.241   3.562   1.202  0.2106  0.0202 -0.1303
 7332TIP3    H243412   5.169   3.450   1.130  0.5306 -0.7509  0.7148
 7333TIP3   OH243413   0.162   3.722   1.234 -0.8912  0.8819 -0.5884
 7333TIP3    H143414   0.122   3.676   1.161  1.1018  0.1699 -1.2888
 7333TIP3    H243415   0.232   3.665   1.264  2.1898  3.6051 -1.9427
 7334TIP3   OH243416   4.489   1.663  15.292 -0.1602 -0.4102  0.0491
 7334TIP3    H143417   4.486   1.682  15.199 -2.6297 -0.8863 -0.0503
 7334TIP3    H243418   4.480   1.748  15.335 -1.2374 -0.3857 -0.2092
 7335TIP3   OH243419   4.118   0.562  14.390  0.1783  0.6378  0.4109
 7335TIP3    H143420   4.093   0.546  14.299 -0.0290  0.2211  0.5347
 7335TIP3    H243421   4.156   0.649  14.390  2.1783 -0.1756 -0.4715
 7336TIP3   OH243422   6.412   5.435  15.197 -0.7309 -0.1803 -0.4351
 7336TIP3    H143423   6.373   5.413  15.112 -1.3493  0.3269 -0.2873
 7336TIP3    H243424   6.343   5.417  15.261 -0.2549 -0.5900 -0.0354
 7337TIP3   OH243425   0.426   2.912   2.219 -0.0058 -0.0920 -0.0881
 7337TIP3    H143426   0.449   2.902   2.312  1.6803  0.6463 -0.3852
 7337TIP3    H243427   0.505   2.887   2.172 -0.4465  0.6828 -1.2834
 7338TIP3   OH243428   5.640   0.961   1.261 -0.3381 -0.3694 -0.4034
 7338TIP3    H143429   5.666   0.870   1.278 -1.9081 -0.8501 -0.4265
 7338TIP3    H243430   5.573   0.980   1.326 -0.6964  0.4614 -0.9904
 7339TIP3   OH243431   1.428   3.215   2.905  0.6146  0.0108  0.0752
 7339TIP3    H143432   1.334   3.218   2.887  0.4590  0.6115  0.9513
 7339TIP3    H243433   1.435   3.228   2.999  1.6073  0.4738 -0.0501
 7340TIP3   OH243434   5.418   3.422  14.984 -0.4501  0.2900  0.0239
 7340TIP3    H143435   5.374   3.429  15.068  0.9905 -1.4558  0.9799
 7340TIP3    H243436   5.504   3.461  14.998  0.0315 -0.5819 -0.4453
 7341TIP3   OH243437   2.206   3.171  11.184  0.1522 -0.1968 -0.2966
 7341TIP3    H143438   2.250   3.249  11.217  0.7836 -1.2029  1.3627
 7341TIP3    H243439   2.175   3.196  11.097  2.9713  0.9743 -1.0873
 7342TIP3   OH243440   1.181   2.929  12.640 -0.3530 -0.1959  0.6934
 7342TIP3    H143441   1.213   2.840  12.629 -0.1096  0.0001 -0.2436
 7342TIP3    H243442   1.167   2.962  12.551 -0.4353  0.7070  1.0211
 7343TIP3   OH243443   6.372   2.936   1.025  0.2484  0.9988 -0.5264
 7343TIP3    H143444   6.301   2.880   0.995 -0.1687  1.9117 -1.2531
 7343TIP3    H243445   6.329   3.008   1.070  0.7667  1.0328 -0.0708
 7344TIP3   OH243446   3.932   3.358  12.921 -0.0189 -0.2722  0.6502
 7344TIP3    H143447   3.942   3.350  12.826 -2.6345  0.2729  0.2454
 7344TIP3    H243448   3.946   3.451  12.939 -0.0454 -0.2791  0.7072
 7345TIP3   OH243449   5.602   1.357   5.431 -0.0520  0.0647  0.4783
 7345TIP3    H143450   5.537   1.423   5.454  0.8264  1.1770 -0.0879
 7345TIP3    H243451   5.552   1.284   5.396 -0.9694  1.0677 -0.3490
 7346TIP3   OH243452   1.264   3.385  16.864  0.0898 -0.2018 -0.3794
 7346TIP3    H143453   1.291   3.473  16.836 -1.8678  0.4674 -0.3377
 7346TIP3    H243454   1.199   3.359  16.799 -1.2281 -0.5193  1.0310
 7347TIP3   OH243455   2.642   0.455  15.996  0.3640  0.1738  0.2078
 7347TIP3    H143456   2.610   0.544  16.012 -0.3066 -0.0727  0.2945
 7347TIP3    H243457   2.669   0.424  16.083  2.2291  0.8894 -0.0843
 7348TIP3   OH243458   4.552   1.817  15.645  0.4086 -0.3499 -0.1596
 7348TIP3    H143459   4.481   1.838  15.585 -1.4469 -0.1524  1.9789
 7348TIP3    H243460   4.614   1.889  15.634  0.2411 -0.4243 -1.9354
 7349TIP3   OH243461   4.498   0.142  14.930 -0.2996  0.3123  0.3960
 7349TIP3    H143462   4.456   0.218  14.889  0.0362  1.1722  1.5798
 7349TIP3    H243463   4.456   0.135  15.016  0.3205 -0.2721  0.6575
 7350TIP3   OH243464   3.365   3.519  11.306 -0.1361 -0.2746  0.1234
 7350TIP3    H143465   3.353   3.567  11.224 -2.0962  0.7577  0.9462
 7350TIP3    H243466   3.329   3.432  11.289 -1.1984  0.1611  0.0707
 7351TIP3   OH243467   5.302   3.471  15.857 -0.0950 -0.4533 -0.0396
 7351TIP3    H143468   5.241   3.542  15.871  0.0567  0.0393 -1.7280
 7351TIP3    H243469   5.387   3.507  15.883  0.1875  0.4641 -2.0166
 7352TIP3   OH243470   2.127   3.953   4.831  0.0908  0.4951 -0.1008
 7352TIP3    H143471   2.134   3.866   4.791  0.1455  1.6001 -2.7216
 7352TIP3    H243472   2.050   3.947   4.887 -0.5322 -0.9615 -1.0409
 7353TIP3   OH243473   2.020   6.650  16.097  0.0651  0.3996  0.2798
 7353TIP3    H143474   1.981   6.736  16.114 -0.5272  0.0213  0.8234
 7353TIP3    H243475   2.114   6.663  16.115 -0.1020  0.7902  0.8849
 7354TIP3   OH243476   4.110   6.311   3.797 -0.4656  0.2025 -0.0596
 7354TIP3    H143477   4.191   6.282   3.839 -1.4601 -3.0763 -0.0995
 7354TIP3    H243478   4.043   6.299   3.865 -1.1324  1.5895 -0.4443
 7355TIP3   OH243479   0.143   4.159  14.081  0.2721 -0.1276  0.2743
 7355TIP3    H143480   0.098   4.096  14.138  1.9262 -0.0131  1.7755
 7355TIP3    H243481   0.073   4.194  14.025 -0.9999 -1.9679  0.6017
 7356TIP3   OH243482   4.264   6.234   4.714 -0.2609 -0.3126  0.0334
 7356TIP3    H143483   4.182   6.238   4.664 -0.2196 -0.4890 -0.0490
 7356TIP3    H243484   4.272   6.142   4.740  1.0090 -0.7570 -1.7795
 7357TIP3   OH243485   3.598   2.901  15.996  0.1120 -0.1521  0.3991
 7357TIP3    H143486   3.505   2.918  16.013  0.1120  1.4664 -0.9614
 7357TIP3    H243487   3.612   2.812  16.029 -2.3891 -1.2018 -1.0262
 7358TIP3   OH243488   5.616   4.601  11.148 -0.3069  0.3303 -0.2444
 7358TIP3    H143489   5.543   4.540  11.140  0.9306 -1.2652  0.1393
 7358TIP3    H243490   5.583   4.683  11.110 -2.1979 -0.3887 -0.2744
 7359TIP3   OH243491   1.412   0.153   2.251 -0.3690  0.0947  0.3639
 7359TIP3    H143492   1.378   0.242   2.239 -0.0020  0.0604 -1.0011
 7359TIP3    H243493   1.369   0.101   2.183  1.9249 -0.0734 -1.0736
 7360TIP3   OH243494   2.999   3.849   6.518 -0.7554 -0.7329  0.0206
 7360TIP3    H143495   3.007   3.903   6.597 -1.8020  1.7880 -1.5035
 7360TIP3    H243496   3.059   3.776   6.534  1.5186  1.3452  1.7988
 7361TIP3   OH243497   0.915   2.682  15.509  0.3747  0.1705  0.1893
 7361TIP3    H143498   0.994   2.649  15.552 -0.0015  0.7153  1.3162
 7361TIP3    H243499   0.849   2.616  15.526 -0.1846  1.0926  1.8217
 7362TIP3   OH243500   4.300   6.087   1.266 -0.4862  0.1880 -0.2781
 7362TIP3    H143501   4.335   6.017   1.211 -0.1222  0.9441 -1.0406
 7362TIP3    H243502   4.205   6.077   1.259 -0.4361 -0.1896 -0.4386
 7363TIP3   OH243503   2.655   6.217  17.366  0.1536  0.3147  0.5921
 7363TIP3    H143504   2.717   6.250  17.301  2.1985  0.7691  2.6312
 7363TIP3    H243505   2.571   6.253  17.340  1.0667  1.2901 -1.2189
 7364TIP3   OH243506   0.845   2.744  13.122 -0.6614  0.2524  0.2917
 7364TIP3    H143507   0.833   2.736  13.028 -0.4211 -1.3592  0.3709
 7364TIP3    H243508   0.764   2.709  13.160 -0.1741 -0.4744  0.6898
 7365TIP3   OH243509   3.868   2.486  15.053 -0.4556  0.4113 -0.2541
 7365TIP3    H143510   3.894   2.534  14.974  0.2854  0.7338  0.1770
 7365TIP3    H243511   3.785   2.526  15.078 -0.2563  0.9132 -0.3725
 7366TIP3   OH243512   1.479   6.495   4.976  0.5618 -0.1008  0.1310
 7366TIP3    H143513   1.385   6.484   4.964  0.2892  0.1350  1.8574
 7366TIP3    H243514   1.488   6.542   5.058  2.2201 -0.7112  0.3493
 7367TIP3   OH243515   2.802   1.011  14.998 -0.1603  0.0272  0.1381
 7367TIP3    H143516   2.897   1.012  14.981  0.2148 -0.4362  1.9998
 7367TIP3    H243517   2.767   1.077  14.939  1.6223  1.7480  0.8771
 7368TIP3   OH243518   4.309   1.743   3.636 -0.8732  0.4729  0.1960
 7368TIP3    H143519   4.335   1.731   3.544 -4.2415 -1.6978 -0.6653
 7368TIP3    H243520   4.380   1.705   3.687 -0.1530 -0.8300 -1.6746
 7369TIP3   OH243521   4.359   1.216  12.257 -0.2849  0.3922  0.7856
 7369TIP3    H143522   4.374   1.266  12.177  0.2094  1.7262  1.6701
 7369TIP3    H243523   4.316   1.278  12.316 -0.6582 -0.5693  1.5601
 7370TIP3   OH243524   5.389   3.796  16.410  0.2933  0.6554 -0.2771
 7370TIP3    H143525   5.304   3.821  16.374 -0.2186  0.0246  0.4590
 7370TIP3    H243526   5.451   3.811  16.338 -0.6538 -0.2604 -1.3258
 7371TIP3   OH243527   5.765   2.746  14.497 -0.6732 -0.1487 -0.0137
 7371TIP3    H143528   5.737   2.778  14.583  0.8813  0.7195  0.2088
 7371TIP3    H243529   5.766   2.651  14.505 -1.7227 -0.1303  0.5224
 7372TIP3   OH243530   3.521   5.184  15.418 -0.5049 -0.3732 -0.1481
 7372TIP3    H143531   3.567   5.172  15.335 -0.2215  0.6415 -0.1458
 7372TIP3    H243532   3.574   5.135  15.482 -0.4748 -0.7771 -0.4739
 7373TIP3   OH243533   0.942   6.367  12.012 -0.0327  0.5078  0.1739
 7373TIP3    H143534   0.916   6.418  11.935  1.8092 -0.9349 -1.4930
 7373TIP3    H243535   0.966   6.281  11.977  3.2385  0.5472  1.9845
 7374TIP3   OH243536   0.297   3.659   0.970  0.3219 -0.0042  0.0373
 7374TIP3    H143537   0.373   3.693   0.922  0.8511  0.2356  1.0166
 7374TIP3    H243538   0.232   3.729   0.963  0.0651 -0.3282 -1.0528
 7375TIP3   OH243539   5.294   5.659  17.324  0.4979  0.3632 -0.3983
 7375TIP3    H143540   5.330   5.572  17.341  1.1551  0.4277 -1.3564
 7375TIP3    H243541   5.264   5.690  17.409 -1.3795 -1.5003 -0.2998
 7376TIP3   OH243542   2.874   6.364   5.423  0.0430  0.1536  0.2765
 7376TIP3    H143543   2.902   6.331   5.509  0.8516 -2.0358 -0.7456
 7376TIP3    H243544   2.780   6.379   5.433  0.5587  2.6831  2.2977
 7377TIP3   OH243545   0.352   5.474   0.030  0.0929  0.3858  0.1022
 7377TIP3    H143546   0.263   5.441   0.019 -1.0444  2.6536  1.7000
 7377TIP3    H243547   0.398   5.403   0.074 -0.9765 -0.7419 -0.5345
 7378TIP3   OH243548   6.538   1.050   6.195 -0.4644  0.0869  0.0151
 7378TIP3    H143549   6.500   1.025   6.110  0.2435  1.7276 -0.8077
 7378TIP3    H243550   6.592   0.975   6.219 -0.1311 -0.1364 -1.3217
 7379TIP3   OH243551   1.505   6.164  11.183 -0.2953  0.2370  0.1990
 7379TIP3    H143552   1.521   6.091  11.123  0.5301  0.5061  0.0809
 7379TIP3    H243553   1.542   6.240  11.139  0.2954  0.4452  1.0283
 7380TIP3   OH243554   4.019   0.038  13.855 -0.0258  0.1439  0.1530
 7380TIP3    H143555   3.987   0.086  13.932  0.1032  0.5811 -0.0634
 7380TIP3    H243556   4.107   0.009  13.879  0.0146  0.2813  0.1698
 7381TIP3   OH243557   3.693   4.112  14.130  0.8264  0.4390  0.1996
 7381TIP3    H143558   3.740   4.162  14.063  1.4958 -0.9680 -0.4269
 7381TIP3    H243559   3.762   4.067  14.180  0.2208 -1.3902 -0.5155
 7382TIP3   OH243560   4.066   0.342  15.533  0.0474  0.0343  0.4518
 7382TIP3    H143561   4.033   0.383  15.453 -1.7181 -0.8876  0.6520
 7382TIP3    H243562   4.161   0.336  15.520  0.1897  2.6127 -0.2511
 7383TIP3   OH243563   2.270   4.230   1.193 -0.0914  0.7100 -0.4056
 7383TIP3    H143564   2.359   4.201   1.174 -0.7608 -2.4024  0.6707
 7383TIP3    H243565   2.278   4.283   1.272  0.7290 -0.5127  0.3583
 7384TIP3   OH243566   0.866   6.419   4.480 -0.4104  0.4749  0.1069
 7384TIP3    H143567   0.818   6.376   4.409  0.0759  0.3422 -0.1453
 7384TIP3    H243568   0.957   6.420   4.450 -0.3642  1.4073  0.2443
 7385TIP3   OH243569   2.287   1.670  10.890 -0.3158  0.5046  0.4627
 7385TIP3    H143570   2.337   1.625  10.822  0.4003  1.1089  0.5815
 7385TIP3    H243571   2.305   1.763  10.876 -1.2197  0.7205  0.6590
 7386TIP3   OH243572   5.906   3.597  14.779 -0.2989 -0.1140 -0.3622
 7386TIP3    H143573   5.907   3.552  14.695  1.5559 -0.3787 -0.2541
 7386TIP3    H243574   5.915   3.690  14.757  1.1737 -0.2545 -0.4745
 7387TIP3   OH243575   2.016   4.251   5.514 -0.2141 -0.2014  0.1865
 7387TIP3    H143576   1.981   4.249   5.603 -0.8406 -0.7649 -0.0542
 7387TIP3    H243577   2.047   4.340   5.502  0.7834 -0.3726  1.3047
 7388TIP3   OH243578   5.899   2.952   4.782  0.1896  0.5941  0.7034
 7388TIP3    H143579   5.876   2.912   4.698 -0.3012  1.9310  0.1858
 7388TIP3    H243580   5.964   2.891   4.819  1.2726  0.5218 -1.1396
 7389TIP3   OH243581   4.548   0.515   5.265 -0.4745 -0.0237  0.0153
 7389TIP3    H143582   4.535   0.447   5.331 -1.1786  1.3457  1.3735
 7389TIP3    H243583   4.592   0.586   5.313  0.1457  0.5229 -1.3208
 7390TIP3   OH243584   0.770   0.860  16.664  0.5048 -0.2098 -0.1342
 7390TIP3    H143585   0.683   0.898  16.648 -0.7269 -1.6690  2.4917
 7390TIP3    H243586   0.817   0.927  16.713  0.7347  0.3782 -1.1161
 7391TIP3   OH243587   1.111   0.112   0.552  0.3285 -0.0168  0.4715
 7391TIP3    H143588   1.111   0.205   0.529 -0.1663 -0.2961 -0.7807
 7391TIP3    H243589   1.166   0.071   0.484 -0.5048 -0.7920  0.2487
 7392TIP3   OH243590   0.829   0.197  16.568  0.1017  0.1016  0.0717
 7392TIP3    H143591   0.879   0.265  16.613 -2.2765  1.6797  0.4969
 7392TIP3    H243592   0.811   0.132  16.636  0.0087  0.4413  0.3740
 7393TIP3   OH243593   5.168   5.587  14.724 -0.0870 -0.4730 -0.2404
 7393TIP3    H143594   5.162   5.548  14.811  1.4899  0.1528  0.1789
 7393TIP3    H243595   5.130   5.521  14.665 -0.1405 -1.3851  0.7898
 7394TIP3   OH243596   3.381   6.303  12.096 -0.2209 -0.1898  0.1294
 7394TIP3    H143597   3.355   6.351  12.018  0.8424  0.9429  0.4468
 7394TIP3    H243598   3.441   6.235  12.065  0.2755  0.3192 -0.0354
 7395TIP3   OH243599   4.232   2.696  12.659  0.5263 -0.4400  0.5203
 7395TIP3    H143600   4.254   2.780  12.700 -1.9033  0.3547  0.3216
 7395TIP3    H243601   4.290   2.691  12.583  2.0961  0.0761  1.6217
 7396TIP3   OH243602   2.524   5.347  16.396 -0.2345 -0.2224  0.3524
 7396TIP3    H143603   2.566   5.283  16.339 -0.4115  0.2880 -0.3587
 7396TIP3    H243604   2.490   5.415  16.337 -1.3630 -0.2195  0.9636
 7397TIP3   OH243605   0.100   3.808   5.943 -0.5923  0.1687 -0.2781
 7397TIP3    H143606   0.099   3.876   6.011 -0.6770 -1.2885  1.2442
 7397TIP3    H243607   0.193   3.786   5.933 -0.4372  1.3421 -1.6836
 7398TIP3   OH243608   0.056   1.535   1.724  0.1446  0.3615  0.4422
 7398TIP3    H143609  -0.006   1.573   1.787  0.2172  1.3925 -0.0897
 7398TIP3    H243610   0.075   1.448   1.759  0.5029  1.0575  2.0710
 7399TIP3   OH243611   1.724   4.810  16.551 -0.0285 -0.4210  0.2949
 7399TIP3    H143612   1.667   4.887  16.554 -0.6955 -0.9424  1.9254
 7399TIP3    H243613   1.792   4.828  16.616  0.2618 -0.8693  0.1226
 7400TIP3   OH243614   2.693   2.503   4.411 -0.8580  0.3897  0.2232
 7400TIP3    H143615   2.690   2.598   4.399  1.6216  0.3598 -1.2794
 7400TIP3    H243616   2.773   2.487   4.461 -0.9108 -0.9217 -0.0743
 7401TIP3   OH243617   5.222   5.219   2.648  0.0549  0.2740 -0.2977
 7401TIP3    H143618   5.131   5.193   2.634  0.5173 -1.3026 -0.6340
 7401TIP3    H243619   5.266   5.197   2.565  0.8076  0.6794 -0.0176
 7402TIP3   OH243620   0.556   3.704  14.798  0.5913 -0.2488 -0.4075
 7402TIP3    H143621   0.640   3.749  14.784  0.0558  0.3572 -1.8422
 7402TIP3    H243622   0.492   3.758  14.751 -1.1223  0.8412  2.8745
 7403TIP3   OH243623   3.814   1.389   5.807 -0.3533 -0.4559  0.0247
 7403TIP3    H143624   3.824   1.479   5.776  1.2394 -0.5855  0.0430
 7403TIP3    H243625   3.736   1.356   5.762 -1.3982  1.1376  0.5728
 7404TIP3   OH243626   2.858   0.330   3.824  0.0196  0.3961 -0.2425
 7404TIP3    H143627   2.813   0.344   3.741 -1.4240  2.6292  0.8217
 7404TIP3    H243628   2.930   0.394   3.823  0.9460 -0.6289 -0.3984
 7405TIP3   OH243629   2.515   6.401  16.856 -0.5199  0.3164  0.0901
 7405TIP3    H143630   2.467   6.332  16.810 -0.1115  0.0457  0.0704
 7405TIP3    H243631   2.457   6.477  16.850 -1.1352 -0.1103  0.4127
 7406TIP3   OH243632   5.643   2.671   0.376  0.0395  0.3176 -0.1790
 7406TIP3    H143633   5.551   2.648   0.364  0.3597 -0.6341 -0.9035
 7406TIP3    H243634   5.688   2.628   0.304  1.1216  0.3313  0.4666
 7407TIP3   OH243635   2.785   0.816  16.139 -0.5555  0.3261  0.0284
 7407TIP3    H143636   2.707   0.845  16.186 -1.6334  0.2376 -1.6286
 7407TIP3    H243637   2.799   0.882  16.071  0.5294  0.0760 -0.0130
 7408TIP3   OH243638   2.687   2.595   2.441 -0.0132 -0.0658  0.7603
 7408TIP3    H143639   2.726   2.615   2.356 -0.8678 -1.3675  0.0264
 7408TIP3    H243640   2.656   2.679   2.474  0.5834  0.4964 -0.0836
 7409TIP3   OH243641   5.409   2.008   4.054 -0.7769 -0.4929 -0.1645
 7409TIP3    H143642   5.409   1.913   4.052 -0.8576 -0.5146  0.5607
 7409TIP3    H243643   5.377   2.034   3.968 -1.0783 -1.1212 -0.2441
 7410TIP3   OH243644   3.351   2.090   1.191  0.2102  0.2602 -0.1015
 7410TIP3    H143645   3.350   2.038   1.111  2.4493  0.7373 -0.5288
 7410TIP3    H243646   3.264   2.130   1.195  0.1867  0.6726 -2.6414
 7411TIP3   OH243647   2.333   0.049   2.984 -0.5879 -0.3372  0.2904
 7411TIP3    H143648   2.318  -0.023   3.045 -0.3301  0.5347  1.4274
 7411TIP3    H243649   2.264   0.112   3.004 -0.5841 -0.0873 -0.4284
 7412TIP3   OH243650   5.795   5.829  16.860 -0.0960 -0.0297  0.1683
 7412TIP3    H143651   5.754   5.852  16.776 -1.6716 -0.4523  0.7923
 7412TIP3    H243652   5.797   5.911  16.909 -0.6973 -0.1102  0.3340
 7413TIP3   OH243653   2.090   6.527   5.814 -0.0031  0.5505 -0.1220
 7413TIP3    H143654   2.173   6.575   5.810 -0.2161  0.8762 -0.6904
 7413TIP3    H243655   2.034   6.581   5.870  0.1432  0.3652  0.2057
 7414TIP3   OH243656   1.861   0.330   5.201 -0.2985 -0.3731 -0.1556
 7414TIP3    H143657   1.798   0.308   5.270 -0.3257 -1.5226 -0.5241
 7414TIP3    H243658   1.900   0.246   5.176  1.8835  0.3702  0.5032
 7415TIP3   OH243659   4.659   6.703   0.613  0.6292 -0.0496 -0.1794
 7415TIP3    H143660   4.754   6.716   0.617  0.7646 -0.2983 -1.7912
 7415TIP3    H243661   4.630   6.768   0.548 -0.2027 -0.4666 -0.2262
 7416TIP3   OH243662   3.528   2.070   4.407  0.4163  0.2912  0.0699
 7416TIP3    H143663   3.514   2.045   4.316  2.0734 -1.2491  0.1761
 7416TIP3    H243664   3.440   2.075   4.445 -0.2116 -1.2799 -1.0659
 7417TIP3   OH243665   3.763   2.160   0.593 -0.2863 -0.3622 -0.2643
 7417TIP3    H143666   3.835   2.211   0.632  0.8326 -1.4059 -0.8879
 7417TIP3    H243667   3.706   2.138   0.667 -0.7076  1.6045  0.0490
 7418TIP3   OH243668   4.358   3.209   6.554  0.9351 -0.2576 -0.9284
 7418TIP3    H143669   4.267   3.237   6.543  0.8888 -0.4836 -1.1381
 7418TIP3    H243670   4.352   3.118   6.584  1.0844 -0.0637 -0.3069
 7419TIP3   OH243671   0.447   6.585  14.444  0.1849 -0.5011 -0.6059
 7419TIP3    H143672   0.429   6.642  14.369 -1.9327 -2.4155 -1.6791
 7419TIP3    H243673   0.372   6.600  14.503  1.7080  0.8170  1.1170
 7420TIP3   OH243674   1.577   2.597   2.432  0.4790 -0.0432 -0.0063
 7420TIP3    H143675   1.519   2.670   2.411  0.8380  0.1148 -0.4669
 7420TIP3    H243676   1.519   2.528   2.465  0.2009  0.7040  1.1264
 7421TIP3   OH243677   5.111   4.628  11.972 -0.3416 -0.4059  0.4360
 7421TIP3    H143678   5.171   4.574  11.921 -0.9820 -1.4712  0.7769
 7421TIP3    H243679   5.092   4.703  11.915  3.0003  1.1695  1.1470
 7422TIP3   OH243680   2.081   2.950  11.249 -0.0175  0.2570  0.3201
 7422TIP3    H143681   2.135   3.013  11.202  1.3966 -1.9484 -1.1995
 7422TIP3    H243682   2.141   2.904  11.308 -0.6030 -0.9036  0.0563
 7423TIP3   OH243683   4.544   2.641   4.471  0.2883 -0.4171 -0.2882
 7423TIP3    H143684   4.628   2.606   4.503  1.0502  0.3128 -1.4297
 7423TIP3    H243685   4.487   2.637   4.548  2.0651  1.3473  1.2518
 7424TIP3   OH243686   1.998   4.768  13.780 -0.0581  0.2471  0.1405
 7424TIP3    H143687   1.925   4.765  13.841  0.9393  2.2683  1.5435
 7424TIP3    H243688   1.957   4.763  13.693 -1.8196  0.9417  0.8945
 7425TIP3   OH243689   2.543   6.000   5.087  0.0853  0.2682 -0.4920
 7425TIP3    H143690   2.549   5.954   5.003 -1.5721  0.1053 -0.5579
 7425TIP3    H243691   2.458   5.974   5.122  0.6637  0.5008  1.1541
 7426TIP3   OH243692   5.356   1.879   2.498 -0.3726  0.6507  0.3857
 7426TIP3    H143693   5.381   1.797   2.454  1.0179  1.4395 -0.3790
 7426TIP3    H243694   5.300   1.923   2.435 -0.2158  0.7783  0.3353
 7427TIP3   OH243695   0.900   1.016  17.299  0.1549 -0.3687  0.3815
 7427TIP3    H143696   0.917   1.096  17.249 -1.7303  0.4432  0.9416
 7427TIP3    H243697   0.888   0.948  17.232 -1.9460  0.6234 -0.3526
 7428TIP3   OH243698   5.523   2.830   0.916 -0.0405 -0.1308 -0.0781
 7428TIP3    H143699   5.483   2.800   0.835  0.6037 -1.0625 -0.0764
 7428TIP3    H243700   5.506   2.759   0.978  1.1152 -0.3086  0.0668
 7429TIP3   OH243701   2.896   4.079  14.415  0.1765  0.3675  0.4410
 7429TIP3    H143702   2.984   4.076  14.377 -0.1242  0.2469 -0.2618
 7429TIP3    H243703   2.891   4.000  14.469 -0.8699 -1.9286 -2.6764
 7430TIP3   OH243704   1.141   1.176   0.884 -0.2282 -0.0867  0.6145
 7430TIP3    H143705   1.153   1.081   0.877  0.6795  0.1472 -2.8145
 7430TIP3    H243706   1.228   1.210   0.907  0.9579  0.1249 -3.3985
 7431TIP3   OH243707   1.208   0.849  13.222 -0.6171  0.2812 -0.1753
 7431TIP3    H143708   1.156   0.769  13.231 -1.9986  1.3539  2.5933
 7431TIP3    H243709   1.291   0.819  13.183 -0.8559 -2.5782  1.2204
 7432TIP3   OH243710   5.293   4.157  14.937 -0.0213 -1.0186  0.0457
 7432TIP3    H143711   5.361   4.181  15.000 -0.3779 -2.7243  1.1145
 7432TIP3    H243712   5.269   4.240  14.896  0.9333 -0.0149  1.4277
 7433TIP3   OH243713   0.395   4.330  14.466 -0.2088 -0.6757 -0.5997
 7433TIP3    H143714   0.371   4.309  14.375  0.2416 -0.8291 -0.6835
 7433TIP3    H243715   0.447   4.255  14.495 -0.2163 -0.5530 -0.2637
 7434TIP3   OH243716   5.090   2.854   3.095  0.0049 -0.5036  0.2102
 7434TIP3    H143717   5.008   2.897   3.070  0.8432 -0.2191 -2.3039
 7434TIP3    H243718   5.144   2.926   3.129  0.4595  0.0311 -1.5325
 7435TIP3   OH243719   2.577   6.047   0.779 -0.1334  0.2390  0.2817
 7435TIP3    H143720   2.484   6.041   0.798  0.0101  0.3993  1.0666
 7435TIP3    H243721   2.599   6.139   0.791  0.7490 -0.2519  3.2427
 7436TIP3   OH243722   4.355   5.464  12.689 -0.0571  0.1850 -0.2617
 7436TIP3    H143723   4.274   5.413  12.689  2.3463 -4.0857  1.1573
 7436TIP3    H243724   4.344   5.528  12.760 -1.8386 -0.8826  0.4664
 7437TIP3   OH243725   1.995   0.985   0.735 -0.3417 -0.3543 -0.0620
 7437TIP3    H143726   1.968   0.926   0.805  0.4621 -0.3830  0.2325
 7437TIP3    H243727   1.937   1.060   0.743 -0.6061 -0.5923  0.2942
 7438TIP3   OH243728   2.159   5.510  13.535 -0.3738  0.5333 -0.1450
 7438TIP3    H143729   2.234   5.489  13.481 -0.7355 -0.5941 -0.2366
 7438TIP3    H243730   2.084   5.475  13.487 -0.9913  1.8417 -0.1663
 7439TIP3   OH243731   1.229   2.195  16.463 -0.1328 -0.0389  0.1120
 7439TIP3    H143732   1.285   2.171  16.536 -0.4379  1.0432  0.7285
 7439TIP3    H243733   1.147   2.149  16.480 -0.2753  0.3724  0.5849
 7440TIP3   OH243734   5.033   3.800  15.000 -0.5623  0.0437 -0.2468
 7440TIP3    H143735   5.023   3.706  14.987  0.5357  0.0393 -1.2666
 7440TIP3    H243736   5.090   3.828  14.928 -1.6501  1.6575 -0.5184
 7441TIP3   OH243737   5.757   5.352   1.150 -0.1941  0.4965 -1.0605
 7441TIP3    H143738   5.689   5.288   1.167  1.2527 -0.8761 -0.1817
 7441TIP3    H243739   5.829   5.302   1.111  0.3467  1.8885 -1.9513
 7442TIP3   OH243740   6.170   0.624  17.069 -0.1191  0.5892 -0.5068
 7442TIP3    H143741   6.239   0.557  17.068 -0.1670  0.5369 -0.1381
 7442TIP3    H243742   6.127   0.615  16.983 -0.2275  0.0432 -0.3979
 7443TIP3   OH243743   3.611   3.094  16.866 -0.5294 -0.4385 -0.4473
 7443TIP3    H143744   3.682   3.084  16.803  1.0053  2.5471  0.6207
 7443TIP3    H243745   3.655   3.119  16.948 -2.7324  0.6093  0.5035
 7444TIP3   OH243746   0.886   2.447   4.050 -0.1821 -0.3147 -0.3902
 7444TIP3    H143747   0.965   2.410   4.090  0.7552  1.3356 -0.6255
 7444TIP3    H243748   0.821   2.444   4.120  1.1093  1.4887  0.9879
 7445TIP3   OH243749   2.253   1.540  13.306 -0.0716 -0.2224 -0.1981
 7445TIP3    H143750   2.342   1.527  13.274 -0.4206 -0.9127 -0.9045
 7445TIP3    H243751   2.242   1.472  13.373  0.0465  0.0929  0.1480
 7446TIP3   OH243752   2.341   1.514  16.819 -0.6593 -0.2658 -0.2336
 7446TIP3    H143753   2.404   1.484  16.884 -0.1767 -2.3076 -1.5481
 7446TIP3    H243754   2.302   1.593  16.857  2.8472  1.2916  0.5241
 7447TIP3   OH243755   0.603   3.879   5.407 -0.0320 -0.0652  1.0268
 7447TIP3    H143756   0.638   3.968   5.401  0.2727 -0.3036 -1.5831
 7447TIP3    H243757   0.653   3.829   5.343 -0.6971 -1.9682  1.9406
 7448TIP3   OH243758   5.729   4.322   1.853 -0.4897  0.3828  0.3169
 7448TIP3    H143759   5.692   4.273   1.927  1.9888 -0.3063  1.1731
 7448TIP3    H243760   5.712   4.266   1.777 -0.9258 -0.0445  0.7156
 7449TIP3   OH243761   0.960   3.828   3.923  0.0173  0.4118 -0.1460
 7449TIP3    H143762   0.988   3.737   3.934 -1.8995 -0.0841  0.9974
 7449TIP3    H243763   1.042   3.878   3.919  1.0903 -1.1436  1.2210
 7450TIP3   OH243764   5.743   3.143  12.421 -0.5430 -0.4820  0.0232
 7450TIP3    H143765   5.695   3.102  12.493 -0.9256  0.3847  0.2728
 7450TIP3    H243766   5.808   3.078  12.396 -1.1047 -1.2206  0.4390
 7451TIP3   OH243767   6.291   5.144  15.031  0.4887  0.3687  0.2076
 7451TIP3    H143768   6.359   5.197  14.989 -0.0463 -0.5971 -2.0126
 7451TIP3    H243769   6.270   5.191  15.112  0.6575  3.0855 -1.2150
 7452TIP3   OH243770   6.223   3.594   1.497 -1.0667 -0.5607 -0.1216
 7452TIP3    H143771   6.189   3.680   1.523  1.5428  0.3956  0.5250
 7452TIP3    H243772   6.149   3.550   1.457 -2.2890  2.3884 -1.4339
 7453TIP3   OH243773   1.764   1.022  12.125 -0.1367  0.2939  0.4606
 7453TIP3    H143774   1.846   1.056  12.089  0.0929 -1.0912 -0.4202
 7453TIP3    H243775   1.787   0.992  12.213 -0.2058  1.7789  1.0099
 7454TIP3   OH243776   1.136   0.983   0.541  0.3126 -0.4605  0.0233
 7454TIP3    H143777   1.212   1.026   0.503  0.4657  0.8522  1.7389
 7454TIP3    H243778   1.085   1.054   0.581 -0.8954 -1.5354  0.4742
 7455TIP3   OH243779   4.162   6.650  15.821  0.2254 -0.0338  0.5045
 7455TIP3    H143780   4.079   6.696  15.807  0.7725  1.6556  2.3268
 7455TIP3    H243781   4.223   6.693  15.762 -0.2960 -1.7910 -1.4073
 7456TIP3   OH243782   4.742   3.627  15.497  0.1248  0.0204 -0.2821
 7456TIP3    H143783   4.735   3.700  15.558  0.2976 -0.8039  0.7776
 7456TIP3    H243784   4.832   3.596  15.506  0.0495 -0.3347 -0.6856
 7457TIP3   OH243785   1.292   3.923   5.239  0.3249 -0.3129  0.0869
 7457TIP3    H143786   1.336   3.905   5.322  2.2206 -1.1102 -1.0237
 7457TIP3    H243787   1.266   4.015   5.245  1.8671  0.1052  0.9668
 7458TIP3   OH243788   4.986   6.530  11.979  0.2282  0.2923  0.0381
 7458TIP3    H143789   5.023   6.548  11.892 -0.5585 -3.0647 -1.1363
 7458TIP3    H243790   5.053   6.558  12.040  1.5078  1.2467 -1.7081
 7459TIP3   OH243791   2.068   0.195   0.173 -0.0346  0.4018 -0.3924
 7459TIP3    H143792   2.139   0.144   0.135 -2.2089 -3.9050  0.7468
 7459TIP3    H243793   2.109   0.280   0.194  4.3098 -1.2123 -1.1923
 7460TIP3   OH243794   2.042   5.838   5.867  0.1520  0.1025 -0.2478
 7460TIP3    H143795   2.060   5.888   5.947  1.4502  2.0404 -1.6513
 7460TIP3    H243796   2.124   5.839   5.819 -1.2607  1.4533 -2.8687
 7461TIP3   OH243797   1.118   6.074   1.556  0.8453  0.1051 -0.1635
 7461TIP3    H143798   1.105   6.055   1.463  2.2829 -0.0891 -0.3613
 7461TIP3    H243799   1.188   6.140   1.557 -0.1280  1.1614  0.7416
 7462TIP3   OH243800   5.688   6.252  11.050  0.1637  0.3316  0.1789
 7462TIP3    H143801   5.608   6.216  11.010 -0.7296  1.5292  0.8223
 7462TIP3    H243802   5.699   6.338  11.009  1.5224 -0.0849 -0.3863
 7463TIP3   OH243803   5.875   6.147   0.620 -0.3247 -0.7259  0.1946
 7463TIP3    H143804   5.862   6.137   0.526  2.5040  2.2337 -0.6918
 7463TIP3    H243805   5.864   6.241   0.636 -1.1453 -1.1810  2.9685
 7464TIP3   OH243806   3.694   1.201   2.801 -0.4251  0.3189 -0.0975
 7464TIP3    H143807   3.616   1.232   2.754 -0.6605 -1.4127 -0.9482
 7464TIP3    H243808   3.675   1.110   2.821  1.2019 -0.0083  0.1114
 7465TIP3   OH243809   5.980   5.022   0.592  0.7214  0.1531  0.3058
 7465TIP3    H143810   6.046   5.004   0.525  0.2274  4.1855 -1.5729
 7465TIP3    H243811   5.899   4.985   0.556  1.2195 -1.6893  0.9524
 7466TIP3   OH243812   5.887   5.561   3.836  0.5267  0.4376  0.1154
 7466TIP3    H143813   5.941   5.609   3.774  0.8672  0.7268  0.6311
 7466TIP3    H243814   5.860   5.482   3.789  2.8124 -0.5850  0.4184
 7467TIP3   OH243815   3.173   1.757  17.172 -0.5290 -0.2164 -0.1403
 7467TIP3    H143816   3.119   1.820  17.221  0.7729  1.3573 -0.6480
 7467TIP3    H243817   3.244   1.810  17.136  0.2036 -1.8777 -1.2225
 7468TIP3   OH243818   1.682   5.631   2.481  0.1728 -0.2259 -0.0932
 7468TIP3    H143819   1.595   5.599   2.505  0.5845 -1.6146 -0.3403
 7468TIP3    H243820   1.742   5.567   2.519  1.0389  0.0963 -0.8852
 7469TIP3   OH243821   3.714   5.380  14.259  0.0274 -0.3395 -0.2140
 7469TIP3    H143822   3.701   5.447  14.326  0.4802 -0.0184 -0.4458
 7469TIP3    H243823   3.640   5.393  14.199  0.3200  0.2096 -0.4666
 7470TIP3   OH243824   4.333   3.564   0.365 -0.4116  0.3985 -0.1625
 7470TIP3    H143825   4.279   3.625   0.317 -0.4615 -0.1880 -0.8682
 7470TIP3    H243826   4.373   3.509   0.298  1.0356  0.7903  0.3378
 7471TIP3   OH243827   6.529   2.503   5.358 -0.1471  0.3311  0.2028
 7471TIP3    H143828   6.614   2.509   5.313  0.7829 -1.2601  1.6167
 7471TIP3    H243829   6.525   2.583   5.411 -0.2962  1.1919 -1.0490
 7472TIP3   OH243830   5.825   1.906  16.124  0.2822  0.2911 -0.0773
 7472TIP3    H143831   5.754   1.965  16.098 -2.0452 -0.9107  2.8712
 7472TIP3    H243832   5.897   1.964  16.149 -1.1199  1.8326  0.5991
 7473TIP3   OH243833   1.918   3.354   0.750  0.0034  0.2470 -0.0703
 7473TIP3    H143834   1.857   3.379   0.680 -0.4941 -1.5243 -0.3198
 7473TIP3    H243835   1.910   3.259   0.756  0.6030  0.2761  1.9069
 7474TIP3   OH243836   5.746   6.478  16.398 -0.0591 -0.6410  0.1704
 7474TIP3    H143837   5.811   6.411  16.375  1.7319 -0.0369  2.8699
 7474TIP3    H243838   5.668   6.429  16.421  0.1638 -1.5636 -0.9440
 7475TIP3   OH243839   3.483   3.428   5.778 -0.8315  0.5432 -0.1889
 7475TIP3    H143840   3.460   3.383   5.696  1.0577 -1.3939  0.2459
 7475TIP3    H243841   3.534   3.504   5.750  1.0279 -0.8723 -0.8600
 7476TIP3   OH243842   0.097   6.049   3.445 -0.2076  0.6269  0.2210
 7476TIP3    H143843   0.030   6.094   3.496  0.1480  1.4243 -0.0003
 7476TIP3    H243844   0.139   5.990   3.507 -1.0961  0.1317  0.3644
 7477TIP3   OH243845   1.345   3.844  12.566 -0.0179  0.3119  0.2962
 7477TIP3    H143846   1.251   3.851  12.554 -0.1509 -2.0683 -0.4890
 7477TIP3    H243847   1.362   3.892  12.647 -2.2034 -0.7852  1.4997
 7478TIP3   OH243848   4.617   0.764   1.469  0.7978 -0.1500 -0.4877
 7478TIP3    H143849   4.602   0.833   1.404  0.5602 -1.7596 -2.2459
 7478TIP3    H243850   4.710   0.743   1.460  0.5844 -0.9535 -0.9482
 7479TIP3   OH243851   2.718   1.251   0.932  0.7990  0.2931  0.6881
 7479TIP3    H143852   2.688   1.163   0.955  2.2980 -0.7536 -1.0922
 7479TIP3    H243853   2.639   1.305   0.934 -0.4146 -1.3962  0.4062
 7480TIP3   OH243854   4.085   1.718   3.188 -0.0835  0.1431 -0.1901
 7480TIP3    H143855   4.140   1.647   3.157 -0.7529 -0.3030 -0.3817
 7480TIP3    H243856   4.027   1.677   3.252 -1.4402  0.1829 -1.3354
 7481TIP3   OH243857   4.745   4.737   2.613  0.1729  0.3725  0.4472
 7481TIP3    H143858   4.698   4.670   2.664  0.7805  0.5010  1.1931
 7481TIP3    H243859   4.774   4.691   2.535  2.3486 -0.8544  1.8598
 7482TIP3   OH243860   1.581   3.464   2.882  0.4096  0.6654 -0.5137
 7482TIP3    H143861   1.541   3.530   2.826  0.1197  0.8003 -0.1498
 7482TIP3    H243862   1.524   3.388   2.875 -1.2391  1.5796  1.7702
 7483TIP3   OH243863   0.785   4.981   6.357 -0.1460 -0.0063  0.6384
 7483TIP3    H143864   0.815   5.060   6.402 -1.5673  1.2438 -0.5186
 7483TIP3    H243865   0.864   4.944   6.317  0.4127  1.3183  0.4768
 7484TIP3   OH243866   4.019   5.578   2.502 -0.2799 -0.4897 -0.1935
 7484TIP3    H143867   4.074   5.650   2.473  1.2422 -1.7064 -0.4199
 7484TIP3    H243868   4.034   5.508   2.439 -1.0662 -1.3213  0.4966
 7485TIP3   OH243869   1.276   0.374   1.228 -0.6428  0.0705  0.2037
 7485TIP3    H143870   1.204   0.329   1.272 -0.4875  0.8701  1.3274
 7485TIP3    H243871   1.250   0.467   1.228 -0.9181  0.0515 -1.9849
 7486TIP3   OH243872   3.080   4.832  13.962 -0.1883 -0.2190 -0.1774
 7486TIP3    H143873   3.052   4.785  14.041  1.0355 -0.4150  0.1671
 7486TIP3    H243874   3.002   4.879  13.933 -0.3348  1.0146  1.9698
 7487TIP3   OH243875   4.487   6.720  14.717 -0.4124  0.0708  0.0747
 7487TIP3    H143876   4.405   6.757  14.684  0.3163  0.2033 -1.6854
 7487TIP3    H243877   4.501   6.764  14.801 -1.5522  0.8902 -0.1380
 7488TIP3   OH243878   3.027   0.995   4.871  0.0386  0.3626 -0.0559
 7488TIP3    H143879   3.121   1.000   4.889  0.1005 -0.1988 -0.2081
 7488TIP3    H243880   2.988   1.052   4.937  0.6883  3.3321 -2.0028
 7489TIP3   OH243881   2.683   5.465   1.501  0.2461  1.0127  0.1561
 7489TIP3    H143882   2.642   5.378   1.496  0.4954  0.9472 -0.9505
 7489TIP3    H243883   2.694   5.480   1.595 -0.5087  0.1839  0.3978
 7490TIP3   OH243884   6.565   6.207  11.928  0.2033  0.0220  0.4121
 7490TIP3    H143885   6.496   6.199  11.863 -0.3046  0.3967  0.8912
 7490TIP3    H243886   6.533   6.273  11.989  2.0185  2.0345 -0.6550
 7491TIP3   OH243887   6.368   3.596  15.367  0.1229  0.4258  0.8498
 7491TIP3    H143888   6.363   3.688  15.343 -0.8010  0.0787 -0.4197
 7491TIP3    H243889   6.349   3.594  15.461 -2.2069  1.3623  0.4710
 7492TIP3   OH243890   4.079   6.310  13.223  0.9595 -0.1016 -0.7612
 7492TIP3    H143891   4.028   6.326  13.143 -4.2747 -0.8074  1.9745
 7492TIP3    H243892   4.070   6.216  13.238 -2.0276  0.4923  2.5630
 7493TIP3   OH243893   6.457   1.781   2.093  0.4408  0.0184  0.7509
 7493TIP3    H143894   6.491   1.842   2.027  1.3852  0.4975  1.6488
 7493TIP3    H243895   6.364   1.802   2.099  1.0813  3.0838  2.6820
 7494TIP3   OH243896   3.003   4.627  16.605  0.4155 -0.2838  0.0063
 7494TIP3    H143897   3.094   4.616  16.630  0.3680 -0.4016  0.1280
 7494TIP3    H243898   2.966   4.538  16.605 -0.1665 -0.0779  1.7429
 7495TIP3   OH243899   4.712   2.922   2.054 -0.2850 -0.0624  0.2508
 7495TIP3    H143900   4.745   2.997   2.103 -0.3924  0.1536 -0.0091
 7495TIP3    H243901   4.789   2.866   2.042  0.0746  0.6083 -0.6595
 7496TIP3   OH243902   3.939   0.254   4.035  0.4624  0.2534 -0.6182
 7496TIP3    H143903   4.018   0.304   4.056  0.2189  0.5521 -0.4114
 7496TIP3    H243904   3.875   0.320   4.009 -0.1948  0.1534  0.6788
 7497TIP3   OH243905   3.244   6.532  16.077 -0.3235  0.4351 -0.1529
 7497TIP3    H143906   3.182   6.466  16.045 -0.0316 -0.3925  0.9193
 7497TIP3    H243907   3.196   6.579  16.145  0.3007 -0.4658  0.9557
 7498TIP3   OH243908   3.014   0.214   0.448 -0.1715 -0.2807 -0.0718
 7498TIP3    H143909   3.020   0.261   0.531 -0.0449  0.8494 -0.7106
 7498TIP3    H243910   3.070   0.137   0.461  1.4965  0.9275  0.2031
 7499TIP3   OH243911   4.638   6.477   5.400  0.1859  1.0679 -0.4416
 7499TIP3    H143912   4.547   6.467   5.371  0.0948 -0.9264  0.4000
 7499TIP3    H243913   4.687   6.413   5.350  0.9372  1.2923 -0.0123
 7500TIP3   OH243914   1.609   2.895   2.203  0.3700  0.1448 -0.3097
 7500TIP3    H143915   1.603   2.919   2.296 -0.7033  2.2313 -0.8628
 7500TIP3    H243916   1.624   2.978   2.158 -0.1338 -0.6996 -2.0999
 7501TIP3   OH243917   4.319   5.985  11.659 -0.2068 -0.4674  0.3012
 7501TIP3    H143918   4.226   5.961  11.651  0.4462 -3.0015 -0.5618
 7501TIP3    H243919   4.340   6.029  11.577 -0.8662  1.1635  0.9609
 7502TIP3   OH243920   5.228   3.066   2.832 -0.3910 -0.1115 -0.1283
 7502TIP3    H143921   5.258   3.121   2.759  1.8372 -2.0961 -0.8269
 7502TIP3    H243922   5.193   2.988   2.790  0.4234 -1.0411  0.8837
 7503TIP3   OH243923   4.220   0.271   3.759  0.2727 -0.6948 -0.6349
 7503TIP3    H143924   4.139   0.221   3.749 -0.3596  0.0395  0.5737
 7503TIP3    H243925   4.250   0.251   3.848  1.2059 -0.6440 -0.9261
 7504TIP3   OH243926   4.727   4.783   1.844 -0.4120 -0.5466  0.2472
 7504TIP3    H143927   4.675   4.816   1.917 -1.7516  1.8281 -1.6157
 7504TIP3    H243928   4.669   4.788   1.768  0.7133 -3.4827 -0.9612
 7505TIP3   OH243929   3.117   4.143  14.092 -0.1569 -0.5512  0.0560
 7505TIP3    H143930   3.200   4.109  14.126 -0.0125 -0.2173  0.0436
 7505TIP3    H243931   3.139   4.230  14.060 -0.4381 -0.5985 -0.2698
 7506TIP3   OH243932   1.774   3.329  11.501 -0.6299 -0.4609  0.1518
 7506TIP3    H143933   1.839   3.262  11.521 -1.0239 -0.7055  0.6616
 7506TIP3    H243934   1.769   3.382  11.581 -0.7357 -0.1778 -0.0423
 7507TIP3   OH243935   4.266   5.090  12.533 -0.1051 -0.7184 -0.2745
 7507TIP3    H143936   4.330   5.158  12.511 -1.7846  1.3021  0.7041
 7507TIP3    H243937   4.299   5.052  12.614 -0.4055  0.7683  0.5906
 7508TIP3   OH243938   0.623   1.411   4.109 -0.2526 -0.4523 -0.6077
 7508TIP3    H143939   0.658   1.342   4.051  0.2679 -0.0897 -0.7288
 7508TIP3    H243940   0.528   1.404   4.099 -0.3326 -2.4376  0.8527
 7509TIP3   OH243941   4.630   3.266  16.228 -0.0367  0.5896 -0.1421
 7509TIP3    H143942   4.628   3.177  16.194 -2.0069  0.7086 -0.4423
 7509TIP3    H243943   4.624   3.255  16.323  0.3601  0.3934 -0.1370
 7510TIP3   OH243944   4.220   0.301  15.795 -0.9153  0.6025  0.0921
 7510TIP3    H143945   4.295   0.266  15.842  0.0240  2.0910 -0.2304
 7510TIP3    H243946   4.214   0.247  15.717 -1.7616 -1.1295  1.3097
 7511TIP3   OH243947   0.694   5.913   4.767 -0.3830 -0.2563  0.5477
 7511TIP3    H143948   0.611   5.945   4.733 -0.5850  0.2792  1.5352
 7511TIP3    H243949   0.705   5.827   4.725 -1.8216 -0.6901  1.0012
 7512TIP3   OH243950   0.972   5.335  15.279  0.0515  0.1564 -0.4225
 7512TIP3    H143951   0.955   5.395  15.207 -0.8808 -0.6846 -0.9221
 7512TIP3    H243952   0.998   5.392  15.352  1.5886  0.9807 -1.5545
 7513TIP3   OH243953   4.929   2.279   6.015 -0.5466  0.2113  0.0317
 7513TIP3    H143954   4.847   2.248   6.054 -0.0957  0.6462  1.3822
 7513TIP3    H243955   4.973   2.324   6.086 -0.0936  1.8775 -1.2485
 7514TIP3   OH243956   1.459   5.695   1.402  0.2847  0.2165  1.1732
 7514TIP3    H143957   1.507   5.778   1.407  0.4323  0.1140  1.4793
 7514TIP3    H243958   1.415   5.688   1.487 -0.3742  0.3720  0.8489
 7515TIP3   OH243959   6.680   1.594  12.725 -0.4442  0.6393  0.5785
 7515TIP3    H143960   6.688   1.590  12.630  0.3045  0.8074  0.6268
 7515TIP3    H243961   6.735   1.669  12.750 -2.1692  1.8200  0.9808
 7516TIP3   OH243962   1.929   3.722   3.858  0.2687  0.0328  0.1100
 7516TIP3    H143963   1.900   3.758   3.773  0.9099 -0.8119 -0.4837
 7516TIP3    H243964   2.023   3.738   3.859  0.0262  1.6728  1.4930
 7517TIP3   OH243965   2.357   2.473  13.308  0.5246  0.0660  0.0562
 7517TIP3    H143966   2.432   2.513  13.351  2.4879 -2.6298 -0.5625
 7517TIP3    H243967   2.300   2.444  13.380  0.5270  1.3000  0.5684
 7518TIP3   OH243968   4.229   5.868   3.574  0.3544 -0.7618 -0.1122
 7518TIP3    H143969   4.322   5.878   3.596  0.2137 -1.6769  0.9877
 7518TIP3    H243970   4.222   5.905   3.486  1.7913 -0.8092 -0.2838
 7519TIP3   OH243971   2.237   6.357  16.093 -0.2741  0.0620  0.1411
 7519TIP3    H143972   2.176   6.286  16.072 -0.8772  0.1265  1.5942
 7519TIP3    H243973   2.294   6.321  16.161  0.8027  0.2820 -0.6087
 7520TIP3   OH243974   5.651   4.693  14.392  0.6762 -0.3206 -0.1968
 7520TIP3    H143975   5.641   4.760  14.325 -0.0827 -0.7258 -0.5094
 7520TIP3    H243976   5.664   4.612  14.342  1.1399 -0.4717  0.1660
 7521TIP3   OH243977   4.493   5.441  16.439 -0.2134 -0.1974  0.2406
 7521TIP3    H143978   4.469   5.352  16.464  1.7701 -1.7404 -2.7626
 7521TIP3    H243979   4.457   5.452  16.351 -0.3645  1.9780  0.5193
 7522TIP3   OH243980   4.862   6.263  13.672 -0.2278 -0.5607  0.2279
 7522TIP3    H143981   4.953   6.269  13.700 -0.3808 -0.0812  0.6408
 7522TIP3    H243982   4.812   6.304  13.743 -0.4597  2.4767 -1.5244
 7523TIP3   OH243983   1.869   5.174   6.020  0.3724  0.7390 -0.5717
 7523TIP3    H143984   1.858   5.227   5.941 -0.0874  0.0519 -0.9758
 7523TIP3    H243985   1.864   5.238   6.092 -0.5147  1.2139 -1.0307
 7524TIP3   OH243986   1.211   1.355  16.441 -0.1115  0.3679 -0.4808
 7524TIP3    H143987   1.213   1.433  16.386 -1.1773 -0.2458 -1.4433
 7524TIP3    H243988   1.235   1.284  16.381 -2.0835 -0.4196 -0.3908
 7525TIP3   OH243989   5.538   3.170   3.193  0.3568 -0.1998 -0.3141
 7525TIP3    H143990   5.563   3.259   3.166 -0.4907 -0.2747 -1.3809
 7525TIP3    H243991   5.593   3.153   3.270 -1.2461  2.2218  1.4974
 7526TIP3   OH243992   1.201   4.733  13.306 -0.1120 -0.3444 -0.2615
 7526TIP3    H143993   1.268   4.789  13.267  1.5393 -1.0912  1.3780
 7526TIP3    H243994   1.153   4.790  13.365  0.2227 -0.1903 -0.1344
 7527TIP3   OH243995   1.300   6.084   3.704 -0.0064  0.1297 -0.2407
 7527TIP3    H143996   1.242   6.128   3.642 -1.1760 -0.2297  0.5544
 7527TIP3    H243997   1.284   6.128   3.788  2.5119  1.4905 -0.3681
 7528TIP3   OH243998   3.128   5.620  13.379  0.2321  0.1672 -0.1908
 7528TIP3    H143999   3.117   5.713  13.358 -0.8337  0.7082  2.4356
 7528TIP3    H244000   3.041   5.591  13.406  0.6293 -1.5199 -0.6321
 7529TIP3   OH244001   0.437   2.147   4.135 -0.2802  0.1089  0.5631
 7529TIP3    H144002   0.463   2.061   4.169 -2.2039 -1.0784 -0.8044
 7529TIP3    H244003   0.425   2.133   4.041 -1.5828  1.6270  0.4726
 7530TIP3   OH244004   2.760   5.149   2.790  0.1967  0.1638 -0.0814
 7530TIP3    H144005   2.714   5.233   2.780  1.0723  0.5967 -0.6594
 7530TIP3    H244006   2.745   5.124   2.881  1.1927  1.7508  0.5614
 7531TIP3   OH244007   2.509   4.129   1.024 -0.4649  0.1881 -0.5470
 7531TIP3    H144008   2.443   4.062   1.007 -0.3802  0.3627 -1.6434
 7531TIP3    H244009   2.588   4.098   0.978 -0.5529  1.2315 -1.4560
 7532TIP3   OH244010   3.129   1.026   3.107  0.1392 -0.5707 -0.0581
 7532TIP3    H144011   3.101   0.939   3.078 -1.7891  0.2458 -0.7951
 7532TIP3    H244012   3.061   1.053   3.169 -0.7980  1.4926 -1.8920
 7533TIP3   OH244013   0.113   5.343  16.764 -0.7294  0.7078 -0.0374
 7533TIP3    H144014   0.129   5.257  16.803 -1.5731  0.2937 -0.5581
 7533TIP3    H244015   0.125   5.405  16.836  0.8641  0.2541  0.1110
 7534TIP3   OH244016   1.417   4.758   3.830 -0.0601  0.1439  0.4131
 7534TIP3    H144017   1.398   4.712   3.912 -2.6142 -0.2560 -0.3275
 7534TIP3    H244018   1.331   4.788   3.799  0.5971 -1.0027 -2.8733
 7535TIP3   OH244019   4.143   4.324   5.077 -0.3655 -0.2253 -0.1305
 7535TIP3    H144020   4.159   4.240   5.034 -2.1197 -2.4228  3.1105
 7535TIP3    H244021   4.207   4.327   5.149 -1.0598  0.6768  0.4718
 7536TIP3   OH244022   5.966   6.432   4.877  0.2496 -0.1067  0.0963
 7536TIP3    H144023   6.048   6.434   4.827 -0.6948  0.9499 -1.5049
 7536TIP3    H244024   5.947   6.524   4.895 -1.4137 -0.1868 -1.0170
 7537TIP3   OH244025   5.718   5.546  14.548 -0.3183 -0.1505  0.0904
 7537TIP3    H144026   5.728   5.459  14.587 -0.1966 -0.4681 -0.6422
 7537TIP3    H244027   5.730   5.606  14.622  0.5806 -0.7217  0.4309
 7538TIP3   OH244028   4.180   3.264  11.329  0.1650  0.0787 -0.2666
 7538TIP3    H144029   4.205   3.213  11.251 -0.9275 -1.2053  0.1807
 7538TIP3    H244030   4.125   3.334  11.295 -0.3019 -0.4680 -0.6635
 7539TIP3   OH244031   3.094   5.182  16.910  0.0067 -0.2664 -0.0627
 7539TIP3    H144032   3.102   5.244  16.982  1.1070 -1.7601  1.1857
 7539TIP3    H244033   3.078   5.098  16.953 -1.1095 -0.9278 -1.6685
 7540TIP3   OH244034   1.168   4.971  13.899 -0.6733 -0.4600  0.0707
 7540TIP3    H144035   1.143   4.968  13.806  0.6580 -1.7637 -0.2952
 7540TIP3    H244036   1.088   4.950  13.946 -1.9835  2.4713 -0.5930
 7541TIP3   OH244037   5.261   0.026   5.265  0.2700 -0.2058  0.4429
 7541TIP3    H144038   5.325   0.098   5.267  2.3013 -1.9336  1.8574
 7541TIP3    H244039   5.290  -0.034   5.333 -1.1800 -2.5298 -0.8635
 7542TIP3   OH244040   0.946   6.759  12.988  0.4377  0.4787 -0.5080
 7542TIP3    H144041   1.029   6.759  12.941  1.1726 -0.5632  0.7241
 7542TIP3    H244042   0.880   6.772  12.919  1.4549 -1.0123 -1.8400
 7543TIP3   OH244043   3.648   2.509   0.557 -0.2247 -0.4617  0.1706
 7543TIP3    H144044   3.647   2.595   0.600 -0.7128 -0.1519 -0.4527
 7543TIP3    H244045   3.735   2.474   0.576  0.4816  0.7483 -0.7077
 7544TIP3   OH244046   6.459   2.214  16.975  0.1418  0.0159 -0.5382
 7544TIP3    H144047   6.456   2.126  16.937 -0.5152 -0.9683  1.6361
 7544TIP3    H244048   6.485   2.271  16.902 -0.2734 -1.8364 -2.2191
 7545TIP3   OH244049   4.861   3.641  12.395  0.0546 -0.1716  0.3084
 7545TIP3    H144050   4.897   3.709  12.339 -0.7843 -1.0994 -1.4232
 7545TIP3    H244051   4.859   3.563  12.340 -1.0675 -1.0571  1.5368
 7546TIP3   OH244052   1.548   2.063   2.142  0.6534 -0.1396 -0.1334
 7546TIP3    H144053   1.586   2.118   2.211  0.6955 -0.8691  0.4322
 7546TIP3    H244054   1.623   2.038   2.087  0.6666  0.1750 -0.2621
 7547TIP3   OH244055   1.331   4.565   6.033  0.2994 -0.0179 -0.1242
 7547TIP3    H144056   1.376   4.531   5.955  0.9348 -2.5958  1.2621
 7547TIP3    H244057   1.394   4.625   6.072  0.6451  0.0014 -0.6920
 7548TIP3   OH244058   4.166   3.834  12.592 -0.3809  0.1271 -0.0673
 7548TIP3    H144059   4.248   3.786  12.587 -2.1531 -3.0877 -0.7315
 7548TIP3    H244060   4.188   3.914  12.640  2.7708 -1.3208  1.1795
 7549TIP3   OH244061   0.419   1.019  15.182  0.5317 -0.3907  0.1955
 7549TIP3    H144062   0.497   0.991  15.134 -0.2451  0.2201 -1.5057
 7549TIP3    H244063   0.346   0.996  15.124 -0.6429 -1.6875  2.1025
 7550TIP3   OH244064   2.970   6.297   0.760 -0.2293 -0.2265 -0.3941
 7550TIP3    H144065   2.935   6.282   0.848  0.1924 -0.4602 -0.2638
 7550TIP3    H244066   2.892   6.309   0.705 -0.4990 -0.2473 -0.0205
 7551TIP3   OH244067   1.482   0.718   6.022  0.0485 -0.1704 -0.2165
 7551TIP3    H144068   1.513   0.648   5.964 -0.4318  0.5914 -1.4382
 7551TIP3    H244069   1.556   0.778   6.030  1.0084 -1.5378  2.1105
 7552TIP3   OH244070   6.585   2.520  16.192  0.2791 -0.1463 -0.2932
 7552TIP3    H144071   6.631   2.442  16.223  3.1441  2.0873  1.6697
 7552TIP3    H244072   6.548   2.559  16.272 -0.4348  0.8759 -1.0971
 7553TIP3   OH244073   0.837   5.823  16.076 -1.1168  0.7466 -0.1614
 7553TIP3    H144074   0.843   5.753  16.010 -2.7076  2.3847 -2.2120
 7553TIP3    H244075   0.743   5.836  16.088 -0.8403  1.8050  0.9838
 7554TIP3   OH244076   3.787   5.243  12.991 -0.3047  0.5082 -0.3430
 7554TIP3    H144077   3.709   5.295  12.971  0.0844  0.8000 -1.1750
 7554TIP3    H244078   3.828   5.229  12.905  0.4886  0.2533  0.0717
 7555TIP3   OH244079   0.084   3.302   4.171 -0.4278 -0.3147 -0.1421
 7555TIP3    H144080   0.086   3.322   4.077 -0.4786  1.0943  0.1387
 7555TIP3    H244081   0.040   3.377   4.211  0.1319 -0.6108  1.0767
 7556TIP3   OH244082   0.755   5.486  17.185 -0.1064  0.2818 -0.2701
 7556TIP3    H144083   0.675   5.527  17.218  0.3068  0.7163  0.2210
 7556TIP3    H244084   0.822   5.554  17.195  0.3111 -0.0545 -0.7343
 7557TIP3   OH244085   6.430   4.039  14.796  0.2529  0.4836  0.3407
 7557TIP3    H144086   6.477   4.122  14.808  0.7632  0.2372  0.1029
 7557TIP3    H244087   6.460   3.984  14.868  0.1398  0.4076  0.3293
 7558TIP3   OH244088   5.955   3.593  11.381 -0.1137  0.2758 -0.3409
 7558TIP3    H144089   6.024   3.528  11.375 -0.1649  0.1458  0.3909
 7558TIP3    H244090   5.995   3.668  11.425 -0.7619 -0.2863  1.2701
 7559TIP3   OH244091   3.291   5.855   3.947 -0.5650 -0.0598  0.2959
 7559TIP3    H144092   3.216   5.887   3.897  0.1808  3.2462  1.0600
 7559TIP3    H244093   3.356   5.832   3.880 -0.9667  0.6180 -0.3479
 7560TIP3   OH244094   2.453   0.347   3.879  0.1400 -0.0964 -0.3505
 7560TIP3    H144095   2.485   0.435   3.860 -0.5432 -0.0886 -1.6044
 7560TIP3    H244096   2.521   0.307   3.934  0.8829  0.8912 -0.5286
 7561TIP3   OH244097   5.096   4.228  15.153 -0.1445 -0.2326  0.8173
 7561TIP3    H144098   5.165   4.188  15.100 -2.0400 -0.1489 -1.9051
 7561TIP3    H244099   5.032   4.158  15.166 -0.7379  0.3450  1.0861
 7562TIP3   OH244100   3.190   4.919  16.511 -0.2602  0.4313  0.2770
 7562TIP3    H144101   3.094   4.908  16.511 -0.1890 -0.2448  0.9261
 7562TIP3    H244102   3.205   4.999  16.562 -0.3470 -0.9387  2.5712
 7563TIP3   OH244103   1.330   4.649   1.483  0.0649 -0.5963  0.0300
 7563TIP3    H144104   1.348   4.742   1.500  3.0243 -1.1098  0.2398
 7563TIP3    H244105   1.262   4.626   1.545  2.5470  0.3940  3.4340
 7564TIP3   OH244106   0.159   2.662  11.645  0.6633  0.4454  0.1612
 7564TIP3    H144107   0.133   2.581  11.602 -2.2468  1.8187 -1.0143
 7564TIP3    H244108   0.090   2.677  11.710  1.6050  1.5651  0.9457
 7565TIP3   OH244109   1.325   2.955  15.479  0.1231 -0.1124 -0.4387
 7565TIP3    H144110   1.303   2.970  15.571 -0.7830 -0.4572 -0.5868
 7565TIP3    H244111   1.298   2.864  15.462  0.5471 -0.1485 -0.9692
 7566TIP3   OH244112   5.077   1.515  14.775 -0.3021 -0.1668 -0.1892
 7566TIP3    H144113   5.163   1.483  14.803 -0.7456 -0.5699  0.7576
 7566TIP3    H244114   5.094   1.602  14.739  0.2436  0.7134  1.9938
 7567TIP3   OH244115   3.824   0.916  15.568  0.4101  0.0788  0.0373
 7567TIP3    H144116   3.883   0.962  15.509 -0.4870  0.8460 -0.2792
 7567TIP3    H244117   3.761   0.872  15.510 -1.6123  2.3310  0.3584
 7568TIP3   OH244118   5.749   2.441   5.431 -0.2613  0.0439  0.2607
 7568TIP3    H144119   5.780   2.356   5.398 -1.5675  0.2769 -1.7177
 7568TIP3    H244120   5.660   2.448   5.397  0.1342  2.6101 -0.3868
 7569TIP3   OH244121   0.633   6.410  15.936  0.1028 -0.1760 -0.5370
 7569TIP3    H144122   0.612   6.321  15.962  0.8711 -0.7367 -1.7937
 7569TIP3    H244123   0.566   6.433  15.871  0.2945 -0.0734 -0.6983
 7570TIP3   OH244124   1.552   1.107  13.303  0.5307 -0.7690 -0.0035
 7570TIP3    H144125   1.543   1.066  13.217 -1.9439  0.2756 -0.3127
 7570TIP3    H244126   1.587   1.194  13.285 -2.2388  0.3799 -0.3150
 7571TIP3   OH244127   1.153   0.492  12.357  0.1560  0.0213 -0.0873
 7571TIP3    H144128   1.198   0.494  12.273 -0.9155  0.8123 -0.6695
 7571TIP3    H244129   1.171   0.404  12.392  0.7361 -0.2598 -1.0605
 7572TIP3   OH244130   2.422   5.671  11.519  0.2929  0.2363  0.2048
 7572TIP3    H144131   2.506   5.711  11.496  0.4367 -0.5834 -0.7863
 7572TIP3    H244132   2.407   5.606  11.450  1.2372 -3.1716  2.9349
 7573TIP3   OH244133   2.931   3.550   4.772  0.0136  0.0824 -0.5613
 7573TIP3    H144134   2.957   3.480   4.711  0.9904  1.1340 -1.3986
 7573TIP3    H244135   2.954   3.516   4.858 -0.3856 -0.9978 -0.8584
 7574TIP3   OH244136   1.015   0.754   5.810  0.2540 -0.0870  0.3823
 7574TIP3    H144137   0.959   0.813   5.860  1.0030  0.1677  0.9513
 7574TIP3    H244138   0.964   0.673   5.802 -0.7402  0.5943 -0.3280
 7575TIP3   OH244139   4.693   3.015   3.407  0.5119  0.7507 -0.1933
 7575TIP3    H144140   4.651   3.095   3.438  1.1464  0.8294  0.4848
 7575TIP3    H244141   4.620   2.956   3.387  0.0474  0.6770  1.5372
 7576TIP3   OH244142   2.077   4.130  12.624  0.0241  0.2748 -0.3170
 7576TIP3    H144143   2.144   4.063  12.620 -1.9183 -1.7355 -1.3972
 7576TIP3    H244144   2.061   4.143  12.717  0.5950 -0.5914 -0.0859
 7577TIP3   OH244145   0.114   1.079  15.267 -0.1788 -0.2236  0.3790
 7577TIP3    H144146   0.075   1.033  15.341 -0.1030  1.1522  1.3067
 7577TIP3    H244147   0.138   1.010  15.205  1.6559 -1.6134  2.5000
 7578TIP3   OH244148   2.833   5.813   4.982  0.4819 -0.2512  0.1066
 7578TIP3    H144149   2.769   5.814   4.910  0.9704 -0.1363 -0.3319
 7578TIP3    H244150   2.855   5.905   4.994 -0.7887 -0.0841  1.4952
 7579TIP3   OH244151   1.335   3.548   5.201 -0.0745 -0.2369  0.2140
 7579TIP3    H144152   1.383   3.529   5.121 -0.6073  1.1072 -0.4551
 7579TIP3    H244153   1.377   3.626   5.237 -0.5645 -0.1507  0.6136
 7580TIP3   OH244154   4.791   5.377  16.935  0.5628 -0.3369  0.4764
 7580TIP3    H144155   4.806   5.338  16.849 -1.4870 -2.3042  0.9155
 7580TIP3    H244156   4.828   5.315  16.997  0.6950  0.3275  1.0735
 7581TIP3   OH244157   2.935   1.245   1.382 -0.3404 -0.1204  0.4690
 7581TIP3    H144158   2.938   1.341   1.379  0.1833 -0.0430  2.2816
 7581TIP3    H244159   2.953   1.218   1.292 -1.3592  1.4824 -0.2579
 7582TIP3   OH244160   6.062   3.284  11.638  0.4130  0.0813 -0.0302
 7582TIP3    H144161   6.098   3.332  11.564  0.4040  0.0004 -0.0861
 7582TIP3    H244162   5.977   3.253  11.608  0.2644  0.3298  0.1237
 7583TIP3   OH244163   2.525   2.558   1.457  0.0041 -0.4525 -0.2560
 7583TIP3    H144164   2.488   2.508   1.530 -0.5905  0.1631 -0.1301
 7583TIP3    H244165   2.472   2.534   1.381  2.0788 -2.9275 -1.0612
 7584TIP3   OH244166   2.298   4.598   1.077  0.1277  0.0852  0.5489
 7584TIP3    H144167   2.338   4.585   0.991 -0.2688 -2.2343  0.6518
 7584TIP3    H244168   2.362   4.562   1.139 -0.7529 -0.8263  0.9576
 7585TIP3   OH244169   2.056   1.978   2.138 -0.3155 -0.8788 -0.1352
 7585TIP3    H144170   2.002   1.923   2.082 -0.4903  0.9387 -1.8770
 7585TIP3    H244171   2.134   1.996   2.087  0.2935 -0.4997  0.8900
 7586TIP3   OH244172   5.066   2.640   2.911  0.4739  0.1212 -0.3063
 7586TIP3    H144173   4.989   2.674   2.867  0.9005  0.5460 -0.7338
 7586TIP3    H244174   5.073   2.690   2.992 -0.6066 -1.0103  0.5260
 7587TIP3   OH244175   2.302   1.331   5.449 -0.8462 -0.0249 -0.0424
 7587TIP3    H144176   2.347   1.247   5.445 -0.5854  0.0355  1.4146
 7587TIP3    H244177   2.334   1.379   5.372 -1.8457 -1.6418 -1.5278
 7588TIP3   OH244178   6.524   0.531  11.677 -0.1145 -0.2848  0.2807
 7588TIP3    H144179   6.616   0.551  11.699  0.5347 -2.4562 -0.2451
 7588TIP3    H244180   6.530   0.475  11.600 -1.9235 -0.2965  0.1160
 7589TIP3   OH244181   3.767   2.005   6.764  0.3574  0.8008 -0.2586
 7589TIP3    H144182   3.693   1.944   6.762 -0.1429  1.2664  1.9073
 7589TIP3    H244183   3.734   2.081   6.812  1.2228  2.4913 -2.1457
 7590TIP3   OH244184   0.162   6.151   1.274 -0.0666 -0.4722 -0.6916
 7590TIP3    H144185   0.093   6.210   1.303  0.1530  0.5312 -2.1346
 7590TIP3    H244186   0.116   6.079   1.231 -0.3054 -1.1170  0.5842
 7591TIP3   OH244187   0.424   6.424  11.354  0.1195 -0.0742  0.5074
 7591TIP3    H144188   0.364   6.415  11.279  1.1473 -0.7044 -0.2724
 7591TIP3    H244189   0.381   6.487  11.412 -1.3186 -0.5486  0.0060
 7592TIP3   OH244190   6.156   1.024   2.128  0.5264 -0.3357  0.6286
 7592TIP3    H144191   6.194   0.956   2.073 -2.1124 -2.2563  0.9655
 7592TIP3    H244192   6.124   0.977   2.206 -1.2832  1.2694  0.9338
 7593TIP3   OH244193   3.201   5.747  16.679  0.2057 -0.0953  0.1025
 7593TIP3    H144194   3.159   5.759  16.764 -2.1574  0.1131 -1.0170
 7593TIP3    H244195   3.241   5.832  16.660 -1.8087  0.8350 -0.2520
 7594TIP3   OH244196   6.478   4.095   0.833  0.5360 -0.0601  0.3165
 7594TIP3    H144197   6.428   4.013   0.835  1.2419 -0.5628 -1.1043
 7594TIP3    H244198   6.452   4.137   0.751 -0.6681  1.7306  1.5435
 7595TIP3   OH244199   0.179   3.792  15.197 -0.3872 -0.2489 -0.1537
 7595TIP3    H144200   0.190   3.885  15.216  0.7884 -0.3652 -0.2227
 7595TIP3    H244201   0.147   3.755  15.279  0.0267  0.0612  0.1503
 7596TIP3   OH244202   1.158   0.783  15.630 -0.3003  0.1305  0.3779
 7596TIP3    H144203   1.081   0.729  15.613 -0.9420  1.0301  0.3181
 7596TIP3    H244204   1.232   0.723  15.623 -1.0488 -0.9239  1.2557
 7597TIP3   OH244205   4.853   1.050  15.989 -0.1743  0.4483 -0.3559
 7597TIP3    H144206   4.878   1.083  15.903 -3.1158 -0.3895 -1.6487
 7597TIP3    H244207   4.817   1.127  16.034  1.5525  0.9331  0.2950
 7598TIP3   OH244208   0.681   5.522  15.686  0.4793  0.2855 -0.0376
 7598TIP3    H144209   0.600   5.482  15.720  0.4936  0.0163 -0.3083
 7598TIP3    H244210   0.656   5.556  15.600  0.0963  2.1671  0.7793
 7599TIP3   OH244211   0.541   4.678  14.732  0.2404 -0.0622  0.2409
 7599TIP3    H144212   0.573   4.766  14.710  1.9904 -0.3271  1.4481
 7599TIP3    H244213   0.515   4.640  14.648 -1.3416  1.8636 -0.2036
 7600TIP3   OH244214   5.988   4.317   4.134  0.3545 -0.0243  0.2308
 7600TIP3    H144215   5.920   4.288   4.074 -0.8132 -1.2072  2.0391
 7600TIP3    H244216   5.966   4.277   4.218  2.6072  0.5461  1.1884
 7601TIP3   OH244217   5.705   2.203  15.892  0.0208 -0.4647  0.4218
 7601TIP3    H144218   5.765   2.212  15.818 -0.0576 -0.5492  0.3477
 7601TIP3    H244219   5.756   2.231  15.968 -0.1632  0.4354  0.2240
 7602TIP3   OH244220   0.500   3.085   4.656  0.0956  0.3763  0.2256
 7602TIP3    H144221   0.499   3.097   4.751  1.0389 -0.6039  0.3810
 7602TIP3    H244222   0.542   3.164   4.622 -1.0618  1.1373  0.5379
 7603TIP3   OH244223   4.979   6.651  13.658 -0.2113 -0.2163 -0.2547
 7603TIP3    H144224   4.997   6.583  13.594  0.0292 -0.6589  0.2818
 7603TIP3    H244225   4.907   6.701  13.620 -1.1216 -1.4234 -0.1674
 7604TIP3   OH244226   3.924   3.909  11.301  0.1729 -0.4236  0.0579
 7604TIP3    H144227   3.943   3.829  11.253  0.2289 -0.1550 -0.3753
 7604TIP3    H244228   3.843   3.943  11.261 -0.5402 -0.8908  1.0404
 7605TIP3   OH244229   0.132   3.588  12.105 -0.6281  0.1819 -0.5365
 7605TIP3    H144230   0.163   3.549  12.186  0.1916 -1.3886 -1.5608
 7605TIP3    H244231   0.204   3.577  12.043 -0.4797  3.0521 -1.0105
 7606TIP3   OH244232   6.317   3.797  16.433 -0.1153  0.0483  0.5358
 7606TIP3    H144233   6.243   3.845  16.469 -1.1198 -1.0347 -0.0109
 7606TIP3    H244234   6.350   3.745  16.506  0.8682  1.3813  1.0838
 7607TIP3   OH244235   5.005   1.236  11.322 -0.2683  0.4505 -0.5484
 7607TIP3    H144236   5.021   1.322  11.361 -0.3739  0.8430 -1.3380
 7607TIP3    H244237   5.003   1.175  11.396  1.0330  0.9452 -0.0786
 7608TIP3   OH244238   4.923   0.226  11.455 -0.3013 -0.1653 -0.5338
 7608TIP3    H144239   5.001   0.223  11.399 -0.4564  3.2168 -1.1117
 7608TIP3    H244240   4.850   0.224  11.393 -0.5794 -0.0955 -0.2090
 7609TIP3   OH244241   0.556   4.334   0.536 -0.0713  0.2870 -0.8307
 7609TIP3    H144242   0.571   4.343   0.442 -2.0134  0.0913 -1.2108
 7609TIP3    H244243   0.489   4.399   0.556  2.5870  2.6515  1.1399
 7610TIP3   OH244244   0.022   0.439  12.505 -0.4588 -0.3173  0.0530
 7610TIP3    H144245   0.025   0.393  12.421  1.1737 -1.2584  0.5780
 7610TIP3    H244246   0.109   0.478  12.514 -1.4699  2.0687  0.1143
 7611TIP3   OH244247   6.092   3.798  14.041 -0.0065 -0.4782 -0.1263
 7611TIP3    H144248   6.150   3.723  14.024 -0.9177 -1.1046 -0.5888
 7611TIP3    H244249   6.141   3.854  14.100  1.6102 -0.3388 -1.5316
 7612TIP3   OH244250   3.915   5.841  12.962 -0.3335 -0.0436  0.3976
 7612TIP3    H144251   3.972   5.765  12.947 -0.3258  0.1483 -0.5743
 7612TIP3    H244252   3.960   5.913  12.919 -1.7103 -0.0494 -1.1593
 7613TIP3   OH244253   5.838   6.177   0.141 -0.0316 -0.8793  0.1128
 7613TIP3    H144254   5.925   6.141   0.128 -0.7250 -2.4161 -0.5429
 7613TIP3    H244255   5.821   6.230   0.063 -0.0120 -1.2607 -0.1494
 7614TIP3   OH244256   4.165   5.131  12.275  0.2804 -0.3382 -0.1492
 7614TIP3    H144257   4.086   5.078  12.285 -1.1499  1.6579 -0.1933
 7614TIP3    H244258   4.202   5.137  12.363 -1.3454  1.1333  0.5092
 7615TIP3   OH244259   2.406   1.335   1.780 -0.5007  0.2979 -0.4885
 7615TIP3    H144260   2.345   1.398   1.818 -0.4004 -0.0846  0.3283
 7615TIP3    H244261   2.381   1.330   1.688 -1.8013  0.0275 -0.1389
 7616TIP3   OH244262   5.774   3.670  11.953  0.1800 -0.1143 -0.6051
 7616TIP3    H144263   5.848   3.618  11.923  0.3548  1.1145 -2.5252
 7616TIP3    H244264   5.797   3.760  11.931 -1.3180  0.4488 -0.0272
 7617TIP3   OH244265   2.834   3.450  16.234  0.3364 -0.0704 -0.0912
 7617TIP3    H144266   2.910   3.443  16.176 -0.0766  0.8413 -0.7687
 7617TIP3    H244267   2.866   3.497  16.310  0.2774  1.0733 -0.7444
 7618TIP3   OH244268   3.162   6.389  11.468 -0.2012  0.2122 -0.0483
 7618TIP3    H144269   3.166   6.303  11.508  1.4129  1.0282  1.6704
 7618TIP3    H244270   3.180   6.373  11.375 -1.2055 -1.4030 -0.0039
 7619TIP3   OH244271   4.759   4.472  12.870  0.7501 -0.0100 -0.1343
 7619TIP3    H144272   4.824   4.459  12.801 -2.1728 -2.1025 -2.8292
 7619TIP3    H244273   4.716   4.555  12.848  0.6665 -0.0398 -0.0864
 7620TIP3   OH244274   6.441   6.490   1.911 -0.3659 -0.2248  0.0992
 7620TIP3    H144275   6.504   6.510   1.843 -0.2162  1.9267  0.8093
 7620TIP3    H244276   6.424   6.396   1.902  0.4031 -0.1817 -2.2108
 7621TIP3   OH244277   4.416   2.624  13.280  0.5022 -0.1051  0.1155
 7621TIP3    H144278   4.387   2.578  13.201 -0.4709 -0.7347  0.8203
 7621TIP3    H244279   4.509   2.602  13.287  0.5811 -0.0946 -0.8144
 7622TIP3   OH244280   5.216   3.431  16.971  0.1774 -0.1788  0.2480
 7622TIP3    H144281   5.126   3.411  16.947  0.1892 -1.0526  0.8725
 7622TIP3    H244282   5.267   3.410  16.892 -0.2400  1.1783 -0.4094
 7623TIP3   OH244283   5.217   3.332  17.253  0.2910 -0.1109 -0.4643
 7623TIP3    H144284   5.123   3.334  17.237  0.2895 -1.2068 -0.6623
 7623TIP3    H244285   5.256   3.365  17.172  0.0580  1.8555  0.1699
 7624TIP3   OH244286   0.574   3.361  13.681 -0.6191 -0.3617  0.0954
 7624TIP3    H144287   0.566   3.296  13.751 -2.9636 -0.7624 -0.4410
 7624TIP3    H244288   0.534   3.318  13.605 -0.8135  1.1472 -0.6901
 7625TIP3   OH244289   1.888   6.337   6.721 -0.4418 -0.5428 -0.1606
 7625TIP3    H144290   1.833   6.268   6.758  1.9478 -2.7620 -0.5281
 7625TIP3    H244291   1.840   6.366   6.644 -2.0703 -0.9122  0.6670
 7626TIP3   OH244292   1.266   1.645  11.068  0.2112 -0.3908 -0.6622
 7626TIP3    H144293   1.239   1.593  10.992 -1.6962 -1.2737  0.5641
 7626TIP3    H244294   1.351   1.681  11.043 -0.1935 -0.9402 -3.0740
 7627TIP3   OH244295   0.122   6.664  16.519  0.2549 -0.2040  0.1846
 7627TIP3    H144296   0.199   6.619  16.555  1.3883  1.0091 -0.6247
 7627TIP3    H244297   0.152   6.700  16.436 -0.9219  1.0798  0.2802
 7628TIP3   OH244298   4.509   5.122   2.048 -0.4310  0.3109  0.4245
 7628TIP3    H144299   4.500   5.031   2.022  0.1339  0.1035  0.9298
 7628TIP3    H244300   4.421   5.150   2.071 -0.5197 -0.2683  0.7831
 7629TIP3   OH244301   0.384   2.066   0.727 -0.2104  0.3649  0.3553
 7629TIP3    H144302   0.361   2.031   0.641 -2.5878 -0.7802  1.3733
 7629TIP3    H244303   0.461   2.016   0.754 -0.3372 -0.2947 -0.4791
 7630TIP3   OH244304   0.955   3.084  13.614 -0.5734  0.2126 -0.3988
 7630TIP3    H144305   0.860   3.068  13.622 -0.3632 -0.4663  1.2583
 7630TIP3    H244306   0.970   3.095  13.520 -2.0851 -1.0315 -0.8263
 7631TIP3   OH244307   1.150   5.143  11.979 -0.6517 -0.1209 -0.3530
 7631TIP3    H144308   1.217   5.084  12.014 -1.9879 -1.4123  0.1301
 7631TIP3    H244309   1.144   5.122  11.886 -0.3391  0.0594 -0.4147
 7632TIP3   OH244310   0.785   4.853  14.440  0.6690  0.4202 -0.5089
 7632TIP3    H144311   0.760   4.879  14.528  0.7343  0.8202 -0.6052
 7632TIP3    H244312   0.799   4.758  14.445 -0.6534  0.2205 -0.4091
 7633TIP3   OH244313   3.149   5.562   0.743  0.0409  0.0379  0.3125
 7633TIP3    H144314   3.219   5.583   0.681  1.2845 -2.6577  0.6754
 7633TIP3    H244315   3.069   5.564   0.691  0.3434  2.8058 -0.2036
 7634TIP3   OH244316   6.344   3.026  13.988  0.2584  0.0911  0.4417
 7634TIP3    H144317   6.387   3.076  13.918  0.6964 -0.9273 -0.0237
 7634TIP3    H244318   6.415   3.001  14.046  0.0525 -0.0972  0.6106
 7635TIP3   OH244319   0.085   5.775  13.797 -0.0643  0.4222  0.5685
 7635TIP3    H144320   0.065   5.728  13.716  0.1749  1.0701  0.1276
 7635TIP3    H244321   0.119   5.860  13.768 -1.8349  1.4581  1.3252
 7636TIP3   OH244322   2.543   3.315   4.366 -0.1330 -0.2718 -0.7532
 7636TIP3    H144323   2.557   3.232   4.321  0.1790  0.1569 -1.4684
 7636TIP3    H244324   2.537   3.292   4.459 -2.9062 -1.4536 -1.1378
 7637TIP3   OH244325   1.482   1.211   6.487  0.2425  0.1730  0.6683
 7637TIP3    H144326   1.439   1.195   6.403  1.6038  1.3798 -0.3214
 7637TIP3    H244327   1.489   1.124   6.527  0.4954 -0.6130 -0.9579
 7638TIP3   OH244328   0.424   3.258  16.848  0.1852 -0.4770  0.1071
 7638TIP3    H144329   0.484   3.330  16.868  0.7530 -0.5423 -1.2249
 7638TIP3    H244330   0.440   3.194  16.917 -0.4296  0.7153  1.3887
 7639TIP3   OH244331   5.648   2.196  13.444 -0.2413  0.2715  0.1258
 7639TIP3    H144332   5.598   2.118  13.418  1.7429 -0.5474 -1.5483
 7639TIP3    H244333   5.647   2.252  13.365 -1.7403  2.0791  1.3311
 7640TIP3   OH244334   5.740   4.046  13.927  0.0060 -0.0841  0.2360
 7640TIP3    H144335   5.692   4.018  13.850 -1.3841 -3.1097  1.9996
 7640TIP3    H244336   5.691   4.121  13.961 -1.7130 -1.1658  0.2567
 7641TIP3   OH244337   1.815   2.107   2.792 -0.1124 -0.6797  0.0224
 7641TIP3    H144338   1.854   2.040   2.736 -1.3677 -0.5998 -1.0211
 7641TIP3    H244339   1.888   2.147   2.838  1.0270 -0.5314 -1.8276
 7642TIP3   OH244340   2.593   1.239  11.462  0.6767 -0.5995  0.0271
 7642TIP3    H144341   2.659   1.302  11.491  1.8836 -2.4363  1.4976
 7642TIP3    H244342   2.519   1.253  11.521  0.7501 -0.2420  0.0388
 7643TIP3   OH244343   2.583   0.487   5.832  0.4284  0.0697 -0.2582
 7643TIP3    H144344   2.513   0.428   5.860 -1.2860  2.2312  0.2577
 7643TIP3    H244345   2.624   0.517   5.913 -1.2522  2.4519 -0.1782
 7644TIP3   OH244346   4.600   2.646  15.905  0.0815 -0.5662 -0.0003
 7644TIP3    H144347   4.689   2.637  15.870  0.5756 -0.8426  1.2716
 7644TIP3    H244348   4.598   2.587  15.981 -0.8684  0.1887  0.5845
 7645TIP3   OH244349   4.191   5.300   3.456  1.1076 -0.2102 -0.0251
 7645TIP3    H144350   4.234   5.317   3.372  0.8206  2.1537  0.2341
 7645TIP3    H244351   4.153   5.384   3.481 -3.9604 -2.0306 -0.3829
 7646TIP3   OH244352   3.925   2.823   4.190 -0.6495 -0.2897 -0.0957
 7646TIP3    H144353   3.958   2.819   4.100  0.6346 -1.2228  0.3837
 7646TIP3    H244354   3.978   2.759   4.237 -1.6410 -0.1688  1.2284
 7647TIP3   OH244355   6.332   2.760   3.817 -0.0332 -0.5690  0.3174
 7647TIP3    H144356   6.384   2.701   3.762 -0.2540  0.5856 -1.1940
 7647TIP3    H244357   6.392   2.832   3.837 -0.0801 -0.7901  1.3021
 7648TIP3   OH244358   2.600   0.079  15.000  0.0312  0.0317 -0.3143
 7648TIP3    H144359   2.666   0.145  14.981  0.7089 -0.6989 -0.5882
 7648TIP3    H244360   2.525   0.104  14.946 -0.1569  1.2198  0.4680
 7649TIP3   OH244361   1.923   0.208  11.353  0.3551  0.4094  0.2421
 7649TIP3    H144362   1.860   0.279  11.341 -0.7132 -0.7419 -1.3695
 7649TIP3    H244363   1.979   0.213  11.276  1.7939  0.9299  1.2836
 7650TIP3   OH244364   4.398   6.726  12.138 -0.3837  0.5848  0.0179
 7650TIP3    H144365   4.338   6.709  12.064 -0.5701  0.2276  0.2456
 7650TIP3    H244366   4.344   6.712  12.216 -0.8708  3.3581  0.2674
 7651TIP3   OH244367   4.002   6.179   0.314 -0.6059  0.4957  0.3351
 7651TIP3    H144368   3.997   6.188   0.409 -3.3319  3.9156  0.0409
 7651TIP3    H244369   3.912   6.166   0.285 -0.0258  0.8846 -1.8734
 7652TIP3   OH244370   2.174   2.487  16.466  0.5712 -0.9172  0.5208
 7652TIP3    H144371   2.202   2.460  16.379 -2.2020 -1.8674 -0.2005
 7652TIP3    H244372   2.168   2.582  16.462 -2.8011 -1.0321 -1.6307
 7653TIP3   OH244373   3.142   0.868  14.243  0.9900  0.4654  0.0073
 7653TIP3    H144374   3.073   0.802  14.234 -0.4378  1.8653  0.3005
 7653TIP3    H244375   3.216   0.819  14.279 -0.9365 -0.5083  3.1329
 7654TIP3   OH244376   4.060   6.303   2.211  0.0246  0.1068 -0.2838
 7654TIP3    H144377   3.984   6.267   2.165 -0.4041 -0.3605  0.7605
 7654TIP3    H244378   4.075   6.242   2.284  1.1232  0.4412 -0.2104
 7655TIP3   OH244379   2.399   6.007  13.693  0.2338  0.2657 -0.1993
 7655TIP3    H144380   2.480   6.050  13.666  0.4434 -1.0939 -1.9272
 7655TIP3    H244381   2.346   6.077  13.730  2.3226  1.1443  1.3614
 7656TIP3   OH244382   2.439   5.974   4.389 -0.0785  0.5657  0.5781
 7656TIP3    H144383   2.474   6.061   4.404  0.9521  0.1486  0.6748
 7656TIP3    H244384   2.516   5.917   4.383 -0.4904  0.1573 -3.0217
 7657TIP3   OH244385   6.652   2.680   1.109 -0.8273  0.1098  0.0673
 7657TIP3    H144386   6.710   2.754   1.124 -0.8410 -0.1852  1.9216
 7657TIP3    H244387   6.711   2.606   1.093 -0.7544  0.9843 -5.7097
 7658TIP3   OH244388   1.244   0.996   2.455 -0.4120  1.0513 -0.8468
 7658TIP3    H144389   1.302   1.012   2.529 -0.2188  0.6569 -0.9100
 7658TIP3    H244390   1.180   1.067   2.458 -1.2874  0.2364  0.5645
 7659TIP3   OH244391   6.006   1.647  12.088 -1.0054 -0.0934 -0.1530
 7659TIP3    H144392   5.950   1.705  12.036 -1.1281 -0.2827 -0.2359
 7659TIP3    H244393   6.051   1.705  12.150 -0.6571  0.1633 -0.6487
 7660TIP3   OH244394   4.827   0.957  15.102  0.4103  0.8764 -0.7053
 7660TIP3    H144395   4.913   0.990  15.077  1.0582  0.8736  1.3241
 7660TIP3    H244396   4.799   1.015  15.174 -0.9099  0.3684 -0.7856
 7661TIP3   OH244397   4.957   1.323   3.948 -0.1122  0.0096  0.2466
 7661TIP3    H144398   4.992   1.310   3.859 -0.0414  0.4947  0.2028
 7661TIP3    H244399   4.952   1.235   3.984  1.7992 -0.0321  0.5110
 7662TIP3   OH244400   4.937   1.337  13.768 -0.2478  0.2987 -0.4728
 7662TIP3    H144401   4.916   1.247  13.744  0.2602  0.4105 -1.3657
 7662TIP3    H244402   4.970   1.330  13.858  0.7599 -0.5582 -0.8858
 7663TIP3   OH244403   4.931   4.020  11.527 -0.0464 -0.2803  0.1666
 7663TIP3    H144404   5.009   4.038  11.474 -1.8015 -0.1869 -2.5678
 7663TIP3    H244405   4.926   3.924  11.530  0.6866 -0.3022  1.2283
 7664TIP3   OH244406   4.544   5.114   0.322  0.1643  0.2183  0.2275
 7664TIP3    H144407   4.485   5.071   0.385 -0.1138  1.8425  1.1264
 7664TIP3    H244408   4.501   5.101   0.237 -1.4188  1.1317  0.8321
 7665TIP3   OH244409   6.549   4.112  11.959  0.1370  0.5178  0.0683
 7665TIP3    H144410   6.569   4.076  11.872  0.3325 -2.1411  1.1043
 7665TIP3    H244411   6.468   4.162  11.947 -0.1848 -0.3309 -1.5434
 7666TIP3   OH244412   5.226   1.532   0.556  0.1373 -0.3704  0.1425
 7666TIP3    H144413   5.269   1.516   0.472 -0.2139  0.8361 -0.2818
 7666TIP3    H244414   5.178   1.613   0.544 -1.6056 -1.2360  0.8701
 7667TIP3   OH244415   4.793   0.544   3.863  0.6485 -0.1505 -0.3907
 7667TIP3    H144416   4.737   0.467   3.857 -0.4855  0.7176 -1.5719
 7667TIP3    H244417   4.869   0.515   3.914 -0.8884 -1.3606  1.3515
 7668TIP3   OH244418   5.749   2.870  15.239  0.1171 -0.8271  0.2283
 7668TIP3    H144419   5.702   2.951  15.258 -1.3239 -0.9307 -2.4696
 7668TIP3    H244420   5.817   2.895  15.178 -0.1806 -1.5952 -0.4325
 7669TIP3   OH244421   6.445   2.365  12.093 -0.0553  0.2877 -0.1817
 7669TIP3    H144422   6.365   2.410  12.065 -1.0376 -1.1888  0.1238
 7669TIP3    H244423   6.458   2.394  12.183 -1.5258 -1.0561  0.5326
 7670TIP3   OH244424   1.337   4.473  17.182  0.0894 -0.1450 -0.5725
 7670TIP3    H144425   1.374   4.387  17.201  1.1430  0.3809 -0.1581
 7670TIP3    H244426   1.311   4.468  17.090  0.8263 -0.6796 -0.7607
 7671TIP3   OH244427   3.178   5.337   3.130  0.4080 -0.7785  0.2097
 7671TIP3    H144428   3.090   5.304   3.146 -0.6152  1.5767 -0.0939
 7671TIP3    H244429   3.166   5.407   3.066  2.2212  0.7447  1.4103
 7672TIP3   OH244430   2.058   2.175   3.412  0.0796  0.6976 -0.2834
 7672TIP3    H144431   2.007   2.173   3.331  1.9683  0.5224 -1.5419
 7672TIP3    H244432   2.012   2.116   3.471 -0.9246  0.1949 -1.5171
 7673TIP3   OH244433   2.343   3.507   0.296 -0.4350 -0.1760  0.4056
 7673TIP3    H144434   2.374   3.418   0.275 -0.1758  0.0919 -0.3743
 7673TIP3    H244435   2.349   3.554   0.213 -0.2673  0.6644  0.8917
 7674TIP3   OH244436   6.462   5.398  12.903  0.3075  0.4806 -0.2067
 7674TIP3    H144437   6.387   5.458  12.909  0.2152  0.2501  1.1685
 7674TIP3    H244438   6.423   5.314  12.882  0.2429  0.4944 -0.1435
 7675TIP3   OH244439   4.319   0.986  17.242  0.3284  0.3193  0.4805
 7675TIP3    H144440   4.324   1.061  17.302 -1.1696 -0.1794  1.2840
 7675TIP3    H244441   4.391   1.000  17.181  1.5382  1.1703  2.0258
 7676TIP3   OH244442   2.124   2.076   0.349 -0.7827 -0.2390  0.7986
 7676TIP3    H144443   2.113   2.041   0.261 -0.4837  0.1017  0.6221
 7676TIP3    H244444   2.128   1.999   0.406  2.0408 -0.6304  0.1983
 7677TIP3   OH244445   4.961   3.114  14.770  0.0238  0.1010  0.4181
 7677TIP3    H144446   4.890   3.091  14.831 -1.8889 -0.3388 -1.8310
 7677TIP3    H244447   4.994   3.030  14.739  1.3194  0.3174  1.1547
 7678TIP3   OH244448   6.550   6.082   2.740  0.6241 -0.3524  0.2086
 7678TIP3    H144449   6.535   6.073   2.834  0.7242  0.5641  0.3232
 7678TIP3    H244450   6.599   6.164   2.732  1.2455 -0.7882 -0.5812
 7679TIP3   OH244451   5.493   3.359  12.064  0.3792  0.5790  0.4439
 7679TIP3    H144452   5.515   3.330  12.153  2.2447  0.5733  0.0284
 7679TIP3    H244453   5.398   3.354  12.060  0.2452  0.7227  2.4849
 7680TIP3   OH244454   3.110   3.780  12.836  0.0416  0.0029 -0.3466
 7680TIP3    H144455   3.083   3.860  12.882  0.4743 -0.2583  0.3678
 7680TIP3    H244456   3.115   3.713  12.904  1.6874 -0.1589 -0.5844
 7681TIP3   OH244457   3.363   6.733   2.205 -0.2704 -0.4340  0.3870
 7681TIP3    H144458   3.308   6.746   2.127 -0.5906 -1.6122  0.4040
 7681TIP3    H244459   3.453   6.741   2.173 -0.3575 -2.0320 -0.3483
 7682TIP3   OH244460   3.250   2.975   2.303 -0.5962  0.9282  0.2003
 7682TIP3    H144461   3.259   2.942   2.213 -0.8161 -0.8448  0.7882
 7682TIP3    H244462   3.328   3.030   2.317  0.1830  0.0508 -0.5956
 7683TIP3   OH244463   2.916   2.479  15.490  0.5089 -0.0529  0.1525
 7683TIP3    H144464   2.848   2.450  15.551  0.5416 -0.7839 -0.1523
 7683TIP3    H244465   2.964   2.546  15.538 -0.6240  0.7112  0.2625
 7684TIP3   OH244466   5.092   5.337  17.332  0.0856  0.1072  0.5285
 7684TIP3    H144467   5.178   5.312  17.298  0.2656 -0.2137  1.1998
 7684TIP3    H244468   5.068   5.414  17.281 -0.1796 -1.0143 -1.1453
 7685TIP3   OH244469   0.819   4.143   3.038  0.2373 -0.6731  0.0055
 7685TIP3    H144470   0.818   4.227   3.085 -0.0327  0.2670 -1.6256
 7685TIP3    H244471   0.774   4.083   3.097  2.5035 -0.3330  2.2870
 7686TIP3   OH244472   4.744   2.995  10.911  0.4273  0.1808 -0.1590
 7686TIP3    H144473   4.666   3.049  10.904 -1.2021 -1.8039  1.4685
 7686TIP3    H244474   4.724   2.916  10.861  1.3567 -0.3876  0.3261
 7687TIP3   OH244475   2.233   5.813  15.156 -0.1850  0.5008 -0.3415
 7687TIP3    H144476   2.293   5.744  15.185 -1.1437 -0.5271 -0.7437
 7687TIP3    H244477   2.275   5.894  15.184  0.0577 -0.3215  1.8376
 7688TIP3   OH244478   1.254   0.201   2.850 -0.0117  0.0574  0.3145
 7688TIP3    H144479   1.328   0.188   2.790 -0.3403 -0.2871 -0.0169
 7688TIP3    H244480   1.252   0.296   2.864  0.9687  0.0109  0.9422
 7689TIP3   OH244481   6.404   3.309  13.464 -0.0640  0.4049  0.2118
 7689TIP3    H144482   6.373   3.395  13.495 -0.2420  1.0552 -1.6631
 7689TIP3    H244483   6.364   3.299  13.378  1.5062 -0.7079 -0.4156
 7690TIP3   OH244484   5.730   2.098   6.249  0.1223 -0.1766 -0.3994
 7690TIP3    H144485   5.707   2.084   6.340 -0.8521  0.5243 -0.5162
 7690TIP3    H244486   5.667   2.046   6.199 -0.3370  0.6351 -0.6943
 7691TIP3   OH244487   3.927   5.290  16.400 -0.2703 -0.4497  0.0948
 7691TIP3    H144488   3.868   5.238  16.454  0.7626 -0.7714  0.9549
 7691TIP3    H244489   4.001   5.310  16.458 -0.9958  2.7513  0.1067
 7692TIP3   OH244490   5.532   0.689   3.454  0.3343 -0.6951  0.2574
 7692TIP3    H144491   5.494   0.603   3.471 -2.0224  0.4266  0.9676
 7692TIP3    H244492   5.506   0.710   3.364  0.8921 -0.7095  0.0891
 7693TIP3   OH244493   1.939   3.463   6.407  0.1419 -0.1551  0.1774
 7693TIP3    H144494   1.899   3.494   6.325  1.0876 -1.0187 -0.6413
 7693TIP3    H244495   1.869   3.415   6.451 -0.0071 -0.8481 -0.7862
 7694TIP3   OH244496   3.687   2.619  17.316  0.3655  0.0382  0.4345
 7694TIP3    H144497   3.645   2.643  17.398 -0.4760  1.0803 -0.2778
 7694TIP3    H244498   3.614   2.595  17.258  0.8479  0.5503 -0.3973
 7695TIP3   OH244499   1.966   2.927  14.948 -0.2099 -0.0416 -0.0369
 7695TIP3    H144500   1.888   2.929  15.004  1.2728  1.8976  2.1811
 7695TIP3    H244501   2.013   3.008  14.970  4.6096 -2.9655  2.1131
 7696TIP3   OH244502   4.254   3.730  12.043  0.5454 -0.2010  0.1835
 7696TIP3    H144503   4.222   3.668  12.110 -0.4646 -2.3863 -2.1616
 7696TIP3    H244504   4.331   3.687  12.006  0.1537  0.2003 -1.1181
 7697TIP3   OH244505   2.959   2.262  17.322  0.0608  0.0615 -0.1666
 7697TIP3    H144506   3.005   2.343  17.299 -0.6015  0.6011  0.3767
 7697TIP3    H244507   2.871   2.291  17.346 -0.0587 -0.7823  0.4251
 7698TIP3   OH244508   6.076   4.127   2.343 -0.8698 -0.4672  0.6841
 7698TIP3    H144509   6.062   4.189   2.415  2.7925  0.5369  0.7429
 7698TIP3    H244510   6.081   4.182   2.265  0.7887 -0.8110  0.5139
 7699TIP3   OH244511   6.626   1.535   1.467 -0.6116 -0.3921 -0.1676
 7699TIP3    H144512   6.692   1.543   1.536 -0.8689  0.3873 -0.0033
 7699TIP3    H244513   6.668   1.480   1.401 -0.7329 -2.0074  1.0467
 7700TIP3   OH244514   5.013   1.482   3.143  0.4738  0.8585  0.2253
 7700TIP3    H144515   4.977   1.522   3.064 -0.7788  2.3545  1.4962
 7700TIP3    H244516   5.106   1.504   3.141  0.9796 -0.9802 -1.8646
 7701TIP3   OH244517   4.621   6.658  17.019  0.7113 -0.2803  0.2737
 7701TIP3    H144518   4.609   6.691  17.109 -1.6420  0.2318 -0.1673
 7701TIP3    H244519   4.544   6.689  16.972  2.1220 -0.1248 -2.0863
 7702TIP3   OH244520   1.288   3.248  14.321  0.1560  0.2775  0.0675
 7702TIP3    H144521   1.307   3.182  14.255  0.9093 -0.3017  0.8359
 7702TIP3    H244522   1.347   3.227  14.394 -0.8384  0.7139  1.0335
 7703TIP3   OH244523   3.554   4.024  15.801 -0.0801 -0.2276  0.2257
 7703TIP3    H144524   3.465   3.989  15.797 -0.0931 -0.1571 -0.1522
 7703TIP3    H244525   3.610   3.948  15.818 -0.3580 -0.0509  2.1432
 7704TIP3   OH244526   2.086   0.243  14.744  0.0934  0.3086 -0.0193
 7704TIP3    H144527   2.178   0.231  14.723 -0.5457 -2.7043 -1.7270
 7704TIP3    H244528   2.052   0.298  14.674  0.1835 -0.4668 -0.6889
 7705TIP3   OH244529   6.559   0.667  12.097  0.5690 -0.2408  0.3905
 7705TIP3    H144530   6.576   0.607  12.024  2.0175  0.1316  0.3916
 7705TIP3    H244531   6.637   0.722  12.102  0.0092  0.5004  1.5069
 7706TIP3   OH244532   1.092   2.852   1.765  0.0461 -0.1284 -0.1756
 7706TIP3    H144533   1.047   2.835   1.682  0.5812 -1.8237 -0.1673
 7706TIP3    H244534   1.176   2.889   1.740 -0.3510  0.6940 -0.3132
 7707TIP3   OH244535   3.223   1.212   3.627 -0.2398  0.2003 -0.5770
 7707TIP3    H144536   3.131   1.225   3.604 -1.0749 -0.4835  2.0243
 7707TIP3    H244537   3.252   1.140   3.572 -2.2857 -1.7736  0.7362
 7708TIP3   OH244538   2.544   6.489  17.128 -0.1075  0.0159 -0.1864
 7708TIP3    H144539   2.530   6.454  17.040 -0.0190  0.5753 -0.4290
 7708TIP3    H244540   2.591   6.420  17.175  1.1703  0.2778 -1.0271
 7709TIP3   OH244541   5.782   0.786   1.525 -0.2517 -0.2554 -0.5466
 7709TIP3    H144542   5.717   0.833   1.577 -1.0803 -1.9038 -0.0196
 7709TIP3    H244543   5.842   0.854   1.493 -1.8040  1.2111 -0.4387
 7710TIP3   OH244544   1.892   3.839   6.758  0.1662  0.6156 -0.5662
 7710TIP3    H144545   1.956   3.907   6.737  2.3946 -1.6243 -1.4018
 7710TIP3    H244546   1.942   3.773   6.806 -1.5726 -1.0944 -0.9984
 7711TIP3   OH244547   5.075   5.819   0.650 -0.4476  0.0139  0.0712
 7711TIP3    H144548   5.113   5.812   0.737 -3.0007  0.7717  1.3655
 7711TIP3    H244549   4.995   5.766   0.655 -0.3331 -0.4327 -2.0335
 7712TIP3   OH244550   3.551   5.064  12.629 -0.4068  0.0975  0.8597
 7712TIP3    H144551   3.539   5.047  12.535 -0.0416 -1.0715  1.0068
 7712TIP3    H244552   3.603   5.144  12.632 -0.9376  0.4884  0.0790
 7713TIP3   OH244553   6.226   2.701   0.211 -0.2073 -0.0713  0.0030
 7713TIP3    H144554   6.151   2.679   0.156 -0.3473  0.4477 -0.0209
 7713TIP3    H244555   6.203   2.786   0.250  0.9535  0.7787 -1.0899
 7714TIP3   OH244556   5.263   3.191  12.943 -0.2382 -0.0778 -0.4087
 7714TIP3    H144557   5.354   3.179  12.915 -0.1627 -1.4879  0.3643
 7714TIP3    H244558   5.253   3.286  12.952  1.2255  0.0811 -0.2941
 7715TIP3   OH244559   4.361   3.132   1.893 -0.5487  0.1542 -0.1681
 7715TIP3    H144560   4.431   3.188   1.925  1.3082 -0.6297 -2.6065
 7715TIP3    H244561   4.309   3.112   1.971  1.4941  1.3654  1.6023
 7716TIP3   OH244562   5.964   0.620   4.478  0.3970  0.4928  0.0897
 7716TIP3    H144563   5.930   0.597   4.392  0.3063  1.8516 -0.2607
 7716TIP3    H244564   6.045   0.569   4.486  1.9036  2.3779 -2.0048
 7717TIP3   OH244565   4.237   4.057  13.808  0.0504 -0.5823 -0.0612
 7717TIP3    H144566   4.163   4.103  13.849  1.4509  1.0697  0.7399
 7717TIP3    H244567   4.295   4.036  13.881  1.6960  0.7082 -0.9195
 7718TIP3   OH244568   1.242   6.069   3.988  0.7746 -0.1354  0.2579
 7718TIP3    H144569   1.233   5.976   3.969 -0.2704  0.0738 -0.3122
 7718TIP3    H244570   1.168   6.090   4.043  0.6233  0.4996 -0.1739
 7719TIP3   OH244571   6.436   2.772  14.671  0.0720  0.5236  0.5393
 7719TIP3    H144572   6.443   2.820  14.754 -0.1516  0.3128  0.6799
 7719TIP3    H244573   6.514   2.799  14.622  0.7606 -0.1580  1.2395
 7720TIP3   OH244574   2.884   5.215   4.065  0.3920  0.0777 -0.7585
 7720TIP3    H144575   2.926   5.180   3.986  0.2096  0.4775 -1.0382
 7720TIP3    H244576   2.929   5.172   4.137  0.2724 -0.6173 -1.0918
 7721TIP3   OH244577   0.294   5.744  16.093 -0.0388  0.2568 -0.3531
 7721TIP3    H144578   0.375   5.693  16.084  0.7420  1.3245  0.3781
 7721TIP3    H244579   0.303   5.789  16.176 -0.3150  2.2405 -1.3297
 7722TIP3   OH244580   2.237   4.672  15.424 -0.3656  0.1277 -0.7675
 7722TIP3    H144581   2.153   4.714  15.403 -0.3361 -0.0568 -1.2688
 7722TIP3    H244582   2.273   4.647  15.339 -0.6626 -1.4496 -0.4527
 7723TIP3   OH244583   4.303   3.231   4.743 -0.2890  0.5449  1.0344
 7723TIP3    H144584   4.341   3.306   4.698 -1.7059 -0.7806 -2.7648
 7723TIP3    H244585   4.209   3.238   4.727 -0.6851 -1.0150  2.3766
 7724TIP3   OH244586   0.874   5.004  11.307 -0.3330 -0.9977 -0.7429
 7724TIP3    H144587   0.842   5.053  11.232  0.5323  1.9325  0.6382
 7724TIP3    H244588   0.795   4.984  11.358 -0.6026  1.4514 -0.0357
 7725TIP3   OH244589   5.345   5.009  14.203  0.3928  0.2704 -0.2979
 7725TIP3    H144590   5.330   5.103  14.208  0.7810  0.3946 -1.3175
 7725TIP3    H244591   5.293   4.973  14.275 -0.9219  1.1169 -0.7843
 7726TIP3   OH244592   2.901   3.169  14.184  0.1863 -0.5844 -0.7972
 7726TIP3    H144593   2.989   3.203  14.170 -0.0132  0.2764 -0.0241
 7726TIP3    H244594   2.913   3.074  14.192  1.2786 -0.3545  0.8948
 7727TIP3   OH244595   6.448   2.042  17.268 -0.1152  0.1664 -0.1911
 7727TIP3    H144596   6.540   2.022  17.283  0.2040  0.0631 -2.0642
 7727TIP3    H244597   6.449   2.122  17.216 -1.0504 -0.3158 -0.9818
 7728TIP3   OH244598   3.102   5.586   6.599 -0.2598 -0.4941  0.2520
 7728TIP3    H144599   3.031   5.568   6.537 -2.4719  0.1342  2.4596
 7728TIP3    H244600   3.064   5.647   6.662  2.6355  0.7735  0.9264
 7729TIP3   OH244601   4.172   1.637   4.118  0.3832 -0.3624 -0.3184
 7729TIP3    H144602   4.194   1.625   4.025 -0.2933  0.1758 -0.5613
 7729TIP3    H244603   4.091   1.688   4.116  0.9167  0.5423  0.5898
 7730TIP3   OH244604   2.820   2.551   6.239  0.1491 -0.0979 -0.7351
 7730TIP3    H144605   2.750   2.588   6.293 -0.3954 -0.0077 -1.4891
 7730TIP3    H244606   2.897   2.555   6.295  0.5171  3.6280 -1.2419
 7731TIP3   OH244607   6.170   6.398   5.201  0.4804  0.0181 -0.6404
 7731TIP3    H144608   6.235   6.383   5.270  0.5170 -0.5976 -0.8023
 7731TIP3    H244609   6.086   6.403   5.248  0.7860  2.6329 -0.2161
 7732TIP3   OH244610   0.228   3.838  17.030  0.2181  0.2089 -0.4250
 7732TIP3    H144611   0.204   3.745  17.020  1.5538 -0.1256 -0.6311
 7732TIP3    H244612   0.150   3.885  17.001 -0.2722 -0.8453 -0.8847
 7733TIP3   OH244613   4.651   6.460  15.969  0.1642  0.0238 -0.3065
 7733TIP3    H144614   4.584   6.471  15.902 -2.6217  0.7030  2.3679
 7733TIP3    H244615   4.666   6.548  16.003 -0.8755 -0.6293  2.0094
 7734TIP3   OH244616   6.281   6.452  15.399  0.1940 -0.0787 -0.5601
 7734TIP3    H144617   6.346   6.485  15.461  0.3325  0.2378 -0.8704
 7734TIP3    H244618   6.260   6.527  15.343 -3.0792  0.8634  1.6708
 7735TIP3   OH244619   0.355   1.946  14.727 -0.4096 -0.7087 -0.3778
 7735TIP3    H144620   0.363   2.041  14.715  1.1451 -0.7890 -0.2479
 7735TIP3    H244621   0.344   1.912  14.638  1.4409 -0.5581 -0.7075
 7736TIP3   OH244622   2.754   0.557   1.858  0.1276  0.0495  0.2911
 7736TIP3    H144623   2.736   0.581   1.767 -0.8423 -0.8972  0.2105
 7736TIP3    H244624   2.813   0.483   1.853  0.9476  0.6715  0.4770
 7737TIP3   OH244625   2.976   3.039  10.809 -0.1370 -0.0933  0.0099
 7737TIP3    H144626   3.047   3.095  10.776  0.9912 -0.5490  1.5368
 7737TIP3    H244627   3.017   2.953  10.819 -0.5798 -0.1358  1.8781
 7738TIP3   OH244628   6.650   5.016   2.928  0.5900 -0.2180  0.6403
 7738TIP3    H144629   6.721   5.018   2.993  0.4636  0.8083  0.7696
 7738TIP3    H244630   6.639   5.108   2.902 -0.9445 -0.2962  0.9101
 7739TIP3   OH244631   1.567   6.400   1.473 -0.0209 -0.0312 -0.0080
 7739TIP3    H144632   1.638   6.461   1.454 -0.4551  0.0224 -1.6519
 7739TIP3    H244633   1.500   6.455   1.514  0.7601 -0.0371  1.3255
 7740TIP3   OH244634   0.345   3.612   1.655  0.3969 -0.5964  0.1082
 7740TIP3    H144635   0.304   3.526   1.666  0.3484 -0.4458  1.1636
 7740TIP3    H244636   0.405   3.620   1.729 -0.5245  0.8084  0.7394
 7741TIP3   OH244637   4.496   3.338   2.027 -0.4649  0.5066 -0.0425
 7741TIP3    H144638   4.444   3.414   1.999 -0.2796  1.4274  1.9225
 7741TIP3    H244639   4.579   3.375   2.055  0.3131 -0.6676 -0.7322
 7742TIP3   OH244640   3.903   6.722   4.002  0.3128  0.4774 -0.1788
 7742TIP3    H144641   3.811   6.708   3.982  0.9625 -3.4523 -1.2501
 7742TIP3    H244642   3.907   6.811   4.038 -4.0866  0.2324  1.4821
 7743TIP3   OH244643   2.447   5.358   0.798 -0.1800  0.4254  0.3439
 7743TIP3    H144644   2.495   5.359   0.881  0.0172 -0.9003  0.2713
 7743TIP3    H244645   2.494   5.421   0.743  0.4540  0.3952  0.8311
 7744TIP3   OH244646   4.037   1.093   0.679 -0.0226 -0.4577 -0.2660
 7744TIP3    H144647   4.121   1.048   0.669  0.8133  1.0377 -0.3144
 7744TIP3    H244648   4.047   1.173   0.626 -1.7239 -0.5730 -0.8027
 7745TIP3   OH244649   1.304   2.775   1.211 -0.1138 -0.1067 -0.5954
 7745TIP3    H144650   1.347   2.857   1.237 -0.1567 -0.1435 -0.4065
 7745TIP3    H244651   1.211   2.794   1.220 -0.1115 -0.8498  1.5838
 7746TIP3   OH244652   2.563   5.151   0.061  0.2769 -0.2749 -0.1358
 7746TIP3    H144653   2.512   5.094   0.118 -0.2380 -1.4092 -1.6670
 7746TIP3    H244654   2.504   5.223   0.038  1.4131  1.8638  3.0561
 7747TIP3   OH244655   3.976   5.982  17.060 -0.1945  0.1289 -0.2472
 7747TIP3    H144656   3.889   5.944  17.049 -0.2666 -0.2654  1.4948
 7747TIP3    H244657   4.017   5.972  16.974 -1.9956  0.7254 -1.2329
 7748TIP3   OH244658   2.710   4.903  15.559 -0.4096 -1.0314  0.4258
 7748TIP3    H144659   2.692   4.973  15.621  1.0679 -2.9506  3.1766
 7748TIP3    H244660   2.804   4.909  15.541 -0.7913 -0.4962 -1.7961
 7749TIP3   OH244661   6.363   6.440  14.823  1.1187 -0.2419  0.0485
 7749TIP3    H144662   6.364   6.408  14.733 -0.1204  2.2035 -0.9200
 7749TIP3    H244663   6.307   6.518  14.820  1.1931  0.0156  2.9088
 7750TIP3   OH244664   3.774   2.534   1.634 -0.2575  0.6486  0.5018
 7750TIP3    H144665   3.809   2.477   1.703  1.5574  3.0924  1.7303
 7750TIP3    H244666   3.679   2.521   1.638 -0.0078 -1.1313  1.7092
 7751TIP3   OH244667   3.811   1.469  17.101 -0.3357 -0.2702 -0.3811
 7751TIP3    H144668   3.870   1.497  17.171 -1.2188  0.4167  0.1222
 7751TIP3    H244669   3.863   1.477  17.021 -0.3496  2.4594 -0.2168
 7752TIP3   OH244670   1.577   5.173  13.486  0.4832 -0.3934 -0.1015
 7752TIP3    H144671   1.514   5.244  13.483  0.5417 -0.3506 -0.3409
 7752TIP3    H244672   1.524   5.094  13.491  0.4124 -0.3519 -0.1919
 7753TIP3   OH244673   2.974   4.778  11.333  0.2171 -0.6940 -0.4995
 7753TIP3    H144674   3.063   4.758  11.303 -0.3332 -1.9075 -1.3889
 7753TIP3    H244675   2.941   4.840  11.268  0.6176  0.2365  0.1733
 7754TIP3   OH244676   3.945   1.679  12.947  0.5593 -0.4641 -0.3661
 7754TIP3    H144677   3.855   1.656  12.924  1.0833 -1.0625 -1.9101
 7754TIP3    H244678   3.997   1.604  12.921  1.5995  0.1535 -0.1394
 7755TIP3   OH244679   4.107   4.657   0.413  0.8818 -0.3768 -0.6942
 7755TIP3    H144680   4.153   4.593   0.467  1.5613 -0.3485 -1.2242
 7755TIP3    H244681   4.046   4.700   0.473  0.5049 -1.4303 -0.2995
 7756TIP3   OH244682   3.726   6.286  17.072 -0.6195  0.1121 -0.1983
 7756TIP3    H144683   3.738   6.201  17.116 -0.7513 -0.8162 -1.8801
 7756TIP3    H244684   3.781   6.346  17.121  0.0752 -1.1125  0.5740
 7757TIP3   OH244685   1.433   4.118  13.821 -0.6801 -0.0994  0.3139
 7757TIP3    H144686   1.481   4.149  13.899 -0.7124  0.7476  0.0023
 7757TIP3    H244687   1.436   4.192  13.760 -3.5829  0.5239  0.8002
 7758TIP3   OH244688   4.635   0.727  14.711  0.3531 -0.0773 -0.7850
 7758TIP3    H144689   4.709   0.733  14.771 -0.6559 -2.1084  0.7785
 7758TIP3    H244690   4.601   0.816  14.707 -0.3828 -0.0424  2.8487
 7759TIP3   OH244691   2.992   5.456  15.566 -0.1194 -0.7025 -0.4479
 7759TIP3    H144692   3.081   5.422  15.574  0.1314  0.2488  1.4039
 7759TIP3    H244693   2.991   5.501  15.482  1.5819  0.4126  0.0837
 7760TIP3   OH244694   2.446   6.674  13.366  1.0435 -0.0116  0.6736
 7760TIP3    H144695   2.488   6.623  13.435 -1.2944 -1.3516  1.2222
 7760TIP3    H244696   2.444   6.763  13.401  1.3891 -0.3469  1.5930
 7761TIP3   OH244697   2.025   4.071   0.605 -0.1983 -0.1848  0.2551
 7761TIP3    H144698   2.012   3.994   0.661  0.9672 -0.9475 -0.4714
 7761TIP3    H244699   1.950   4.072   0.546 -0.7161 -0.1891  0.9083
 7762TIP3   OH244700   0.340   4.661  15.052 -0.0478 -0.1495 -0.2714
 7762TIP3    H144701   0.375   4.582  15.094  1.0857  0.2267 -0.4681
 7762TIP3    H244702   0.267   4.630  14.998 -0.6818 -0.8216  0.9320
 7763TIP3   OH244703   1.413   1.458   5.665 -0.5116 -0.4530  0.7076
 7763TIP3    H144704   1.452   1.502   5.740 -0.1553  1.3658 -0.4652
 7763TIP3    H244705   1.327   1.497   5.656 -0.3834 -0.3313 -0.0742
 7764TIP3   OH244706   5.573   5.175   1.263  0.7213  0.5430 -0.5009
 7764TIP3    H144707   5.528   5.175   1.179 -1.5668 -0.6771  0.6570
 7764TIP3    H244708   5.593   5.083   1.280 -0.1790  0.5743  0.9255
 7765TIP3   OH244709   3.509   6.561  15.311  0.0271  0.4832  0.0579
 7765TIP3    H144710   3.492   6.475  15.351  0.9887 -0.2805 -1.0900
 7765TIP3    H244711   3.433   6.613  15.333 -0.2829 -0.4635  1.3471
 7766TIP3   OH244712   0.187   0.891   2.972 -0.0444 -0.3047  0.0693
 7766TIP3    H144713   0.233   0.874   3.054 -0.4331  2.7800  1.0471
 7766TIP3    H244714   0.247   0.860   2.904  2.1722  0.8157  1.4011
 7767TIP3   OH244715   6.621   1.192   5.581  0.3684 -0.3991  0.9914
 7767TIP3    H144716   6.626   1.266   5.520 -0.5072 -0.5608  0.7152
 7767TIP3    H244717   6.698   1.139   5.559  1.6320  0.9424  1.9165
 7768TIP3   OH244718   0.617   4.400   1.860 -0.8713 -0.2355 -0.3676
 7768TIP3    H144719   0.642   4.328   1.917 -0.8910  0.1045  0.0800
 7768TIP3    H244720   0.660   4.477   1.898 -2.4371  0.3388  0.3398
 7769TIP3   OH244721   3.448   0.662   0.051  0.2811  0.3591 -0.2154
 7769TIP3    H144722   3.447   0.651   0.146  1.4238  0.0089 -0.2296
 7769TIP3    H244723   3.456   0.573   0.017  2.9894  0.6279 -0.5203
 7770TIP3   OH244724   4.954   5.136   6.454 -0.2543 -0.1216 -0.2325
 7770TIP3    H144725   4.896   5.099   6.520 -0.6649 -0.5240 -0.8147
 7770TIP3    H244726   5.017   5.188   6.504 -0.3268 -0.7289  0.5007
 7771TIP3   OH244727   5.141   1.547  10.986 -0.3858 -0.5241 -0.0478
 7771TIP3    H144728   5.164   1.531  11.078 -0.8936  0.4679  0.2646
 7771TIP3    H244729   5.176   1.634  10.967 -0.0589 -0.8289 -0.8812
 7772TIP3   OH244730   1.460   3.186   2.313 -0.0811 -0.1356 -0.6345
 7772TIP3    H144731   1.422   3.123   2.374 -0.5536 -0.4139 -1.2038
 7772TIP3    H244732   1.480   3.263   2.367  0.3814 -0.7137  0.0399
 7773TIP3   OH244733   2.556   2.697   0.525  0.5404 -0.6137  0.3107
 7773TIP3    H144734   2.623   2.648   0.478  1.1087 -0.7613  1.2409
 7773TIP3    H244735   2.569   2.673   0.617  1.7351  2.2936  1.0129
 7774TIP3   OH244736   2.374   0.110  14.255 -0.1496 -0.0739  0.2913
 7774TIP3    H144737   2.317   0.184  14.236  0.2456  0.3545  0.7445
 7774TIP3    H244738   2.342   0.040  14.199 -0.8939  0.2679  0.2770
 7775TIP3   OH244739   5.218   1.160  10.353  1.2608  0.0742  0.1585
 7775TIP3    H144740   5.190   1.197  10.269 -3.4095 -1.2025  0.8728
 7775TIP3    H244741   5.180   1.216  10.419  2.5250 -0.4993  1.4365
 7776TIP3   OH244742   4.080   4.586   2.558 -0.3724  0.3505 -0.3770
 7776TIP3    H144743   4.011   4.521   2.569 -0.1936  0.2984  0.5090
 7776TIP3    H244744   4.042   4.667   2.591  0.4990 -0.0112  1.6883
 7777TIP3   OH244745   3.316   4.372   0.249  0.3627 -0.4330  0.5147
 7777TIP3    H144746   3.236   4.392   0.200  0.8523  0.2749 -0.0171
 7777TIP3    H244747   3.288   4.311   0.317 -0.3472 -1.4251 -0.6307
 7778TIP3   OH244748   1.621   0.192   5.093 -0.0477  0.0461 -0.6315
 7778TIP3    H144749   1.585   0.266   5.044 -3.1303 -2.0285 -1.7595
 7778TIP3    H244750   1.695   0.162   5.039  0.3977  1.4531 -0.8366
 7779TIP3   OH244751   1.347   1.539   5.102 -0.0792 -0.1749 -0.1617
 7779TIP3    H144752   1.325   1.454   5.140 -0.3202  0.3589  0.9327
 7779TIP3    H244753   1.276   1.597   5.130 -0.3389  0.2102 -1.5644
 7780TIP3   OH244754   4.031   1.151  11.828  0.3277  0.6018  0.6663
 7780TIP3    H144755   4.064   1.114  11.746  2.2248 -0.5331  1.8646
 7780TIP3    H244756   4.040   1.080  11.891 -1.8276  1.2011  1.7217
 7781TIP3   OH244757   6.691   5.879  14.225  0.0568  0.4095  0.3895
 7781TIP3    H144758   6.734   5.794  14.237 -0.4180  0.2085  0.6946
 7781TIP3    H244759   6.742   5.939  14.280  1.2822  0.6411 -0.9423
 7782TIP3   OH244760   2.171   6.119  15.463  0.4504  0.2409 -0.0604
 7782TIP3    H144761   2.212   6.091  15.380  1.6971  2.4223 -0.2618
 7782TIP3    H244762   2.223   6.195  15.490 -1.2218  0.8232  1.6724
 7783TIP3   OH244763   2.087   3.745   0.215  0.2936 -0.5354 -0.3425
 7783TIP3    H144764   2.085   3.701   0.129  0.5969  0.4555 -0.8735
 7783TIP3    H244765   2.095   3.838   0.194  0.9355 -0.3192  0.7792
 7784TIP3   OH244766   2.489   4.993   4.435 -0.3486 -0.2791 -0.6158
 7784TIP3    H144767   2.562   5.052   4.417 -0.8353  0.9367  1.1680
 7784TIP3    H244768   2.501   4.967   4.526 -1.6598 -0.7680 -0.5676
 7785TIP3   OH244769   4.355   3.505  16.465  0.4614 -0.3848 -0.3238
 7785TIP3    H144770   4.390   3.476  16.550  0.9758 -1.9770 -1.0391
 7785TIP3    H244771   4.357   3.600  16.470 -0.1324 -0.4176  1.6976
 7786TIP3   OH244772   0.780   3.528  12.996 -0.1520  0.0737 -0.1713
 7786TIP3    H144773   0.717   3.457  12.995  1.8719 -1.8177 -0.0404
 7786TIP3    H244774   0.804   3.540  12.905 -0.0151  0.1522 -0.1251
 7787TIP3   OH244775   6.758   4.118  15.941 -0.0808 -0.1756 -0.2235
 7787TIP3    H144776   6.761   4.186  16.008 -1.9073 -0.5659  0.3185
 7787TIP3    H244777   6.744   4.036  15.989  2.4418 -1.0420 -0.8359
 7788TIP3   OH244778   6.004   2.159   6.271 -0.0604  0.7421  0.1728
 7788TIP3    H144779   6.046   2.092   6.325 -1.4651 -1.1101 -0.9249
 7788TIP3    H244780   5.912   2.135   6.270 -0.4095  1.9915 -1.2747
 7789TIP3   OH244781   4.171   0.565  11.771 -0.1889 -0.2041 -0.4632
 7789TIP3    H144782   4.108   0.584  11.701 -0.5141  1.5737  0.2671
 7789TIP3    H244783   4.243   0.520  11.726 -0.7650  0.1480 -1.8005
 7790TIP3   OH244784   5.217   2.527   0.772 -0.0809  0.3676 -0.0504
 7790TIP3    H144785   5.192   2.460   0.836 -0.7618  0.3862 -0.2887
 7790TIP3    H244786   5.192   2.490   0.688 -1.1555  1.2159 -0.1275
 7791TIP3   OH244787   6.094   6.282  15.959  0.1880  0.1594 -0.2454
 7791TIP3    H144788   6.037   6.213  15.924  0.1945 -1.0927  1.9685
 7791TIP3    H244789   6.156   6.300  15.889 -1.8981  0.3935 -2.1374
 7792TIP3   OH244790   0.562   3.205  14.175 -0.3644 -0.0476  0.2149
 7792TIP3    H144791   0.509   3.131  14.205 -0.8199  0.3120  0.2953
 7792TIP3    H244792   0.620   3.224  14.248 -0.4024 -0.1775  0.2789
 7793TIP3   OH244793   2.655   5.640  13.903 -0.0617  0.0116 -0.1687
 7793TIP3    H144794   2.667   5.610  13.993  0.4716 -0.1528 -0.2915
 7793TIP3    H244795   2.631   5.732  13.911  4.1181  1.3004  0.0711
 7794TIP3   OH244796   1.222   2.546   3.608  0.0332 -0.0891  0.0715
 7794TIP3    H144797   1.199   2.480   3.542  0.7782 -0.5405  0.2563
 7794TIP3    H244798   1.141   2.597   3.619 -0.8124 -1.4381  0.4596
 7795TIP3   OH244799   1.243   2.368   3.364  0.0698  0.0952 -0.2016
 7795TIP3    H144800   1.152   2.361   3.334 -0.0213 -0.6979  0.2298
 7795TIP3    H244801   1.292   2.311   3.303  0.1508 -0.1236  0.0667
 7796TIP3   OH244802   6.485   2.336   0.975 -0.2557  1.1125 -0.3397
 7796TIP3    H144803   6.413   2.287   1.014  1.0731  1.2371  2.5017
 7796TIP3    H244804   6.451   2.425   0.965 -0.2344  1.4399  2.0067
 7797TIP3   OH244805   4.010   4.764  13.092  0.1889 -0.4185 -0.0590
 7797TIP3    H144806   3.930   4.716  13.114 -0.1700 -0.7783 -1.9312
 7797TIP3    H244807   4.068   4.750  13.167 -1.5315 -0.0052  1.4129
 7798TIP3   OH244808   0.124   5.337  13.972  0.1299  0.2480  0.3206
 7798TIP3    H144809   0.063   5.272  14.004 -0.4673  1.1811  1.1305
 7798TIP3    H244810   0.200   5.331  14.030 -0.6049  1.3628  1.4522
 7799TIP3   OH244811   1.431   6.333   5.867  0.1036  0.0404  0.7169
 7799TIP3    H144812   1.520   6.369   5.871  0.4105 -0.7283  0.9134
 7799TIP3    H244813   1.412   6.309   5.958 -0.3283  0.2504  0.6834
 7800TIP3   OH244814   1.888   2.992  16.826 -0.0083 -0.7120  0.0995
 7800TIP3    H144815   1.970   2.946  16.842  0.6631 -0.8730 -3.2382
 7800TIP3    H244816   1.900   3.078  16.867  0.7596 -1.6150  1.8771
 7801TIP3   OH244817   0.388   0.539   2.940  0.2958  0.0502  0.1663
 7801TIP3    H144818   0.399   0.473   3.009  0.8324 -0.6500 -0.5625
 7801TIP3    H244819   0.313   0.509   2.890 -0.6640  1.0491  0.9627
 7802TIP3   OH244820   2.769   4.667   5.215  0.4154 -0.0511  0.0683
 7802TIP3    H144821   2.681   4.704   5.223 -0.7600 -1.5454 -3.6597
 7802TIP3    H244822   2.818   4.730   5.162  1.1389  0.0315  0.8042
 7803TIP3   OH244823   1.228   0.582   3.163  0.4560  0.8132  0.2666
 7803TIP3    H144824   1.305   0.541   3.201  0.8148  2.0960  0.9751
 7803TIP3    H244825   1.171   0.509   3.139  1.3854 -0.1056  0.8008
 7804TIP3   OH244826   4.486   5.914   6.765  0.3145 -0.4895 -0.1866
 7804TIP3    H144827   4.422   5.846   6.786  0.3487  0.0194  1.7442
 7804TIP3    H244828   4.461   5.944   6.677 -1.5443 -0.9126  0.1635
 7805TIP3   OH244829   4.649   1.861   4.177  0.2762 -0.2530 -0.4071
 7805TIP3    H144830   4.665   1.938   4.232  0.7221 -0.7079  0.1091
 7805TIP3    H244831   4.570   1.821   4.212  0.0432 -0.0305 -0.6761
 7806TIP3   OH244832   6.506   2.755   4.406  0.3788 -0.2854 -0.2091
 7806TIP3    H144833   6.512   2.789   4.496 -0.9402  0.3211 -0.3178
 7806TIP3    H244834   6.588   2.782   4.365  0.5654  0.3354  0.5349
 7807TIP3   OH244835   3.398   5.994  16.864 -0.2045 -0.4114 -0.1937
 7807TIP3    H144836   3.330   5.943  16.908 -0.3621  0.5044  0.6605
 7807TIP3    H244837   3.371   5.996  16.772 -0.7764 -0.9277 -0.0425
 7808TIP3   OH244838   5.142   5.762   0.144  0.3010 -0.0421 -0.2332
 7808TIP3    H144839   5.071   5.698   0.153  1.7521 -1.6177  0.4442
 7808TIP3    H244840   5.132   5.820   0.219  0.6057 -1.1714  0.6962
 7809TIP3   OH244841   5.844   1.240  11.074  0.0713  0.2903  0.4962
 7809TIP3    H144842   5.860   1.305  11.143 -2.1768  1.4639 -0.0150
 7809TIP3    H244843   5.856   1.288  10.992  1.1354 -0.6882  0.0515
 7810TIP3   OH244844   5.348   3.661  13.972 -0.4354 -0.1120 -0.6378
 7810TIP3    H144845   5.255   3.647  13.986 -0.6817  1.3097 -0.7015
 7810TIP3    H244846   5.361   3.755  13.984  1.3722 -0.5506  1.4907
 7811TIP3   OH244847   2.826   1.843   0.890 -0.4515 -0.0554 -0.5572
 7811TIP3    H144848   2.894   1.822   0.954  0.5541 -1.5398 -2.0162
 7811TIP3    H244849   2.744   1.836   0.938  0.3027 -0.3731  0.7285
 7812TIP3   OH244850   6.311   6.454   2.312  1.1106  0.2478  0.8385
 7812TIP3    H144851   6.226   6.470   2.353  0.3161 -1.9588  0.2218
 7812TIP3    H244852   6.348   6.382   2.362  2.2000  0.5539  0.4946
 7813TIP3   OH244853   0.653   0.062   2.239 -0.8429 -0.7240 -0.5592
 7813TIP3    H144854   0.612   0.141   2.204 -0.4474  0.0103  0.5621
 7813TIP3    H244855   0.642   0.070   2.334 -0.4258 -1.8148 -0.4118
 7814TIP3   OH244856   0.605   6.675   2.509  0.2029  1.0843 -0.8634
 7814TIP3    H144857   0.522   6.703   2.470  0.6339 -0.4828 -3.0362
 7814TIP3    H244858   0.587   6.674   2.603 -2.2671  0.7444 -1.2609
 7815TIP3   OH244859   5.596   0.455  14.047 -0.0442 -0.2769 -0.2663
 7815TIP3    H144860   5.607   0.396  13.973  0.5384 -0.7931  0.2229
 7815TIP3    H244861   5.560   0.400  14.116 -1.4717  0.4041 -0.4402
 7816TIP3   OH244862   5.103   0.719   0.095 -0.6541  0.1613 -0.6450
 7816TIP3    H144863   5.088   0.692   0.004 -1.8391 -1.5203  0.0004
 7816TIP3    H244864   5.091   0.639   0.146  2.3235  0.5277  0.8277
 7817TIP3   OH244865   0.400   3.223   2.700  0.3330 -0.0230 -0.1138
 7817TIP3    H144866   0.345   3.257   2.770  0.9855  1.8512 -0.4693
 7817TIP3    H244867   0.366   3.265   2.621  0.0728 -1.5501 -0.8570
 7818TIP3   OH244868   5.532   4.073   3.603 -0.0323 -0.4742 -0.5042
 7818TIP3    H144869   5.621   4.060   3.637  0.5409  1.4464 -1.1481
 7818TIP3    H244870   5.482   4.103   3.679 -0.1434 -1.5078 -0.1512
 7819TIP3   OH244871   2.471   5.942  14.871  0.1038  0.1914 -0.4823
 7819TIP3    H144872   2.493   5.862  14.919 -1.6006 -0.7925 -1.2745
 7819TIP3    H244873   2.495   5.923  14.780 -1.7338 -0.0216 -0.9426
 7820TIP3   OH244874   2.309   5.296  16.570  0.0692  0.1649 -0.1389
 7820TIP3    H144875   2.393   5.277  16.529 -0.1962  0.5253 -0.8637
 7820TIP3    H244876   2.245   5.247  16.519 -0.1913  0.0472  0.2861
 7821TIP3   OH244877   0.889   0.173   0.857  0.1689  0.4907 -0.6843
 7821TIP3    H144878   0.858   0.263   0.871 -1.2223 -0.2606  1.7888
 7821TIP3    H244879   0.959   0.162   0.922 -1.1354 -0.8044  0.5780
 7822TIP3   OH244880   1.510   6.228   4.660  0.0128 -0.2942  0.1252
 7822TIP3    H144881   1.513   6.229   4.756 -1.1299 -1.6986  0.2164
 7822TIP3    H244882   1.491   6.319   4.636  0.5157  0.1202  1.2127
 7823TIP3   OH244883   5.932   4.734   3.093  0.0203 -0.4261  0.4748
 7823TIP3    H144884   5.954   4.685   3.014  1.2895  0.7602  0.0518
 7823TIP3    H244885   5.993   4.702   3.159  2.0213  1.6550 -0.2420
 7824TIP3   OH244886   1.424   0.147   1.074 -0.4840 -0.2649  0.7541
 7824TIP3    H144887   1.342   0.191   1.095  0.4378  1.5146  0.7973
 7824TIP3    H244888   1.435   0.081   1.143 -1.0088  0.6747  1.7627
 7825TIP3   OH244889   6.081   0.769  16.349 -0.1241 -0.5959 -0.3907
 7825TIP3    H144890   6.001   0.769  16.402 -0.2236  1.7101 -0.4476
 7825TIP3    H244891   6.142   0.822  16.399  0.4046  0.0589 -1.6880
 7826TIP3   OH244892   0.018   0.296  11.471  0.3563  0.5164 -0.0151
 7826TIP3    H144893   0.015   0.247  11.389 -0.2550  3.1295 -1.6522
 7826TIP3    H244894  -0.073   0.296  11.502  0.4419  0.2352  0.2439
 7827TIP3   OH244895   0.543   6.699  12.449  0.4355 -0.0448  0.0919
 7827TIP3    H144896   0.544   6.605  12.470 -0.2454 -0.2814 -0.8675
 7827TIP3    H244897   0.510   6.741  12.529  1.7508 -0.5027  0.9094
 7828TIP3   OH244898   3.717   6.492   5.027  0.4043  0.0533  0.4187
 7828TIP3    H144899   3.791   6.523   4.976 -0.2953 -0.6321 -1.0810
 7828TIP3    H244900   3.644   6.548   4.999 -0.3047 -1.2508 -0.4488
 7829TIP3   OH244901   1.169   5.250   1.023  0.7412  0.3499  0.6630
 7829TIP3    H144902   1.264   5.240   1.034  0.5591  0.5178  2.5963
 7829TIP3    H244903   1.142   5.170   0.978  1.7870  0.3109  0.0584
 7830TIP3   OH244904   5.701   6.360  11.601 -0.1083 -0.4332 -0.4962
 7830TIP3    H144905   5.716   6.362  11.506  0.3178 -1.1634 -0.4569
 7830TIP3    H244906   5.608   6.376  11.611 -0.2600 -0.9031 -1.0810
 7831TIP3   OH244907   0.793   3.327   5.119  0.2849  0.3497 -0.5619
 7831TIP3    H144908   0.742   3.301   5.042  0.6229 -0.9934 -0.3719
 7831TIP3    H244909   0.856   3.390   5.085  1.4082 -1.3069 -1.7410
 7832TIP3   OH244910   6.107   5.960   4.139  0.0501 -0.3766  0.0541
 7832TIP3    H144911   6.105   5.864   4.134 -1.4893 -0.4169  0.9578
 7832TIP3    H244912   6.032   5.988   4.086 -0.7674  0.2235  1.4901
 7833TIP3   OH244913   2.755   3.254  14.451  0.2082  0.4280 -0.1701
 7833TIP3    H144914   2.783   3.252  14.360  1.5531  0.6437  0.2194
 7833TIP3    H244915   2.666   3.287  14.448  0.2752  0.5376 -1.3950
 7834TIP3   OH244916   2.949   4.572  12.385 -0.4138 -0.2460 -0.6587
 7834TIP3    H144917   2.993   4.576  12.470 -1.1051  1.1190 -0.3419
 7834TIP3    H244918   3.017   4.591  12.321 -0.5400  2.2097 -0.1554
 7835TIP3   OH244919   5.757   4.232  16.183  0.1892  0.1973  0.5938
 7835TIP3    H144920   5.722   4.147  16.209 -0.4293  0.6530  1.2791
 7835TIP3    H244921   5.698   4.262  16.114  0.1805  0.2391  0.6195
 7836TIP3   OH244922   1.795   1.283   2.376  0.0590  0.0723  0.6357
 7836TIP3    H144923   1.854   1.346   2.418 -2.4008  2.4632  0.7710
 7836TIP3    H244924   1.710   1.326   2.376 -1.1926 -2.1082 -1.9289
 7837TIP3   OH244925   1.858   2.166   6.621 -0.4468 -0.2408 -0.2117
 7837TIP3    H144926   1.944   2.122   6.628 -0.5717 -0.6813 -1.2836
 7837TIP3    H244927   1.800   2.113   6.676  0.0252  0.2312  0.7584
 7838TIP3   OH244928   2.683   5.295   5.107 -0.1063  0.4703 -0.0020
 7838TIP3    H144929   2.714   5.223   5.162  1.1403  1.4744  0.6652
 7838TIP3    H244930   2.599   5.265   5.073 -0.6246 -0.4350  1.9595
 7839TIP3   OH244931   4.154   5.756  13.098  0.0821 -0.2027 -0.0596
 7839TIP3    H144932   4.169   5.745  13.004  0.1554  1.0624 -0.2121
 7839TIP3    H244933   4.218   5.697  13.139  2.4531  1.6668 -0.7856
 7840TIP3   OH244934   1.050   2.303  12.941 -0.0451  0.1930 -0.2426
 7840TIP3    H144935   1.032   2.368  13.009 -0.8814 -0.5721  0.2807
 7840TIP3    H244936   1.145   2.304  12.932 -0.0830  2.3701 -1.1258
 7841TIP3   OH244937   0.992   4.952   2.101 -0.4924 -0.3006  0.0506
 7841TIP3    H144938   0.902   4.945   2.132 -0.4083 -0.4797  0.2572
 7841TIP3    H244939   1.024   4.862   2.100  0.0114 -0.1389  0.9633
 7842TIP3   OH244940   2.300   0.337   4.106  0.1507  0.3628 -1.1069
 7842TIP3    H144941   2.377   0.374   4.150  0.8375 -0.9504 -1.1741
 7842TIP3    H244942   2.324   0.337   4.013 -0.7507  1.8252 -1.3784
 7843TIP3   OH244943   1.377   6.175  15.305  0.7887  0.1581  0.0861
 7843TIP3    H144944   1.381   6.224  15.222  0.4382  2.2037  1.2019
 7843TIP3    H244945   1.469   6.171  15.334  0.5794  2.7508  1.3495
 7844TIP3   OH244946   5.659   1.407  12.961  0.5536 -0.1168 -0.3564
 7844TIP3    H144947   5.679   1.422  12.868  2.3578  0.6800  0.1104
 7844TIP3    H244948   5.744   1.407  13.004 -0.2216 -0.8997  1.2649
 7845TIP3   OH244949   5.016   0.262   3.229  0.4850 -0.0845  0.0174
 7845TIP3    H144950   4.969   0.272   3.312  0.5466 -1.6931  0.2765
 7845TIP3    H244951   5.076   0.189   3.244  0.4994 -0.4047 -1.4454
 7846TIP3   OH244952   3.178   1.739   5.087  0.1842 -0.3768  0.2269
 7846TIP3    H144953   3.167   1.652   5.124  2.3186 -2.2341 -2.9731
 7846TIP3    H244954   3.108   1.747   5.022  0.5309 -0.1194 -0.1261
 7847TIP3   OH244955   3.668   4.498  12.983  0.9193 -0.2721  0.6341
 7847TIP3    H144956   3.607   4.572  12.977  1.4173  0.0448 -1.3482
 7847TIP3    H244957   3.715   4.512  13.065  0.0063  0.8215  0.9987
 7848TIP3   OH244958   2.661   3.020  14.604  0.4471 -0.9483  0.1602
 7848TIP3    H144959   2.576   3.024  14.560 -0.1336 -0.8902  1.2395
 7848TIP3    H244960   2.689   3.111  14.612 -0.0559 -0.8642  1.0315
 7849TIP3   OH244961   3.762   3.588   5.334  0.3827  0.0393  0.4564
 7849TIP3    H144962   3.683   3.624   5.293 -0.6695 -0.0553  2.2820
 7849TIP3    H244963   3.802   3.662   5.379  1.3859  0.0835 -0.4455
 7850TIP3   OH244964   1.797   0.573  12.928  0.1900  0.3299  0.4071
 7850TIP3    H144965   1.843   0.534  12.854  0.3170  0.1192  0.5966
 7850TIP3    H244966   1.704   0.569  12.904  0.3185  1.8088 -0.4964
 7851TIP3   OH244967   4.018   3.583   0.778 -0.1511 -0.0390 -0.3498
 7851TIP3    H144968   3.994   3.538   0.860  2.3705 -0.5457  0.1819
 7851TIP3    H244969   3.969   3.665   0.781  0.2540  0.1810  1.9213
 7852TIP3   OH244970   6.649   5.338   3.341 -0.3868 -0.3898  0.7405
 7852TIP3    H144971   6.593   5.399   3.388 -0.9138 -0.5191  0.2979
 7852TIP3    H244972   6.736   5.352   3.377 -0.4497  0.7909  0.4778
 7853TIP3   OH244973   5.641   4.650   4.975  0.0618  0.3920  0.1813
 7853TIP3    H144974   5.594   4.719   4.929  0.3946  0.1858 -0.4811
 7853TIP3    H244975   5.581   4.621   5.044  0.6612  2.6884  1.7497
 7854TIP3   OH244976   0.008   2.899  14.334  0.4027  0.2804 -0.3333
 7854TIP3    H144977   0.038   2.987  14.358  0.3205  0.3762 -0.5763
 7854TIP3    H244978  -0.079   2.893  14.372  0.5440  0.1773 -0.0273
 7855TIP3   OH244979   0.812   5.218   5.691  0.3805  0.1287  0.3739
 7855TIP3    H144980   0.846   5.266   5.615 -0.8596  2.6704  1.2787
 7855TIP3    H244981   0.864   5.249   5.765 -1.6420  1.6867  1.2716
 7856TIP3   OH244982   1.981   3.369   3.443  0.2691 -0.2908 -0.2327
 7856TIP3    H144983   2.053   3.351   3.383 -0.0778 -1.9113 -0.2282
 7856TIP3    H244984   1.947   3.282   3.466 -0.2763  0.3267  1.4955
 7857TIP3   OH244985   1.273   5.341  13.991 -0.2873  0.3916  0.1707
 7857TIP3    H144986   1.247   5.425  13.952 -0.8290  0.9113  1.5680
 7857TIP3    H244987   1.212   5.329  14.064 -0.3025 -1.3053 -0.0825
 7858TIP3   OH244988   4.752   2.690   5.257  0.7069  0.5153  0.4188
 7858TIP3    H144989   4.730   2.598   5.245  3.8405 -0.2869 -0.1311
 7858TIP3    H244990   4.769   2.723   5.169 -0.6408  1.7504  0.5809
 7859TIP3   OH244991   5.874   3.223   1.920 -0.6587 -0.3665 -0.0033
 7859TIP3    H144992   5.904   3.133   1.929  3.0299  0.7651  0.7877
 7859TIP3    H244993   5.842   3.228   1.830 -1.0211 -2.4342 -0.0418
 7860TIP3   OH244994   0.629   0.885   3.093 -0.1166 -0.1879 -0.5333
 7860TIP3    H144995   0.681   0.826   3.147 -0.7169 -0.4738 -0.2620
 7860TIP3    H244996   0.637   0.970   3.137  0.9309 -0.0040 -1.0504
 7861TIP3   OH244997   1.332   1.014  16.642  0.4845  0.4617  0.6248
 7861TIP3    H144998   1.393   0.981  16.576 -0.6398 -0.1432 -0.1503
 7861TIP3    H244999   1.263   1.057  16.591 -0.8186 -0.7108  1.3415
 7862TIP3   OH245000   1.067   2.410   4.247  0.3455  0.4696  0.0270
 7862TIP3    H145001   1.022   2.444   4.324 -0.3351 -0.2843 -0.0244
 7862TIP3    H245002   1.158   2.440   4.257 -0.1151  1.8697  0.2089
 7863TIP3   OH245003   1.942   6.148   0.465 -0.2182 -0.1659  0.1177
 7863TIP3    H145004   1.855   6.175   0.436 -0.0007  1.3682  0.8063
 7863TIP3    H245005   1.951   6.058   0.433 -0.4910  0.9193 -3.3612
 7864TIP3   OH245006   3.251   0.711   4.120  0.4407  0.0571 -0.2190
 7864TIP3    H145007   3.206   0.709   4.035  1.1881  2.1642 -0.7232
 7864TIP3    H245008   3.193   0.763   4.176  1.2460  1.0198 -0.2629
 7865TIP3   OH245009   4.613   5.646  15.748 -0.2168 -0.1970  0.5179
 7865TIP3    H145010   4.639   5.602  15.667 -0.2909  0.3927  0.1647
 7865TIP3    H245011   4.646   5.736  15.738 -2.3248  0.5734  0.0774
 7866TIP3   OH245012   3.133   4.145  13.297 -0.3339 -0.7700 -0.4159
 7866TIP3    H145013   3.038   4.145  13.312 -0.3388 -2.2829 -0.3637
 7866TIP3    H245014   3.171   4.141  13.384 -0.1262  2.0204 -0.2758
 7867TIP3   OH245015   1.631   5.054   4.346 -0.6132 -0.4891 -0.0395
 7867TIP3    H145016   1.620   5.127   4.406  0.6969  1.8363 -2.4460
 7867TIP3    H245017   1.543   5.034   4.315 -1.2467 -1.4199  2.1458
 7868TIP3   OH245018   3.241   1.906   5.476  0.0007  0.3968 -0.2406
 7868TIP3    H145019   3.242   1.999   5.498  0.7946  0.5939 -1.0568
 7868TIP3    H245020   3.331   1.886   5.449 -0.0464 -0.7184  0.3318
 7869TIP3   OH245021   4.516   0.617   1.182 -0.1017  0.4005 -0.6762
 7869TIP3    H145022   4.525   0.640   1.275 -4.0380 -0.3478  0.0716
 7869TIP3    H245023   4.599   0.577   1.159  0.7882 -0.0345  2.7246
 7870TIP3   OH245024   3.648   6.107  15.313  0.1711  1.0734 -0.3511
 7870TIP3    H145025   3.712   6.098  15.243 -0.8641  0.8091 -1.2856
 7870TIP3    H245026   3.687   6.061  15.387  0.0662 -1.1239 -1.5982
 7871TIP3   OH245027   2.728   5.844   1.632  0.4551 -0.1205  0.5661
 7871TIP3    H145028   2.745   5.833   1.539  1.2857 -0.7557  0.7771
 7871TIP3    H245029   2.813   5.827   1.674  0.0549 -0.0147  1.4419
 7872TIP3   OH245030   1.140   6.058  17.331 -0.6978  0.9065  0.0873
 7872TIP3    H145031   1.114   6.146  17.305 -1.6183  0.2182 -1.4251
 7872TIP3    H245032   1.205   6.032  17.266 -2.8534 -0.7480 -1.5360
 7873TIP3   OH245033   2.451   3.554  15.122 -0.4569  0.7043 -0.7194
 7873TIP3    H145034   2.516   3.485  15.129 -1.3082 -0.0898 -0.4121
 7873TIP3    H245035   2.470   3.598  15.039  0.5651  0.6024 -0.5441
 7874TIP3   OH245036   2.540   0.327  15.505 -0.1664  0.2429  0.3411
 7874TIP3    H145037   2.527   0.367  15.591 -0.0620 -0.5561  0.7365
 7874TIP3    H245038   2.635   0.314  15.499 -0.2947 -1.0140  0.7213
 7875TIP3   OH245039   3.363   3.225  16.722 -0.4196 -0.0220 -0.0366
 7875TIP3    H145040   3.299   3.246  16.791  0.6442  0.2894  0.8890
 7875TIP3    H245041   3.444   3.207  16.770  0.3115  0.0822 -1.2111
 7876TIP3   OH245042   2.275   1.556  11.496 -0.4037  0.6074 -0.1527
 7876TIP3    H145043   2.322   1.639  11.498 -0.3069  0.5424  0.1742
 7876TIP3    H245044   2.322   1.504  11.430 -1.3306  1.3273 -1.4398
 7877TIP3   OH245045   1.800   2.198   4.894  0.7433  0.3763 -0.3592
 7877TIP3    H145046   1.896   2.188   4.889  0.9031  0.3234  1.7927
 7877TIP3    H245047   1.787   2.274   4.950 -0.4475 -0.4378  0.5245
 7878TIP3   OH245048   2.270   4.877  12.880  0.1957  0.3103 -0.0032
 7878TIP3    H145049   2.332   4.946  12.903  0.5319 -0.6609  2.2224
 7878TIP3    H245050   2.318   4.821  12.819  0.4019  1.2465 -0.7254
 7879TIP3   OH245051   2.274   3.127   2.602 -0.2882 -0.7924 -0.2777
 7879TIP3    H145052   2.221   3.183   2.659 -0.6569  0.0789 -1.4206
 7879TIP3    H245053   2.364   3.141   2.630 -0.3975  0.2397 -0.4053
 7880TIP3   OH245054   0.388   5.203  16.080  0.1563 -0.2101 -0.3205
 7880TIP3    H145055   0.319   5.137  16.091  1.1544 -1.0012  1.5152
 7880TIP3    H245056   0.360   5.276  16.136  1.4015 -1.0792  1.5352
 7881TIP3   OH245057   0.587   4.605  12.940  0.3750  0.2318  0.3021
 7881TIP3    H145058   0.528   4.646  13.004  0.6761  0.3563  0.4997
 7881TIP3    H245059   0.559   4.640  12.856  0.7300  0.9616  0.4848
 7882TIP3   OH245060   5.351   0.573   4.239  0.1510  0.0621  0.3131
 7882TIP3    H145061   5.275   0.520   4.263  0.1222  0.2518  0.6532
 7882TIP3    H245062   5.319   0.663   4.239  0.3935  0.1522  0.5536
 7883TIP3   OH245063   3.923   1.878   2.805  0.1059 -0.1949 -0.3546
 7883TIP3    H145064   3.997   1.870   2.746  0.2008  0.2255 -0.3005
 7883TIP3    H245065   3.869   1.801   2.788  1.2715 -1.2653  0.6105
 7884TIP3   OH245066   0.779   1.826   5.166  0.3953  0.0277 -0.4164
 7884TIP3    H145067   0.836   1.812   5.091  1.0209  2.3905 -0.4902
 7884TIP3    H245068   0.837   1.863   5.233 -0.8065  1.5798 -0.1517
 7885TIP3   OH245069   5.465   6.468  15.489 -0.2841 -0.4487 -0.5515
 7885TIP3    H145070   5.504   6.545  15.530  0.3646 -0.1130 -1.7488
 7885TIP3    H245071   5.518   6.394  15.521  0.3788 -0.1638 -0.9757
 7886TIP3   OH245072   2.078   4.892  17.035 -0.1074 -0.2499 -0.2684
 7886TIP3    H145073   2.160   4.908  16.987  0.7577 -0.9487  0.9307
 7886TIP3    H245074   2.068   4.968  17.091 -0.5329  0.0581 -0.7638
 7887TIP3   OH245075   4.642   0.974   5.641 -0.6094  0.4110  0.0891
 7887TIP3    H145076   4.686   1.059   5.633 -1.3884  0.7276 -1.1394
 7887TIP3    H245077   4.574   0.988   5.707 -0.0260  0.4210  0.6948
 7888TIP3   OH245078   3.980   6.256  15.524 -0.1389 -0.4181 -0.6166
 7888TIP3    H145079   4.060   6.247  15.576 -1.0648  1.0956  1.2114
 7888TIP3    H245080   4.009   6.296  15.442  0.9675  0.4264  0.1544
 7889TIP3   OH245081   0.750   2.843  12.863  0.0022  0.1581 -0.3545
 7889TIP3    H145082   0.756   2.910  12.931  0.0037 -0.4588  0.2604
 7889TIP3    H245083   0.666   2.860  12.821 -0.8566 -0.5593  1.0026
 7890TIP3   OH245084   0.382   3.971   3.555 -0.4695 -0.0127  0.0170
 7890TIP3    H145085   0.347   4.059   3.566  2.2161  1.4220 -1.7307
 7890TIP3    H245086   0.315   3.924   3.505 -0.8687  1.9021 -1.3470
 7891TIP3   OH245087   0.035   0.456   0.322  0.1178  0.3127 -0.3520
 7891TIP3    H145088  -0.048   0.424   0.357  0.4034 -0.2414 -0.1602
 7891TIP3    H245089   0.025   0.551   0.317 -0.7473  0.1955 -0.9130
 7892TIP3   OH245090   0.201   0.574   4.308 -0.3143  0.8864 -0.0287
 7892TIP3    H145091   0.284   0.601   4.269  0.0091 -1.0681 -0.7998
 7892TIP3    H245092   0.150   0.540   4.234 -1.4834  1.2878  0.5704
 7893TIP3   OH245093   1.907   6.752   2.437  0.4825 -1.0229 -0.6920
 7893TIP3    H145094   1.999   6.777   2.443  0.4740 -1.2426  0.4342
 7893TIP3    H245095   1.882   6.731   2.526 -1.1810  0.8888 -0.6262
 7894TIP3   OH245096   3.635   5.249   1.394  0.0750  0.1014 -0.0758
 7894TIP3    H145097   3.603   5.249   1.304  0.5426 -0.9344 -0.2459
 7894TIP3    H245098   3.714   5.303   1.391 -0.6564  1.2117  0.0027
 7895TIP3   OH245099   4.902   0.358   5.907 -0.4740 -0.3570 -0.5558
 7895TIP3    H145100   4.876   0.398   5.989 -1.8915 -1.2462 -0.5428
 7895TIP3    H245101   4.923   0.267   5.929  1.3633 -0.0520 -0.8188
 7896TIP3   OH245102   2.192   0.065  11.506 -0.4602  0.3274  0.0117
 7896TIP3    H145103   2.230   0.149  11.480  1.7080 -0.7903 -0.7095
 7896TIP3    H245104   2.238   0.001  11.451 -0.2526 -1.5534  2.2347
 7897TIP3   OH245105   3.028   0.304   3.498  0.0436 -0.1467  0.1815
 7897TIP3    H145106   2.953   0.355   3.530 -0.6582 -1.5632  0.8517
 7897TIP3    H245107   2.990   0.231   3.450  1.0547  0.6144 -1.9690
 7898TIP3   OH245108   1.198   4.178   1.911  0.2676  0.3502 -0.3112
 7898TIP3    H145109   1.183   4.109   1.976 -1.5221  1.2752  0.3148
 7898TIP3    H245110   1.266   4.142   1.854  1.0387 -0.9831  1.3477
 7899TIP3   OH245111   2.103   5.471   3.112  0.4100 -0.2238  0.0184
 7899TIP3    H145112   2.075   5.384   3.082 -1.8740 -0.5202  2.5471
 7899TIP3    H245113   2.166   5.453   3.182  0.9496  0.2328 -0.3394
 7900TIP3   OH245114   1.345   6.582   1.566  0.2331  0.0303  0.1578
 7900TIP3    H145115   1.308   6.664   1.532  0.6076  0.2871  0.3664
 7900TIP3    H245116   1.352   6.596   1.661  1.5485  0.2675  0.0427
 7901TIP3   OH245117   1.558   4.370   5.505  0.5978 -0.3610 -0.1047
 7901TIP3    H145118   1.484   4.413   5.461  1.6519 -0.1810 -1.7924
 7901TIP3    H245119   1.581   4.430   5.577  0.7545  0.9112 -1.1791
 7902TIP3   OH245120   3.463   6.299  15.410  0.4889  0.5997  0.4077
 7902TIP3    H145121   3.526   6.238  15.371 -1.6093 -1.4907  0.0478
 7902TIP3    H245122   3.473   6.288  15.504  1.5522  1.3118  0.3973
 7903TIP3   OH245123   1.070   5.506   1.116 -0.7405  0.5347  0.5113
 7903TIP3    H145124   1.066   5.519   1.210 -0.6369 -0.9342  0.7420
 7903TIP3    H245125   1.101   5.416   1.105  2.2171  1.5832 -0.9376
 7904TIP3   OH245126   2.338   1.626   3.946 -0.4781 -0.1059  0.4731
 7904TIP3    H145127   2.316   1.538   3.976 -0.9684 -0.0755  0.2072
 7904TIP3    H245128   2.403   1.658   4.010  2.5747 -2.0365 -1.3865
 7905TIP3   OH245129   0.248   2.347  11.221 -0.3686 -0.7296 -0.4323
 7905TIP3    H145130   0.257   2.252  11.214  1.1121 -0.4741 -2.7703
 7905TIP3    H245131   0.185   2.371  11.153 -1.9379 -0.1321  1.1476
 7906TIP3   OH245132   6.404   4.467   4.110 -0.1898  0.2377  0.1783
 7906TIP3    H145133   6.453   4.476   4.029 -1.7124  1.9336 -0.6208
 7906TIP3    H245134   6.327   4.416   4.087 -1.5478  2.2280  0.0499
 7907TIP3   OH245135   3.603   1.342  16.986  0.1990  0.0091 -0.3526
 7907TIP3    H145136   3.610   1.264  17.040 -0.7389 -0.5886 -1.0674
 7907TIP3    H245137   3.668   1.402  17.022  1.9613 -1.5990 -0.6707
 7908TIP3   OH245138   1.539   4.742   6.088 -0.4577 -0.2959 -0.3612
 7908TIP3    H145139   1.594   4.681   6.039 -2.2077 -0.0090 -2.8599
 7908TIP3    H245140   1.601   4.790   6.144  1.1741 -3.0732  0.4041
 7909TIP3   OH245141   2.622   0.654  15.513  0.0712 -0.0913 -0.0217
 7909TIP3    H145142   2.593   0.745  15.523 -0.1991 -0.3379  2.0331
 7909TIP3    H245143   2.546   0.609  15.476  0.1310  0.4608 -0.8505
 7910TIP3   OH245144   3.621   2.616  12.604  0.1965  0.9106  0.1308
 7910TIP3    H145145   3.601   2.572  12.686 -1.4932 -0.7769 -1.0906
 7910TIP3    H245146   3.542   2.666  12.583  0.9572  2.0912 -0.0305
 7911TIP3   OH245147   1.156   2.813  12.939  0.5398 -0.1926  0.3021
 7911TIP3    H145148   1.148   2.775  13.027  2.8571 -1.3649  0.0579
 7911TIP3    H245149   1.105   2.755  12.883  1.1410 -0.9154  0.4928
 7912TIP3   OH245150   3.683   3.687  13.268  0.1850  0.5675  0.0134
 7912TIP3    H145151   3.760   3.633  13.289  0.6777 -0.2707 -3.2996
 7912TIP3    H245152   3.720   3.768  13.233 -0.5122  1.2813  0.9063
 7913TIP3   OH245153   4.074   4.056   6.034  0.4197 -0.1221 -0.4451
 7913TIP3    H145154   4.007   4.038   6.100  0.6755  0.3067 -0.0591
 7913TIP3    H245155   4.135   4.115   6.078  0.8729 -0.2431 -0.9007
 7914TIP3   OH245156   0.834   4.648  16.773  0.1246  1.0190  0.3595
 7914TIP3    H145157   0.900   4.644  16.842 -0.7133 -0.0229  1.1417
 7914TIP3    H245158   0.752   4.626  16.817 -0.3847 -0.0388 -1.0297
 7915TIP3   OH245159   1.422   6.599   5.955  0.3399 -0.5043 -0.1600
 7915TIP3    H145160   1.516   6.617   5.950  0.4130 -1.2924 -2.8351
 7915TIP3    H245161   1.411   6.511   5.919 -1.4142 -0.5046  0.2490
 7916TIP3   OH245162   4.054   0.337  13.195 -0.1356  0.2589 -0.2401
 7916TIP3    H145163   4.012   0.309  13.113  0.6425  1.3523 -1.0472
 7916TIP3    H245164   4.147   0.344  13.173  0.1032  0.4618  0.7787
 7917TIP3   OH245165   6.438   2.586   0.963 -0.1130  0.2228 -0.1597
 7917TIP3    H145166   6.351   2.625   0.966  0.5238  1.6195  1.3411
 7917TIP3    H245167   6.491   2.640   1.022  2.0560  0.0730 -1.8561
 7918TIP3   OH245168   6.261   4.358   6.307  0.1848 -0.6933 -0.1777
 7918TIP3    H145169   6.178   4.388   6.269 -0.5562 -0.8454  1.2420
 7918TIP3    H245170   6.302   4.438   6.340  0.7803 -0.5738 -1.1767
 7919TIP3   OH245171   6.761   6.297   4.640  0.0596 -0.0258 -0.3844
 7919TIP3    H145172   6.739   6.309   4.733 -3.4170 -2.7765 -0.6057
 7919TIP3    H245173   6.856   6.293   4.638  0.2748  0.1657  3.0664
 7920TIP3   OH245174   1.108   5.420   3.255 -0.3454 -0.5031 -0.2553
 7920TIP3    H145175   1.014   5.404   3.263 -0.4581  0.6463  1.0261
 7920TIP3    H245176   1.145   5.386   3.337  0.1588  0.2855 -0.1439
 7921TIP3   OH245177   0.993   4.722   1.609 -0.1581 -0.3259  0.0020
 7921TIP3    H145178   1.017   4.630   1.602  0.2790 -0.2522  0.4933
 7921TIP3    H245179   1.010   4.759   1.523  0.9621 -0.4002  0.1862
 7922TIP3   OH245180   0.551   1.911   0.445  0.8477  0.3123  0.0393
 7922TIP3    H145181   0.583   1.980   0.504 -0.8228 -0.1940  1.6406
 7922TIP3    H245182   0.525   1.957   0.366 -0.6410  1.6581  1.2392
 7923TIP3   OH245183   1.849   3.085  13.146 -0.3397  0.2362 -0.0543
 7923TIP3    H145184   1.880   3.164  13.103 -0.0520  0.9143  1.3285
 7923TIP3    H245185   1.757   3.077  13.122  0.1906 -0.3447 -2.0982
 7924TIP3   OH245186   3.682   2.866   4.921 -0.5935  0.5478 -0.3955
 7924TIP3    H145187   3.742   2.933   4.955  1.5628 -1.6006  0.2987
 7924TIP3    H245188   3.595   2.898   4.944  0.3319  3.0930 -0.1089
 7925TIP3   OH245189   0.208   0.089   4.204 -0.4774 -0.4019  0.3379
 7925TIP3    H145190   0.177  -0.002   4.208 -0.9459 -0.1980  1.8518
 7925TIP3    H245191   0.185   0.118   4.116 -2.8731 -0.8843  0.7220
 7926TIP3   OH245192   5.534   1.040   2.249  0.3944  0.3419  0.5292
 7926TIP3    H145193   5.487   1.105   2.197 -0.2951 -1.0210 -0.6664
 7926TIP3    H245194   5.468   1.006   2.310  0.4337  0.0127  0.3931
 7927TIP3   OH245195   2.406   0.399   4.537  0.4637 -0.0675  0.2085
 7927TIP3    H145196   2.454   0.316   4.537 -0.4152 -0.5894 -0.2305
 7927TIP3    H245197   2.355   0.398   4.619  1.1944  0.4930  0.6829
 7928TIP3   OH245198   5.139   2.182  12.237 -0.2389 -0.0081 -0.3643
 7928TIP3    H145199   5.068   2.228  12.281 -1.1708 -0.7322 -1.0607
 7928TIP3    H245200   5.206   2.170  12.304 -0.7519  0.7278  0.2920
 7929TIP3   OH245201   5.443   6.256  14.549 -0.0287  0.3909 -1.0536
 7929TIP3    H145202   5.505   6.183  14.551 -1.8884 -1.2885 -1.6776
 7929TIP3    H245203   5.478   6.316  14.483  1.2024 -0.2191 -0.9829
 7930TIP3   OH245204   5.302   4.619  12.523 -0.0322 -0.4992 -0.3391
 7930TIP3    H145205   5.338   4.707  12.516  1.9810 -1.1102  1.2739
 7930TIP3    H245206   5.256   4.605  12.440  1.2926  1.3472 -1.4506
 7931TIP3   OH245207   3.262   4.368  13.766  0.0583  0.1216 -0.2979
 7931TIP3    H145208   3.186   4.391  13.819  1.3388 -0.4654  1.8950
 7931TIP3    H245209   3.295   4.287  13.805  0.5867 -0.8386 -2.5571
 7932TIP3   OH245210   1.656   0.239  13.062  0.2630  0.1228 -0.0075
 7932TIP3    H145211   1.703   0.170  13.109  1.2222  0.5231 -0.3467
 7932TIP3    H245212   1.686   0.321  13.103 -0.0660  0.3917 -0.2992
 7933TIP3   OH245213   4.003   6.206  16.164  0.0957 -0.4752  0.7825
 7933TIP3    H145214   3.947   6.265  16.213 -0.6749 -0.1433 -0.4479
 7933TIP3    H245215   4.013   6.248  16.078  0.1410 -1.7609  0.1345
 7934TIP3   OH245216   2.879   1.644   3.831 -0.1489 -0.2292  0.8234
 7934TIP3    H145217   2.914   1.582   3.896  0.9761 -0.8424 -0.3259
 7934TIP3    H245218   2.955   1.670   3.779 -1.1561 -0.4178 -0.8009
 7935TIP3   OH245219   1.912   5.460  17.371  0.0974 -0.7233  0.3431
 7935TIP3    H145220   1.841   5.407  17.334  0.2720 -0.8441  0.1828
 7935TIP3    H245221   1.894   5.549  17.340  0.4968 -0.9026 -0.4006
 7936TIP3   OH245222   4.703   5.921   1.274  0.0698 -0.4746  0.1829
 7936TIP3    H145223   4.672   5.972   1.349  0.7892 -1.5564  1.2704
 7936TIP3    H245224   4.631   5.923   1.211 -0.0916  1.4698  0.3696
 7937TIP3   OH245225   2.593   1.750   2.543  0.1675 -0.2465  0.0273
 7937TIP3    H145226   2.582   1.811   2.471 -0.6966  1.0388  1.1870
 7937TIP3    H245227   2.505   1.739   2.579  0.8709  1.4915  2.6361
 7938TIP3   OH245228   0.395   0.319  15.992  0.8343  0.0480 -0.3693
 7938TIP3    H145229   0.436   0.297  15.908  0.4787  0.4849 -0.6647
 7938TIP3    H245230   0.304   0.337  15.970  0.4498 -0.9971  0.2922
 7939TIP3   OH245231   6.394   1.429  13.924  0.2780 -0.7134  0.1218
 7939TIP3    H145232   6.370   1.338  13.943 -0.6707 -0.6171 -0.5338
 7939TIP3    H245233   6.374   1.439  13.831 -0.1242  0.3169  0.3134
 7940TIP3   OH245234   3.537   0.696   4.857  0.5479  0.3851  0.1693
 7940TIP3    H145235   3.502   0.676   4.944  1.6239  0.5097  0.6598
 7940TIP3    H245236   3.562   0.611   4.821  0.1752  0.3413  0.0095
 7941TIP3   OH245237   1.212   1.226  10.279 -0.2171  0.1421  0.0530
 7941TIP3    H145238   1.178   1.207  10.367 -0.8589  1.8215  0.2104
 7941TIP3    H245239   1.139   1.268  10.234 -0.3064 -1.7857 -1.7501
 7942TIP3   OH245240   4.347   3.941  11.842  0.1934  0.2612  0.4103
 7942TIP3    H145241   4.427   3.902  11.806 -0.5059  0.8916 -2.0353
 7942TIP3    H245242   4.378   3.997  11.913  1.9133  0.2687 -0.2850
 7943TIP3   OH245243   5.596   4.487  16.097  0.5381  0.6724  0.6839
 7943TIP3    H145244   5.576   4.545  16.023  1.1519 -0.3481 -0.3213
 7943TIP3    H245245   5.692   4.489  16.103  0.5151  0.4050  1.1706
 7944TIP3   OH245246   5.911   3.067  11.962  0.0383 -0.1043  0.0047
 7944TIP3    H145247   5.864   3.145  11.930  0.2946  0.0810  0.0736
 7944TIP3    H245248   5.974   3.102  12.026  0.2331 -0.3554 -0.0496
 7945TIP3   OH245249   1.814   1.621   4.753  0.2579 -0.1323  0.2911
 7945TIP3    H145250   1.812   1.643   4.846 -1.4582 -0.1738  0.3063
 7945TIP3    H245251   1.825   1.705   4.709  0.4625 -0.0377  0.5191
 7946TIP3   OH245252   5.941   6.532  14.085 -0.1275 -0.6293 -0.0149
 7946TIP3    H145253   5.991   6.605  14.050  0.3438 -0.3616  1.1616
 7946TIP3    H245254   6.002   6.457  14.080 -0.4918 -0.8758 -0.9017
 7947TIP3   OH245255   4.886   4.913  15.775 -0.4486 -0.3362 -0.5109
 7947TIP3    H145256   4.930   4.997  15.777 -0.5762 -0.2844  0.5835
 7947TIP3    H245257   4.889   4.881  15.865  2.3746 -2.9865 -1.3864
 7948TIP3   OH245258   4.731   1.624  17.025  0.3739 -0.4263  0.5691
 7948TIP3    H145259   4.701   1.549  16.973  0.4332 -0.0433 -0.0260
 7948TIP3    H245260   4.697   1.700  16.979  0.6377 -0.0696  0.9589
 7949TIP3   OH245261   5.159   3.109  11.540  0.1153  0.3549 -0.1221
 7949TIP3    H145262   5.145   3.188  11.593  1.9330  0.1629  0.7025
 7949TIP3    H245263   5.230   3.063  11.584  0.4712 -0.7276 -1.7530
 7950TIP3   OH245264   4.110   1.278   3.184  0.7286 -0.4700 -0.9129
 7950TIP3    H145265   4.035   1.272   3.242  1.0004  0.1489 -0.4901
 7950TIP3    H245266   4.077   1.251   3.098  0.1896 -0.8361 -0.5905
 7951TIP3   OH245267   2.716   4.525  12.260 -0.3255  0.6123  0.6717
 7951TIP3    H145268   2.800   4.545  12.300  1.0466 -2.0385 -0.6235
 7951TIP3    H245269   2.669   4.474  12.326 -0.1064  0.4933  0.7374
 7952TIP3   OH245270   1.458   2.137   3.275 -0.0337 -0.5095  0.2338
 7952TIP3    H145271   1.502   2.128   3.359 -0.1743 -1.1072  0.2491
 7952TIP3    H245272   1.398   2.062   3.271  0.4118 -0.8360 -0.6510
 7953TIP3   OH245273   0.168   5.407   2.626 -0.4417  0.4028 -0.7253
 7953TIP3    H145274   0.193   5.401   2.718  0.2101  1.7367 -0.7874
 7953TIP3    H245275   0.073   5.409   2.626 -0.4514  0.0793 -0.1101
 7954TIP3   OH245276   0.059   0.873   3.847  0.4347  0.3615  0.4531
 7954TIP3    H145277  -0.033   0.877   3.824 -0.0827  0.5105  2.3577
 7954TIP3    H245278   0.105   0.903   3.769 -1.1413  0.7710 -0.3577
 7955TIP3   OH245279   6.430   0.045   6.022 -0.0829 -0.3163  0.3317
 7955TIP3    H145280   6.498   0.071   6.083 -0.4140  0.6303  0.3201
 7955TIP3    H245281   6.382  -0.025   6.067  0.7257 -0.8100  0.4410
 7956TIP3   OH245282   5.043   5.363  14.605 -0.2752 -0.6187  0.4297
 7956TIP3    H145283   4.949   5.368  14.622 -0.3462 -1.5850  0.3599
 7956TIP3    H245284   5.074   5.292  14.661  0.4139 -0.3104  0.4439
 7957TIP3   OH245285   2.594   4.387  13.330 -0.3537  0.1704  0.5397
 7957TIP3    H145286   2.550   4.403  13.413  0.2300 -1.3446  1.1858
 7957TIP3    H245287   2.523   4.373  13.267 -0.8097  1.8381  0.6260
 7958TIP3   OH245288   5.386   6.258   4.248 -0.3562 -0.5179 -0.5620
 7958TIP3    H145289   5.421   6.346   4.254 -0.7768 -0.4347  1.0856
 7958TIP3    H245290   5.316   6.255   4.313 -0.0187 -2.2053 -0.2210
 7959TIP3   OH245291   3.591   3.145  12.818  0.5786 -0.6353  0.4767
 7959TIP3    H145292   3.589   3.058  12.858 -2.4002 -1.5904 -1.3962
 7959TIP3    H245293   3.675   3.147  12.771 -0.8574 -4.4380 -2.9458
 7960TIP3   OH245294   0.670   6.685   4.111  0.0882 -0.1831  0.7103
 7960TIP3    H145295   0.607   6.720   4.047  1.5199 -0.0756 -0.6862
 7960TIP3    H245296   0.615   6.636   4.173 -1.4203  0.2546 -0.2076
 7961TIP3   OH245297   3.929   5.265   4.185 -0.2483  0.5389 -0.2842
 7961TIP3    H145298   3.860   5.217   4.232 -0.8416  0.4200 -1.2492
 7961TIP3    H245299   3.956   5.205   4.116  1.7872  0.0431  0.8655
 7962TIP3   OH245300   4.272   6.643  16.582 -0.0914  0.0655 -0.5564
 7962TIP3    H145301   4.211   6.569  16.588 -0.2488  0.3190  2.2157
 7962TIP3    H245302   4.359   6.602  16.579 -0.2486 -0.2408 -1.1799
 7963TIP3   OH245303   1.686   1.965  11.506 -0.4954 -0.4130  0.0298
 7963TIP3    H145304   1.606   1.915  11.521 -0.3218  0.0977  3.3220
 7963TIP3    H245305   1.756   1.908  11.538  0.1222  0.3375  0.0452
 7964TIP3   OH245306   2.108   5.788   2.759 -0.4787 -0.0916 -0.2216
 7964TIP3    H145307   2.194   5.746   2.761 -0.5521 -0.7532 -3.9625
 7964TIP3    H245308   2.123   5.871   2.714 -1.5841  0.4389  0.3607
 7965TIP3   OH245309   0.615   4.671   3.511  0.3873 -0.3983  0.4887
 7965TIP3    H145310   0.670   4.743   3.482 -0.0345 -0.0869  0.4521
 7965TIP3    H245311   0.550   4.661   3.442  0.7027 -1.1038  0.2839
 7966TIP3   OH245312   6.260   4.431  14.302 -0.0345  0.3448  0.1839
 7966TIP3    H145313   6.241   4.523  14.287 -0.8666  0.3696  1.3408
 7966TIP3    H245314   6.355   4.428  14.313 -0.0110  1.0724  0.2306
 7967TIP3   OH245315   3.020   4.214  11.447  0.1666  0.3318 -0.0752
 7967TIP3    H145316   3.088   4.149  11.432  0.1706  0.6207 -1.4514
 7967TIP3    H245317   2.982   4.190  11.531 -1.8764 -3.3413 -1.8202
 7968TIP3   OH245318   6.483   1.360  10.872  1.1094 -0.1326 -0.3636
 7968TIP3    H145319   6.408   1.322  10.827  1.0416 -0.8051  0.2917
 7968TIP3    H245320   6.445   1.419  10.937  1.2121  1.0080 -1.3157
 7969TIP3   OH245321   5.244   5.777   2.611 -0.3038 -0.4274  0.4579
 7969TIP3    H145322   5.184   5.710   2.644 -1.1932 -0.8949 -1.8559
 7969TIP3    H245323   5.191   5.828   2.549  1.0296  0.7929  0.2744
 7970TIP3   OH245324   0.772   2.409   5.213 -0.1238  0.4640  0.7995
 7970TIP3    H145325   0.804   2.382   5.127  0.5873  0.5494  1.0234
 7970TIP3    H245326   0.695   2.462   5.195 -0.9599 -0.8805  0.3075
 7971TIP3   OH245327   3.519   4.919   3.945 -0.3546 -0.5795  0.4701
 7971TIP3    H145328   3.552   5.007   3.961  1.5262 -0.8828 -1.2898
 7971TIP3    H245329   3.536   4.871   4.026 -0.4449  0.3974  1.0792
 7972TIP3   OH245330   5.873   5.008  12.124  0.1880  0.1626 -0.0805
 7972TIP3    H145331   5.964   4.989  12.099  0.2738  0.3356  0.0887
 7972TIP3    H245332   5.820   4.973  12.053  0.4916  1.7180 -1.1249
 7973TIP3   OH245333   3.639   5.109   2.733 -0.0199 -0.5961 -0.0036
 7973TIP3    H145334   3.634   5.046   2.805 -0.6606 -0.8498 -0.2632
 7973TIP3    H245335   3.549   5.139   2.721 -0.4328 -2.4425 -2.3497
 7974TIP3   OH245336   0.260   1.140   0.453  0.1282  0.6147 -0.1102
 7974TIP3    H145337   0.215   1.055   0.450  1.0423  0.0686  0.6449
 7974TIP3    H245338   0.265   1.168   0.362  1.5711 -1.1396 -0.6567
 7975TIP3   OH245339   1.823   4.855   4.437 -0.0460 -0.2040 -0.1143
 7975TIP3    H145340   1.757   4.904   4.389 -0.9281 -1.8403 -0.6295
 7975TIP3    H245341   1.774   4.787   4.483  1.0069  0.1012  1.5541
 7976TIP3   OH245342   1.398   1.255   3.987 -0.2463  0.4204 -0.3760
 7976TIP3    H145343   1.439   1.330   4.031  0.5284 -0.9427  1.3959
 7976TIP3    H245344   1.455   1.237   3.912  2.4035 -1.1691  1.7951
 7977TIP3   OH245345   3.773   3.954   4.317 -0.4600  0.1493  0.0526
 7977TIP3    H145346   3.697   3.897   4.312 -0.3381 -0.1844  1.5357
 7977TIP3    H245347   3.770   4.006   4.237 -1.4704 -0.8162 -0.5504
 7978TIP3   OH245348   2.124   2.918   1.363 -0.8641 -0.2628 -0.6590
 7978TIP3    H145349   2.185   2.866   1.414 -0.1460  0.3158 -0.9099
 7978TIP3    H245350   2.116   2.872   1.280  2.0229  1.4396 -2.0254
 7979TIP3   OH245351   5.911   3.351   3.341 -0.4661 -0.2953 -0.2628
 7979TIP3    H145352   5.905   3.441   3.307 -1.8458 -0.0971  0.4522
 7979TIP3    H245353   5.828   3.310   3.317  0.4187 -1.6216 -1.1803
 7980TIP3   OH245354   2.124   3.579  14.179 -0.4120  0.1696 -0.6612
 7980TIP3    H145355   2.155   3.669  14.187  0.8528 -0.2365 -0.6912
 7980TIP3    H245356   2.100   3.554  14.269  1.4195 -0.1708 -0.2105
 7981TIP3   OH245357   1.510   3.223   0.509 -0.0538 -0.0946  0.2352
 7981TIP3    H145358   1.497   3.276   0.430 -2.8567 -1.5615 -0.4223
 7981TIP3    H245359   1.424   3.222   0.551  0.7798 -1.3582  2.0107
 7982TIP3   OH245360   3.972   4.215  15.668 -0.2673 -0.2251 -0.1770
 7982TIP3    H145361   3.911   4.238  15.598  0.3786 -0.7252 -0.9212
 7982TIP3    H245362   4.004   4.299  15.702 -0.5055  0.0152 -0.5467
 7983TIP3   OH245363   4.286   1.213   3.821  0.1336 -0.0367  0.8401
 7983TIP3    H145364   4.195   1.241   3.829 -0.3730 -0.7125 -1.6152
 7983TIP3    H245365   4.330   1.252   3.896 -2.7796 -2.4145  4.1254
 7984TIP3   OH245366   1.697   4.164   5.765  0.1310 -0.2852  0.2115
 7984TIP3    H145367   1.731   4.247   5.732 -1.8382  0.6416  0.4260
 7984TIP3    H245368   1.676   4.180   5.857 -0.7663 -0.8496  0.1208
 7985TIP3   OH245369   1.866   1.108  16.682  0.3242  0.4387 -0.0165
 7985TIP3    H145370   1.918   1.171  16.633  1.5904 -0.9190 -0.5150
 7985TIP3    H245371   1.929   1.064  16.739 -0.4668 -0.5722  0.1074
 7986TIP3   OH245372   0.430   5.111  13.792  0.0351 -0.3133  0.1552
 7986TIP3    H145373   0.475   5.128  13.875  0.8483  0.5880 -0.4533
 7986TIP3    H245374   0.469   5.172  13.730 -0.3375 -1.1861 -0.9832
 7987TIP3   OH245375   1.942   6.718  11.491  0.3375  0.5814 -0.0153
 7987TIP3    H145376   2.030   6.750  11.511  0.9083 -0.6093 -0.5297
 7987TIP3    H245377   1.904   6.786  11.436  0.5925  1.5321  0.9542
 7988TIP3   OH245378   5.178   5.640  16.075 -0.0135 -0.3416 -0.1252
 7988TIP3    H145379   5.265   5.610  16.099 -0.1683 -0.3889  0.3950
 7988TIP3    H245380   5.180   5.735  16.089 -0.0350 -0.3400 -0.1343
 7989TIP3   OH245381   1.094   3.809   5.507  0.0019  0.3112 -0.1236
 7989TIP3    H145382   1.091   3.738   5.442 -0.4258 -0.0059  0.2307
 7989TIP3    H245383   1.168   3.863   5.480  0.1842 -0.1347 -0.5454
 7990TIP3   OH245384   1.239   0.483   2.857 -0.3911 -0.0219 -0.2424
 7990TIP3    H145385   1.192   0.499   2.775 -2.2976 -0.0314  0.7935
 7990TIP3    H245386   1.219   0.559   2.912 -1.6971 -1.3915  1.2847
 7991TIP3   OH245387   1.995   6.280   1.315  0.3442  0.0787 -0.8531
 7991TIP3    H145388   1.916   6.317   1.276  0.7174  1.2883 -0.4824
 7991TIP3    H245389   2.003   6.193   1.274 -1.2223 -0.1086 -0.8155
 7992TIP3   OH245390   1.877   3.322  10.744 -0.5270  0.6700  0.2122
 7992TIP3    H145391   1.869   3.296  10.653  1.0302  0.3624  0.1255
 7992TIP3    H245392   1.787   3.326  10.777 -1.0252 -2.2863 -0.4849
 7993TIP3   OH245393   4.825   1.768   5.857 -0.3184  0.0305 -0.7793
 7993TIP3    H145394   4.919   1.759   5.842 -0.1381  2.6304 -1.7029
 7993TIP3    H245395   4.819   1.816   5.939 -0.7807  0.7698 -1.2356
 7994TIP3   OH245396   4.208   4.074  15.543  0.1570 -0.3526  0.6640
 7994TIP3    H145397   4.156   4.146  15.576  0.5442 -0.6637  1.9880
 7994TIP3    H245398   4.146   4.002  15.531  0.3159 -0.8862  2.7284
 7995TIP3   OH245399   3.254   2.870   4.271  0.1858 -0.0302 -0.0197
 7995TIP3    H145400   3.317   2.803   4.245  0.3925 -0.0242  0.4451
 7995TIP3    H245401   3.306   2.950   4.279  0.3463 -0.2475  1.4204
 7996TIP3   OH245402   4.762   6.201   0.485 -0.2508 -0.3748 -0.3123
 7996TIP3    H145403   4.773   6.114   0.446 -0.4110 -1.0097  1.0118
 7996TIP3    H245404   4.797   6.261   0.419  2.2017 -1.6169 -0.2783
 7997TIP3   OH245405   5.675   2.139   4.487  0.2270 -0.2605 -0.3261
 7997TIP3    H145406   5.583   2.123   4.509  0.3443 -0.1813  0.2245
 7997TIP3    H245407   5.688   2.232   4.506  0.5834 -0.4127  0.1585
 7998TIP3   OH245408   5.065   0.991  16.781 -0.0088 -0.6936  0.4981
 7998TIP3    H145409   4.980   0.953  16.762 -0.4987  1.4263 -2.0189
 7998TIP3    H245410   5.128   0.925  16.752 -0.8240 -0.8207 -1.0656
 7999TIP3   OH245411   6.325   1.389  15.026 -0.1624  0.6707  0.4888
 7999TIP3    H145412   6.322   1.294  15.023 -0.5785  0.6983 -0.5928
 7999TIP3    H245413   6.234   1.416  15.010  0.2889  1.2441 -1.4116
 8000TIP3   OH245414   0.404   4.782   0.097 -0.8104 -0.5251 -0.0977
 8000TIP3    H145415   0.366   4.823   0.175 -0.2838 -1.2566  0.5645
 8000TIP3    H245416   0.486   4.830   0.082 -0.6797 -0.6854  0.0902
 8001TIP3   OH245417   5.143   5.700  13.020 -0.3661  0.2197  0.8432
 8001TIP3    H145418   5.160   5.621  12.969 -0.1300  1.8568 -1.7770
 8001TIP3    H245419   5.224   5.713  13.071  0.5654  0.0599 -0.5423
 8002TIP3   OH245420   1.895   5.543  14.818  0.2038 -0.8025 -0.4106
 8002TIP3    H145421   1.822   5.570  14.762 -0.5825  0.0694  0.9875
 8002TIP3    H245422   1.888   5.448  14.823 -0.0118 -0.8452 -1.3657
 8003TIP3   OH245423   3.805   0.638   0.031 -0.1856  0.2742 -0.2943
 8003TIP3    H145424   3.852   0.639  -0.053  0.7378  0.0026  0.2074
 8003TIP3    H245425   3.812   0.547   0.061 -1.9943 -0.0540 -0.7133
 8004TIP3   OH245426   0.591   5.231   4.184 -0.4213  0.0774 -0.2375
 8004TIP3    H145427   0.532   5.278   4.242 -0.5760 -0.0686 -0.2746
 8004TIP3    H245428   0.678   5.250   4.218 -0.3779  1.5438 -1.0882
 8005TIP3   OH245429   6.116   0.801   0.567  0.5680  0.3368 -0.2517
 8005TIP3    H145430   6.021   0.802   0.583  0.5420 -2.4124  0.4046
 8005TIP3    H245431   6.144   0.892   0.578 -1.8295  1.0389  0.6220
 8006TIP3   OH245432   5.014   6.105  15.213 -0.5236 -0.1167 -0.3835
 8006TIP3    H145433   5.088   6.161  15.234  0.6077 -1.8577  0.5138
 8006TIP3    H245434   4.971   6.089  15.297 -0.5514 -0.9552 -0.5505
 8007TIP3   OH245435   3.303   0.161  16.176  0.3276 -0.5125  0.5352
 8007TIP3    H145436   3.227   0.117  16.137  1.1545 -2.0424  0.5866
 8007TIP3    H245437   3.274   0.251  16.190 -1.9273 -1.3610  1.7640
 8008TIP3   OH245438   3.568   0.425   2.705  0.0453 -0.1528 -0.4096
 8008TIP3    H145439   3.512   0.378   2.643 -0.2324  0.4048 -0.5882
 8008TIP3    H245440   3.511   0.492   2.742  0.7406  0.7865 -1.0031
 8009TIP3   OH245441   6.115   2.277  15.920  0.3541 -0.1738  0.0274
 8009TIP3    H145442   6.105   2.182  15.922 -0.7719 -0.0883  2.7837
 8009TIP3    H245443   6.172   2.297  15.994 -0.5949  1.3633  0.3873
 8010TIP3   OH245444   1.284   4.843  14.384  0.0854 -0.2038 -0.0877
 8010TIP3    H145445   1.376   4.832  14.408  0.9985  1.2677 -2.5928
 8010TIP3    H245446   1.239   4.771  14.430  2.1563  0.0100  2.5337
 8011TIP3   OH245447   1.848   3.845   0.538 -0.5227  0.1286 -0.0231
 8011TIP3    H145448   1.798   3.839   0.619 -1.5264 -1.7525 -0.7129
 8011TIP3    H245449   1.816   3.924   0.495 -0.4434  0.7804  1.0850
 8012TIP3   OH245450   3.299   0.050  13.565  0.2280 -0.7088  0.2726
 8012TIP3    H145451   3.288   0.019  13.476 -0.0895  0.5314 -0.1364
 8012TIP3    H245452   3.232   0.118  13.576  2.4633  1.6634  0.2578
 8013TIP3   OH245453   1.503   3.203   5.674 -0.2106 -0.2225 -0.0822
 8013TIP3    H145454   1.586   3.248   5.654 -1.4509  1.7705 -1.0766
 8013TIP3    H245455   1.485   3.226   5.765  1.4390 -2.6565  0.9656
 8014TIP3   OH245456   2.120   2.262  14.256  0.2708  0.3652 -0.0896
 8014TIP3    H145457   2.035   2.222  14.238 -0.2706  1.4090  0.0901
 8014TIP3    H245458   2.176   2.189  14.282 -0.3076 -0.4594 -1.0958
 8015TIP3   OH245459   0.652   1.358  13.411 -0.0098 -0.1123  0.3219
 8015TIP3    H145460   0.657   1.380  13.318 -0.7052 -2.2986 -0.3110
 8015TIP3    H245461   0.742   1.340  13.436 -0.0026 -1.5293 -0.5470
 8016TIP3   OH245462   2.562   2.359   3.584  0.3577 -0.8093  0.5747
 8016TIP3    H145463   2.642   2.388   3.540  1.6212 -2.2303  1.8240
 8016TIP3    H245464   2.538   2.278   3.539 -0.3297 -0.4387  0.2690
 8017TIP3   OH245465   2.974   4.975   5.417  0.4330  0.0419  0.8358
 8017TIP3    H145466   3.045   5.002   5.476 -0.4242  0.7899  1.5399
 8017TIP3    H245467   2.919   4.919   5.470 -0.4534  0.8777  0.8188
 8018TIP3   OH245468   0.835   0.785   0.757 -0.4174  0.2406 -0.1373
 8018TIP3    H145469   0.878   0.704   0.730 -0.7935 -0.9430  2.4957
 8018TIP3    H245470   0.748   0.781   0.718 -1.0240 -1.4975  1.2558
 8019TIP3   OH245471   4.853   5.110  13.753 -0.2600 -0.2398 -0.6476
 8019TIP3    H145472   4.791   5.078  13.688 -3.3480 -0.9409  2.3352
 8019TIP3    H245473   4.883   5.032  13.799 -0.6630  0.4104  0.7897
 8020TIP3   OH245474   2.142   5.992  10.806 -0.4884  0.3174  0.2817
 8020TIP3    H145475   2.109   5.988  10.716 -0.1932 -0.7702  0.2115
 8020TIP3    H245476   2.068   5.963  10.860  0.2286 -1.9234  0.1399
 8021TIP3   OH245477   0.121   6.434  13.245 -0.8166  0.3686 -0.0807
 8021TIP3    H145478   0.192   6.495  13.223  0.8178 -1.5272 -0.4301
 8021TIP3    H245479   0.064   6.483  13.303  0.1250  2.3783 -0.7435
 8022TIP3   OH245480   6.586   6.723  16.168 -0.1298 -0.3173  0.2464
 8022TIP3    H145481   6.555   6.705  16.079  1.5606 -1.9942 -0.0774
 8022TIP3    H245482   6.628   6.641  16.196 -0.5748  0.1810  2.5911
 8023TIP3   OH245483   5.358   0.816   1.525  0.1648  0.1558  0.2474
 8023TIP3    H145484   5.378   0.733   1.567 -1.9401 -0.2695  0.5121
 8023TIP3    H245485   5.283   0.797   1.468 -0.5864  1.9195  0.5714
 8024TIP3   OH245486   3.976   4.119   0.115  0.1630 -0.2589 -0.4869
 8024TIP3    H145487   3.895   4.118   0.064  0.7846  0.2460 -1.5114
 8024TIP3    H245488   4.025   4.043   0.083 -0.8501 -1.9912  1.7763
 8025TIP3   OH245489   0.330   3.830  15.602 -0.2274  0.1918  0.1724
 8025TIP3    H145490   0.329   3.912  15.652  1.5555  1.8989 -2.3672
 8025TIP3    H245491   0.263   3.842  15.535 -1.1550 -1.1997  0.8063
 8026TIP3   OH245492   4.722   0.414   0.691 -0.2472  0.2540  0.0299
 8026TIP3    H145493   4.796   0.456   0.736  1.0930 -0.7381 -1.1623
 8026TIP3    H245494   4.703   0.473   0.618 -2.0538  1.5757  1.4900
 8027TIP3   OH245495   5.086   2.781   0.635  0.2298  0.8360  0.0233
 8027TIP3    H145496   5.150   2.711   0.620  0.4015  1.1128 -0.5388
 8027TIP3    H245497   5.133   2.844   0.690 -0.6190 -0.5068  2.4742
 8028TIP3   OH245498   1.642   4.362  14.460 -0.1838  0.0284 -0.0896
 8028TIP3    H145499   1.738   4.365  14.460 -0.1496  0.3208  2.0443
 8028TIP3    H245500   1.621   4.269  14.467  0.0084  0.0619  1.2062
 8029TIP3   OH245501   0.757   1.982   5.489  0.0013  0.0323 -0.5723
 8029TIP3    H145502   0.787   2.059   5.441 -0.2463  1.3804  1.3313
 8029TIP3    H245503   0.834   1.953   5.538 -0.1591 -0.3780 -0.5592
 8030TIP3   OH245504   3.332   0.704   5.376 -0.4771  0.5790 -0.0062
 8030TIP3    H145505   3.276   0.629   5.357  1.5801 -1.2846  0.8322
 8030TIP3    H245506   3.420   0.667   5.385  0.6629  3.1282  0.3250
 8031TIP3   OH245507   0.648   6.272  12.714 -0.3972  0.2631 -0.1576
 8031TIP3    H145508   0.719   6.221  12.675  0.2073 -0.3443  1.6462
 8031TIP3    H245509   0.569   6.222  12.694 -0.0883 -0.1346 -0.4075
 8032TIP3   OH245510   4.817   0.362  13.726  0.2397  0.0035  0.5057
 8032TIP3    H145511   4.832   0.399  13.813  0.0033  0.6626  0.2742
 8032TIP3    H245512   4.766   0.429  13.679  2.1719  0.6085 -0.8447
 8033TIP3   OH245513   2.236   1.199  12.121  0.1610  0.3033 -0.6317
 8033TIP3    H145514   2.193   1.276  12.084  1.5028  1.1357 -0.5225
 8033TIP3    H245515   2.261   1.225  12.209 -4.1054 -2.0473  1.6174
 8034TIP3   OH245516   1.707   5.753   3.602  0.7807  0.1907  0.4045
 8034TIP3    H145517   1.628   5.807   3.594  1.3548  1.2367  1.5207
 8034TIP3    H245518   1.710   5.704   3.519 -0.9726  0.1824  0.2953
 8035TIP3   OH245519   6.008   2.464  13.279  0.2387  0.2246  0.6582
 8035TIP3    H145520   5.970   2.529  13.338  0.6721  0.0233  1.1714
 8035TIP3    H245521   5.993   2.380  13.324  0.6500  0.0791  0.5306
 8036TIP3   OH245522   5.301   1.379  14.183  0.0101  0.8126 -0.1822
 8036TIP3    H145523   5.309   1.464  14.140  0.2716  1.3528  0.8959
 8036TIP3    H245524   5.344   1.391  14.268 -0.7285 -0.1293  0.3488
 8037TIP3   OH245525   5.679   5.388  12.635 -0.1268 -0.0343  0.2159
 8037TIP3    H145526   5.745   5.391  12.566  1.1363 -0.1769  1.3782
 8037TIP3    H245527   5.597   5.412  12.591  0.8074  0.8161 -1.1251
 8038TIP3   OH245528   3.588   5.982   3.415  0.1197 -0.1664 -0.6783
 8038TIP3    H145529   3.552   6.044   3.351 -1.1884  0.4186  0.5647
 8038TIP3    H245530   3.511   5.944   3.457  0.9423 -1.1162  0.0087
 8039TIP3   OH245531   0.321   0.358  14.623 -0.0173  0.5044  0.0279
 8039TIP3    H145532   0.399   0.323  14.581 -0.4711 -0.2782 -0.1924
 8039TIP3    H245533   0.351   0.393  14.707  0.5151 -0.0640  0.0736
 8040TIP3   OH245534   2.356   6.218   3.783  0.3614  0.3584  0.4054
 8040TIP3    H145535   2.288   6.284   3.770  1.2327  1.3861  0.9567
 8040TIP3    H245536   2.310   6.134   3.774 -0.7876  1.0320 -0.1611
 8041TIP3   OH245537   5.497   0.089  11.396  0.0604  0.3014 -0.3362
 8041TIP3    H145538   5.529   0.179  11.400 -1.5819  0.9003  0.5761
 8041TIP3    H245539   5.491   0.070  11.302  0.1311  1.2766 -0.5509
 8042TIP3   OH245540   2.127   4.832  14.184  0.0809  0.2991 -0.3813
 8042TIP3    H145541   2.213   4.789  14.178  0.4528  0.7162  1.4662
 8042TIP3    H245542   2.135   4.908  14.127  0.7523  0.0606 -0.6286
 8043TIP3   OH245543   5.372   2.006  14.925 -0.1989  0.1382 -0.3294
 8043TIP3    H145544   5.364   1.973  14.836  1.6991  1.2986 -0.9843
 8043TIP3    H245545   5.440   1.952  14.964  1.6271  1.9633 -0.8273
 8044TIP3   OH245546   6.597   3.403   2.649  0.0558 -0.5252 -0.3433
 8044TIP3    H145547   6.610   3.426   2.741  0.7280  1.5027 -0.9125
 8044TIP3    H245548   6.510   3.363   2.647  0.1433 -0.8648  1.1998
 8045TIP3   OH245549   5.384   6.461  11.344  0.2507  0.2447  0.1996
 8045TIP3    H145550   5.395   6.456  11.439  2.9636  0.5893 -0.0174
 8045TIP3    H245551   5.364   6.372  11.317 -0.5850  0.1480  1.0754
 8046TIP3   OH245552   3.409   6.501   4.717  0.0904  0.6436 -0.2103
 8046TIP3    H145553   3.405   6.597   4.710 -0.8786  0.8204  1.8448
 8046TIP3    H245554   3.401   6.484   4.811  1.5688 -1.4322 -0.4065
 8047TIP3   OH245555   5.509   0.941  15.734  0.4495 -0.4518 -0.0409
 8047TIP3    H145556   5.562   1.019  15.747 -0.0876 -0.1187  0.1724
 8047TIP3    H245557   5.563   0.870  15.769  0.6364 -0.0800  0.4351
 8048TIP3   OH245558   6.146   3.907   2.107  0.1516 -0.4723 -0.0808
 8048TIP3    H145559   6.189   3.937   2.026  0.3428  1.2987  0.6321
 8048TIP3    H245560   6.208   3.928   2.176 -1.2314  0.8295  0.8303
 8049TIP3   OH245561   3.940   5.341  12.333 -0.3847  0.2904  0.7947
 8049TIP3    H145562   3.915   5.294  12.253 -0.2792  0.9601  0.3575
 8049TIP3    H245563   4.015   5.394  12.306 -1.9021  2.4773  0.6613
 8050TIP3   OH245564   0.166   0.123   2.235  0.6940  0.4878 -0.7516
 8050TIP3    H145565   0.180   0.210   2.273  1.3368  0.7064 -1.4480
 8050TIP3    H245566   0.071   0.114   2.230  0.6201  1.1134 -0.5788
 8051TIP3   OH245567   0.119   5.874  11.261 -0.3715 -0.5846  0.4432
 8051TIP3    H145568   0.177   5.928  11.208 -0.7362  1.0665  1.6207
 8051TIP3    H245569   0.149   5.784  11.246 -0.9622 -0.3358 -3.1136
 8052TIP3   OH245570   5.617   1.359  13.237 -0.0153 -0.1187 -0.1348
 8052TIP3    H145571   5.587   1.392  13.152 -0.0940 -1.2884 -0.5805
 8052TIP3    H245572   5.656   1.274  13.217 -1.1167 -0.9759  1.1558
 8053TIP3   OH245573   4.704   3.807   5.435  0.0559 -0.1971  0.1611
 8053TIP3    H145574   4.767   3.760   5.380 -0.4769 -1.9427  0.9930
 8053TIP3    H245575   4.716   3.770   5.522 -1.3323  0.2552  0.5646
 8054TIP3   OH245576   2.997   0.395  15.574  0.2342 -0.1221  0.5101
 8054TIP3    H145577   2.936   0.335  15.531  0.0182 -0.6036  1.4481
 8054TIP3    H245578   3.002   0.471  15.516 -1.7506  0.1966  0.6825
 8055TIP3   OH245579   2.959   0.665  15.968  0.2043 -0.9429 -0.0966
 8055TIP3    H145580   2.909   0.709  16.037  0.0635 -1.7420  0.3181
 8055TIP3    H245581   2.915   0.690  15.887  0.2302 -0.1862  0.1057
 8056TIP3   OH245582   0.348   3.012  14.840  0.0889  0.4290  0.6446
 8056TIP3    H145583   0.414   3.072  14.878 -0.1899  1.5127 -0.5071
 8056TIP3    H245584   0.296   3.068  14.783 -1.2086 -0.6303  0.7561
 8057TIP3   OH245585   6.592   0.238   0.414  0.0090  0.0740 -0.2824
 8057TIP3    H145586   6.551   0.307   0.362 -1.0170  0.1567  0.6022
 8057TIP3    H245587   6.523   0.207   0.472  1.1382  0.0286  1.0817
 8058TIP3   OH245588   3.100   6.480  15.382  0.0584  0.0617  0.3217
 8058TIP3    H145589   3.158   6.457  15.309 -0.9384 -2.5372  0.2376
 8058TIP3    H245590   3.077   6.571  15.367  0.9841 -0.0086 -1.8376
 8059TIP3   OH245591   5.878   2.751  14.783 -0.6240 -0.5190 -0.2328
 8059TIP3    H145592   5.891   2.846  14.795 -1.4505 -0.5348  0.9678
 8059TIP3    H245593   5.967   2.716  14.776 -0.2905  0.2997 -0.2884
 8060TIP3   OH245594   1.622   4.607  11.268 -0.1764 -0.7841 -0.3142
 8060TIP3    H145595   1.615   4.512  11.253  0.4243 -0.9408  0.2832
 8060TIP3    H245596   1.702   4.616  11.321 -1.0181 -0.0965  0.8910
 8061TIP3   OH245597   1.058   1.190   0.106 -0.1329 -0.3470  0.5302
 8061TIP3    H145598   1.098   1.125   0.049  0.3113 -0.0201  0.4596
 8061TIP3    H245599   0.980   1.148   0.140 -0.5569 -0.4534 -0.5373
 8062TIP3   OH245600   4.171   4.823   6.033  0.2215  0.0791 -0.7165
 8062TIP3    H145601   4.202   4.746   6.082 -1.6622 -0.1565  0.2146
 8062TIP3    H245602   4.086   4.796   5.998 -0.1091  1.4799 -1.0487
 8063TIP3   OH245603   0.421   4.189   3.203  0.0774  0.2771 -0.4160
 8063TIP3    H145604   0.398   4.201   3.111  1.1580 -1.9115 -1.0555
 8063TIP3    H245605   0.344   4.146   3.242 -0.4615  1.3929 -0.2192
 8064TIP3   OH245606   2.621   3.639   3.793  0.0266  0.0951  0.5709
 8064TIP3    H145607   2.603   3.719   3.842 -0.9578 -0.0512  0.4684
 8064TIP3    H245608   2.662   3.581   3.857 -0.5534  0.1762  1.0189
 8065TIP3   OH245609   2.227   3.407  15.085  0.0436 -0.0831  0.6955
 8065TIP3    H145610   2.290   3.478  15.099 -0.6012  1.2178 -2.2575
 8065TIP3    H245611   2.271   3.347  15.025 -0.7292 -0.2571  0.2845
 8066TIP3   OH245612   4.941   2.262   4.243 -0.1279 -0.1728  0.0865
 8066TIP3    H145613   5.006   2.197   4.269  0.6900 -0.4915 -2.5159
 8066TIP3    H245614   4.977   2.345   4.275  1.5419 -0.3575 -1.2008
 8067TIP3   OH245615   0.394   4.082   5.838 -0.0866 -0.1111  0.2465
 8067TIP3    H145616   0.359   4.125   5.916 -0.5375 -0.3798  0.1923
 8067TIP3    H245617   0.325   4.023   5.810  0.3295 -0.4913  0.0145
 8068TIP3   OH245618   4.973   6.466  13.120  0.2201 -0.1390 -0.3256
 8068TIP3    H145619   5.003   6.442  13.033  0.3775  3.0937 -1.2960
 8068TIP3    H245620   4.899   6.408  13.137  0.1874 -0.8502 -2.6170
 8069TIP3   OH245621   0.433   4.332   2.252  0.1038  0.2267 -0.5232
 8069TIP3    H145622   0.351   4.349   2.298  0.2513 -0.6412  0.0716
 8069TIP3    H245623   0.426   4.385   2.172 -1.4906 -0.6298 -0.9946
 8070TIP3   OH245624   1.059   0.070  13.520 -0.3518 -0.0845 -0.2192
 8070TIP3    H145625   1.023   0.122  13.448  0.2789  0.4378 -0.1665
 8070TIP3    H245626   1.134   0.121  13.551  0.9949 -1.5597 -0.9303
 8071TIP3   OH245627   3.003   2.833  14.432  0.3975  0.0546  0.1012
 8071TIP3    H145628   3.003   2.893  14.357  0.4599 -0.4994 -0.3500
 8071TIP3    H245629   3.081   2.780  14.419 -0.1600 -0.7495 -0.0108
 8072TIP3   OH245630   0.838   3.711  16.261 -0.3223 -0.3129  0.3134
 8072TIP3    H145631   0.914   3.717  16.318  0.8133  0.1847 -1.1717
 8072TIP3    H245632   0.870   3.663  16.184 -1.7631 -0.8870  0.0466
 8073TIP3   OH245633   6.304   0.801  13.286  0.4380 -0.1376 -0.2694
 8073TIP3    H145634   6.217   0.812  13.325  0.3736 -0.2190 -0.3883
 8073TIP3    H245635   6.326   0.709  13.302  1.0803  0.1986  0.9411
 8074TIP3   OH245636   4.864   5.137   3.513 -0.5297 -0.6175  0.0535
 8074TIP3    H145637   4.819   5.131   3.597 -0.8585  2.3731  0.1878
 8074TIP3    H245638   4.955   5.156   3.535 -0.5458 -0.1539 -0.2745
 8075TIP3   OH245639   1.767   3.065   4.731 -0.5532 -0.1110  0.4496
 8075TIP3    H145640   1.712   3.112   4.793  1.1863  0.1112  1.9047
 8075TIP3    H245641   1.817   3.133   4.686 -0.6579 -0.3708 -0.0765
 8076TIP3   OH245642   2.888   6.208  16.168  0.1452 -0.3588  0.1220
 8076TIP3    H145643   2.872   6.114  16.176 -1.4636 -0.0667  0.7451
 8076TIP3    H245644   2.867   6.244  16.255 -3.0582  1.0230 -1.0794
 8077TIP3   OH245645   4.353   1.281   3.554 -0.5126 -0.3476 -0.1154
 8077TIP3    H145646   4.442   1.317   3.548 -0.0495 -1.4340 -0.0788
 8077TIP3    H245647   4.335   1.280   3.648  0.4881 -2.4924  0.1132
 8078TIP3   OH245648   3.394   0.288   1.921  0.2384 -0.4024  0.2020
 8078TIP3    H145649   3.465   0.244   1.875  1.2277 -0.5208  1.7887
 8078TIP3    H245650   3.331   0.218   1.940  0.3139 -0.5337 -0.0225
 8079TIP3   OH245651   1.474   2.162   1.338  0.1836  0.2201  0.1413
 8079TIP3    H145652   1.385   2.128   1.349  0.0220  0.5327 -0.1964
 8079TIP3    H245653   1.528   2.083   1.328  0.1979 -0.0468  2.0265
 8080TIP3   OH245654   5.290   3.290   1.024  0.6971  0.7279  0.3814
 8080TIP3    H145655   5.353   3.288   1.096 -0.0206 -1.3442  1.0332
 8080TIP3    H245656   5.279   3.198   0.999 -1.7656  1.0454  0.0468
 8081TIP3   OH245657   4.699   0.556   0.463 -0.0921  0.5399 -0.2803
 8081TIP3    H145658   4.656   0.501   0.397  1.5322 -0.1464 -0.7990
 8081TIP3    H245659   4.773   0.596   0.417 -0.1338  1.6911  0.6001
 8082TIP3   OH245660   5.175   4.820  17.154 -0.1065 -0.5291 -0.1718
 8082TIP3    H145661   5.239   4.830  17.224 -0.8474  0.9774  0.3226
 8082TIP3    H245662   5.121   4.899  17.159 -0.1412 -0.3427 -2.4940
 8083TIP3   OH245663   5.522   5.087  15.993 -0.4542 -0.2779 -0.5103
 8083TIP3    H145664   5.581   5.014  16.009  0.0467  0.3278  0.5122
 8083TIP3    H245665   5.434   5.048  15.994 -0.3420 -0.6176  1.9690
 8084TIP3   OH245666   1.540   6.495  12.054  0.5894  0.2589  0.0268
 8084TIP3    H145667   1.505   6.580  12.029  0.4633  0.3678  0.5546
 8084TIP3    H245668   1.506   6.435  11.988  1.0941  0.6924 -0.6379
 8085TIP3   OH245669   0.167   5.477  11.760  0.5231  0.3421  0.1014
 8085TIP3    H145670   0.246   5.529  11.742 -0.5080  2.0815  0.2905
 8085TIP3    H245671   0.126   5.466  11.674  0.2719  0.6792  0.1726
 8086TIP3   OH245672   4.880   1.774  12.007 -0.1314 -0.2842 -0.0457
 8086TIP3    H145673   4.924   1.854  12.035  1.6917 -1.4674  0.5998
 8086TIP3    H245674   4.791   1.783  12.042  0.0701  1.3753  0.1243
 8087TIP3   OH245675   3.804   4.386   1.526  0.5244  0.4785  0.3478
 8087TIP3    H145676   3.734   4.343   1.478  0.8997  0.0177  0.2112
 8087TIP3    H245677   3.759   4.452   1.579  0.0687  0.7338 -0.3387
 8088TIP3   OH245678   4.049   0.928  14.783 -0.1254 -0.1461  0.4322
 8088TIP3    H145679   4.023   0.908  14.694 -1.3948  1.8663  0.2865
 8088TIP3    H245680   4.111   1.001  14.774  0.7484 -0.7801  1.1418
 8089TIP3   OH245681   5.946   2.352  13.672  0.2851  0.4091 -0.7263
 8089TIP3    H145682   5.865   2.396  13.647  0.2442  1.2311  0.7672
 8089TIP3    H245683   6.012   2.421  13.677  0.5670  0.0918  0.1847
 8090TIP3   OH245684   2.231   3.131  14.269 -0.8781  0.1233 -0.2808
 8090TIP3    H145685   2.238   3.204  14.207 -0.7986  0.3239 -0.0381
 8090TIP3    H245686   2.182   3.168  14.343 -1.6102 -0.3210 -0.5373
 8091TIP3   OH245687   5.548   1.135  13.862 -0.2188  0.3646 -0.6592
 8091TIP3    H145688   5.587   1.049  13.847  0.5647  0.9142 -2.0169
 8091TIP3    H245689   5.522   1.135  13.954 -0.8747 -1.5636 -0.8026
 8092TIP3   OH245690   0.058   4.375   2.135 -0.7772 -0.2083  0.1883
 8092TIP3    H145691   0.076   4.283   2.156  1.2867 -0.1759 -1.1033
 8092TIP3    H245692   0.002   4.406   2.206  0.5581 -1.7772  2.0321
 8093TIP3   OH245693   5.590   5.827   6.193  0.2653 -0.1627 -0.3807
 8093TIP3    H145694   5.616   5.774   6.268  0.3052  0.2020 -0.1410
 8093TIP3    H245695   5.501   5.853   6.211  0.5505  0.6079 -0.0802
 8094TIP3   OH245696   5.642   1.727  17.261  0.1551  0.0555  0.5113
 8094TIP3    H145697   5.670   1.725  17.353  0.4250  1.2358  0.4720
 8094TIP3    H245698   5.704   1.669  17.216  1.4648  1.2287  0.7212
 8095TIP3   OH245699   1.751   0.946  12.620 -0.1876 -0.9344  0.0942
 8095TIP3    H145700   1.669   0.949  12.572  0.9545  0.0336 -1.9133
 8095TIP3    H245701   1.777   0.853  12.617 -0.2566 -0.9323 -1.0129
 8096TIP3   OH245702   0.310   2.759  14.091  0.3353 -0.4886 -0.3846
 8096TIP3    H145703   0.367   2.793  14.161  1.4337 -3.2059  0.1508
 8096TIP3    H245704   0.359   2.777  14.011 -0.1068  1.0264 -0.3591
 8097TIP3   OH245705   5.324   6.443  12.452 -0.3890 -0.2184  0.5705
 8097TIP3    H145706   5.388   6.372  12.454  0.0607  0.1528 -0.3178
 8097TIP3    H245707   5.363   6.509  12.396 -0.9774  0.5776  1.0727
 8098TIP3   OH245708   3.359   4.024   6.171 -0.4943 -0.6369 -0.1257
 8098TIP3    H145709   3.360   4.119   6.175 -1.8241 -0.6411  1.3623
 8098TIP3    H245710   3.341   4.004   6.079 -3.1398  0.6484  0.0153
 8099TIP3   OH245711   1.548   1.586   1.514 -0.2765 -0.4394 -0.4119
 8099TIP3    H145712   1.500   1.587   1.431 -0.0764 -0.8706 -0.5376
 8099TIP3    H245713   1.638   1.564   1.489 -0.3391 -1.1740 -0.0276
 8100TIP3   OH245714   2.859   3.536  14.700 -0.4318  0.2921 -0.3113
 8100TIP3    H145715   2.785   3.587  14.734 -0.0036  1.5504 -1.2002
 8100TIP3    H245716   2.843   3.530  14.606  0.0413 -0.3964 -0.3596
 8101TIP3   OH245717   2.278   5.260   2.897  0.1250 -0.6409  0.1265
 8101TIP3    H145718   2.272   5.214   2.813  2.0369  1.5062 -1.3118
 8101TIP3    H245719   2.194   5.243   2.939 -0.9123 -1.8408 -2.2206
 8102TIP3   OH245720   1.158   1.872   3.625  0.5083 -0.0464 -0.3298
 8102TIP3    H145721   1.071   1.886   3.661 -0.1843 -2.1053 -1.1248
 8102TIP3    H245722   1.158   1.782   3.593  2.4925  0.3242 -1.5706
 8103TIP3   OH245723   2.513   1.065  14.565 -0.1739  0.1130  0.1932
 8103TIP3    H145724   2.466   1.075  14.648 -1.4560 -1.6795 -0.2567
 8103TIP3    H245725   2.548   0.976  14.568 -1.6744 -0.6213 -1.8346
 8104TIP3   OH245726   4.691   1.776   3.262  0.1282 -0.8207 -0.1736
 8104TIP3    H145727   4.709   1.859   3.218 -0.7288 -0.6276 -0.1773
 8104TIP3    H245728   4.616   1.740   3.215  0.2970 -1.4464  0.0326
 8105TIP3   OH245729   3.157   0.194  15.319 -0.3053  0.1998 -0.3616
 8105TIP3    H145730   3.107   0.269  15.288  0.1566  1.3235  1.3982
 8105TIP3    H245731   3.093   0.124  15.330 -0.8085  0.4269 -1.6767
 8106TIP3   OH245732   0.309   6.122   0.805 -0.1696  0.2934  0.6279
 8106TIP3    H145733   0.333   6.035   0.838 -0.4225  0.4922  1.3662
 8106TIP3    H245734   0.289   6.173   0.884  0.9514  1.3242  0.2849
 8107TIP3   OH245735   6.192   0.675   0.239 -0.5727  0.0200 -0.1844
 8107TIP3    H145736   6.181   0.586   0.205 -0.9176  0.5269 -1.4575
 8107TIP3    H245737   6.110   0.693   0.285 -0.6450 -0.1940 -0.2264
 8108TIP3   OH245738   0.565   2.996   2.705  0.3857  0.0936  1.0550
 8108TIP3    H145739   0.534   2.932   2.641 -0.0714  0.6069  0.7513
 8108TIP3    H245740   0.505   3.070   2.695  1.5989  1.0444  0.5847
 8109TIP3   OH245741   0.521   4.760  11.117  0.5538  0.1376  0.0919
 8109TIP3    H145742   0.510   4.854  11.129  1.0646  0.1497  0.4996
 8109TIP3    H245743   0.562   4.730  11.198 -0.1439 -0.5342  0.2181
 8110TIP3   OH245744   4.977   4.655   1.444 -0.0092  0.0106 -0.5913
 8110TIP3    H145745   4.892   4.663   1.488 -0.8714 -1.4362 -1.9156
 8110TIP3    H245746   4.988   4.562   1.429  1.9852  0.1346 -0.2230
 8111TIP3   OH245747   2.259   2.132   4.211  0.4500 -0.2504 -0.0321
 8111TIP3    H145748   2.193   2.113   4.277 -0.2693 -1.0789 -0.9737
 8111TIP3    H245749   2.235   2.078   4.136  1.0367  0.9358 -1.1141
 8112TIP3   OH245750   0.860   2.138   3.897 -0.7058 -0.3412 -0.1566
 8112TIP3    H145751   0.889   2.103   3.981 -1.2084 -0.6296 -0.0943
 8112TIP3    H245752   0.814   2.064   3.855  1.0627 -0.7683 -1.4683
 8113TIP3   OH245753   1.179   6.378   2.261 -0.2686  0.1283 -0.2008
 8113TIP3    H145754   1.198   6.393   2.353  0.4596 -1.2829 -0.0997
 8113TIP3    H245755   1.098   6.328   2.260 -0.3025  0.1856 -0.3272
 8114TIP3   OH245756   5.270   4.012  16.041  0.4715 -0.0930 -0.4624
 8114TIP3    H145757   5.284   3.926  16.002 -0.0397 -0.0997 -0.6493
 8114TIP3    H245758   5.356   4.040  16.071  0.6257 -0.7068 -0.3211
 8115TIP3   OH245759   3.412   1.469  15.322 -0.3562  0.1408 -0.0585
 8115TIP3    H145760   3.493   1.471  15.372 -1.4669 -1.1999  1.9540
 8115TIP3    H245761   3.371   1.553  15.339 -0.1058  0.2109  0.2082
 8116TIP3   OH245762   3.767   0.619   0.470  0.2491  0.5714  0.2471
 8116TIP3    H145763   3.775   0.613   0.565 -0.6852  1.5322  0.4063
 8116TIP3    H245764   3.823   0.692   0.446  0.8566  0.0322 -0.0134
 8117TIP3   OH245765   2.050   6.291   2.236  0.4791  0.3786  0.1344
 8117TIP3    H145766   2.062   6.341   2.155 -2.0384 -0.5975 -0.9620
 8117TIP3    H245767   1.970   6.328   2.275 -0.8204 -1.9326 -0.1382
 8118TIP3   OH245768   0.014   3.266  14.764  0.0308 -0.0011 -0.0712
 8118TIP3    H145769  -0.055   3.208  14.731  0.4877 -0.7940  0.3525
 8118TIP3    H245770  -0.033   3.345  14.791 -0.2904  1.2725 -3.7305
 8119TIP3   OH245771   4.105   1.162  10.851 -0.1838 -0.1102  0.1857
 8119TIP3    H145772   4.011   1.148  10.845 -0.0875 -0.4930 -0.6476
 8119TIP3    H245773   4.115   1.257  10.860 -0.7132 -0.2073  2.3353
 8120TIP3   OH245774   0.044   0.312   2.477  0.5490 -0.0876  0.3522
 8120TIP3    H145775   0.109   0.316   2.547 -0.3877  1.8111  1.1903
 8120TIP3    H245776  -0.013   0.239   2.501  0.4160  0.3498  1.4375
 8121TIP3   OH245777   3.357   1.598   3.883 -0.6260  0.7659 -0.0824
 8121TIP3    H145778   3.429   1.627   3.827 -0.5670  0.2275 -0.2859
 8121TIP3    H245779   3.282   1.651   3.856 -0.2617  1.4820  0.2757
 8122TIP3   OH245780   4.744   3.443   0.037  0.2895 -0.2273  0.3971
 8122TIP3    H145781   4.753   3.483   0.123  0.7047  0.2615  0.1359
 8122TIP3    H245782   4.732   3.350   0.054 -0.8606  0.0140  1.0350
 8123TIP3   OH245783   3.229   0.062   0.469 -0.3318  0.0430  0.0249
 8123TIP3    H145784   3.307   0.097   0.426 -0.0033 -0.2359  0.3930
 8123TIP3    H245785   3.230   0.100   0.557 -1.2053  0.9106 -0.3202
 8124TIP3   OH245786   5.359   6.464   4.708  0.1967  0.0918 -0.5047
 8124TIP3    H145787   5.352   6.560   4.714  2.7333  0.2911  0.9559
 8124TIP3    H245788   5.354   6.434   4.799 -1.0069 -1.2362 -0.9865
 8125TIP3   OH245789   5.387   1.691   3.936  0.2805  0.0031  0.0848
 8125TIP3    H145790   5.451   1.679   3.866  0.3038  0.6658 -0.0094
 8125TIP3    H245791   5.314   1.633   3.912  0.0294  0.6567 -0.8063
 8126TIP3   OH245792   1.533   0.119   4.420 -0.0901 -0.1055  0.3419
 8126TIP3    H145793   1.470   0.096   4.352  0.2822 -0.7136  0.1930
 8126TIP3    H245794   1.480   0.128   4.500 -0.4574  0.0978  0.0777
 8127TIP3   OH245795   0.803   5.721   4.186 -0.4326 -0.4695  0.2888
 8127TIP3    H145796   0.894   5.740   4.161 -0.3666 -0.4807  0.5230
 8127TIP3    H245797   0.757   5.716   4.102 -0.3160  0.0382  0.1921
 8128TIP3   OH245798   3.605   6.709   4.059 -0.0575 -0.1529  0.2443
 8128TIP3    H145799   3.655   6.758   4.124  0.7938 -0.6381 -0.0363
 8128TIP3    H245800   3.534   6.768   4.034  1.5922  1.4554 -0.9362
 8129TIP3   OH245801   5.964   6.329   4.373 -0.1150  0.9143  0.3517
 8129TIP3    H145802   6.009   6.256   4.417 -0.1774  0.7498  0.1434
 8129TIP3    H245803   5.986   6.406   4.426 -0.6279  0.6381  0.9912
 8130TIP3   OH245804   5.815   2.922   0.096 -0.1735 -0.0223  0.0137
 8130TIP3    H145805   5.862   2.845   0.065 -0.6030 -0.4571  0.4225
 8130TIP3    H245806   5.724   2.908   0.069  0.1875  1.6367 -2.3347
 8131TIP3   OH245807   2.769   0.337  16.223  0.2630  0.5482  0.1079
 8131TIP3    H145808   2.775   0.251  16.182 -3.0575  1.0542 -1.7545
 8131TIP3    H245809   2.717   0.323  16.302  3.0523  0.3200  2.0579
 8132TIP3   OH245810   3.341   2.573  11.980  0.0366 -0.3919 -0.1977
 8132TIP3    H145811   3.308   2.636  11.916  0.9035  0.0541 -0.2206
 8132TIP3    H245812   3.264   2.521  12.004 -0.6471  0.5117 -0.3640
 8133TIP3   OH245813   3.626   1.277   4.407  0.0002  0.0401 -0.2128
 8133TIP3    H145814   3.699   1.218   4.428 -1.2335 -1.4158  0.2138
 8133TIP3    H245815   3.590   1.301   4.492  0.2929  1.1864 -0.4041
 8134TIP3   OH245816   4.400   1.289  15.599  0.2519  0.2838  0.1095
 8134TIP3    H145817   4.456   1.296  15.676 -0.1818  1.4043  0.3458
 8134TIP3    H245818   4.312   1.275  15.635  0.5228 -3.3159 -0.2676
 8135TIP3   OH245819   6.284   6.244   1.350 -0.2365  0.0135 -0.2621
 8135TIP3    H145820   6.251   6.169   1.301 -0.3003 -0.2430  0.1638
 8135TIP3    H245821   6.309   6.308   1.284 -1.6156  0.2272 -0.6042
 8136TIP3   OH245822   2.992   2.028   6.216 -0.1077 -0.1892 -0.3748
 8136TIP3    H145823   3.043   2.019   6.296  0.7555  0.4330 -0.8417
 8136TIP3    H245824   3.004   2.120   6.190 -1.3855 -0.0496 -0.5586
 8137TIP3   OH245825   0.115   5.860   1.428  0.0037  0.0227  0.5626
 8137TIP3    H145826   0.093   5.909   1.507 -0.2431 -1.8420  1.7159
 8137TIP3    H245827   0.032   5.848   1.383  0.0941  0.7929  0.1719
 8138TIP3   OH245828   1.715   2.572   4.578  0.0487 -0.1934 -0.3361
 8138TIP3    H145829   1.790   2.516   4.560  0.9548 -0.0510  2.5907
 8138TIP3    H245830   1.751   2.660   4.581 -0.5038  0.0354 -0.2462
 8139TIP3   OH245831   4.906   3.517  14.780 -0.5419  0.5744  0.1005
 8139TIP3    H145832   4.965   3.545  14.710 -0.2324  0.1380  0.1823
 8139TIP3    H245833   4.863   3.439  14.746 -1.1816  0.9693 -0.0112
 8140TIP3   OH245834   1.588   4.825  14.971  0.3518  0.0165 -0.3289
 8140TIP3    H145835   1.625   4.740  14.947  0.6216  0.2223 -0.6493
 8140TIP3    H245836   1.528   4.846  14.899  0.8481  0.4432 -0.6235
 8141TIP3   OH245837   2.529   1.985  15.450 -0.3193  0.0587  0.6538
 8141TIP3    H145838   2.503   1.893  15.442  0.2743 -0.1127  0.6930
 8141TIP3    H245839   2.446   2.032  15.461 -0.7407 -0.3320 -0.6126
 8142TIP3   OH245840   1.689   4.730   4.072 -0.1079 -0.5575 -0.0749
 8142TIP3    H145841   1.647   4.781   4.142 -0.7562 -0.7700 -0.3077
 8142TIP3    H245842   1.689   4.789   3.996  0.5976 -0.3266  0.0877
 8143TIP3   OH245843   5.732   6.362   0.985 -0.7204 -0.6920 -0.3690
 8143TIP3    H145844   5.801   6.379   1.049 -0.2364  2.0141 -1.4591
 8143TIP3    H245845   5.748   6.272   0.956  2.8855  0.0107 -1.1114
 8144TIP3   OH245846   2.138   2.033  11.414 -0.1737 -0.1674  0.4546
 8144TIP3    H145847   2.094   1.948  11.412 -2.0962  0.7858 -0.9149
 8144TIP3    H245848   2.231   2.011  11.418 -0.5687 -2.3658 -0.5476
 8145TIP3   OH245849   4.026   0.321  15.984 -0.0728  0.2669 -0.4140
 8145TIP3    H145850   4.041   0.245  16.039  2.1273  0.3538 -0.7957
 8145TIP3    H245851   4.100   0.323  15.924 -2.3103  0.1751 -3.4526
 8146TIP3   OH245852   4.686   4.692   6.377 -0.8765  0.0319 -0.6879
 8146TIP3    H145853   4.641   4.656   6.301  0.4462 -3.7971  0.1394
 8146TIP3    H245854   4.634   4.664   6.452  0.1669 -0.1022  0.0168
 8147TIP3   OH245855   6.602   2.316   5.120  0.5176  0.3213  0.4186
 8147TIP3    H145856   6.508   2.303   5.126  0.5434  0.6188  1.7542
 8147TIP3    H245857   6.636   2.233   5.085 -0.4394  1.1115 -2.7644
 8148TIP3   OH245858   2.235   6.542  12.510  0.0633 -0.2304 -0.2521
 8148TIP3    H145859   2.254   6.555  12.417  1.0182 -1.7169 -0.2958
 8148TIP3    H245860   2.279   6.615  12.553  1.3866 -0.6604 -0.8203
 8149TIP3   OH245861   6.668   4.001   6.162 -0.1168  1.0930  0.2501
 8149TIP3    H145862   6.616   4.008   6.242  0.1550 -0.9617  0.6707
 8149TIP3    H245863   6.758   4.002   6.192 -0.0179 -0.3289  0.0808
 8150TIP3   OH245864   3.910   5.600  15.061 -0.0269  0.0287  0.2514
 8150TIP3    H145865   3.955   5.564  14.984 -0.3503  0.4581 -0.1438
 8150TIP3    H245866   3.822   5.563  15.057 -0.1864  0.4124  0.1571
 8151TIP3   OH245867   5.990   3.043   3.492  0.1537 -0.4866 -0.2156
 8151TIP3    H145868   5.936   2.965   3.503  1.2515 -1.0580  1.5051
 8151TIP3    H245869   5.999   3.078   3.580 -0.3584  1.6599 -0.9549
 8152TIP3   OH245870   3.931   1.203  15.880  0.6263  0.4895 -0.2553
 8152TIP3    H145871   3.900   1.117  15.853 -0.3934  0.7434  0.0844
 8152TIP3    H245872   3.919   1.205  15.975 -2.1364  2.0295 -0.5321
 8153TIP3   OH245873   5.629   2.784   4.907 -0.1495 -0.0848  0.1471
 8153TIP3    H145874   5.719   2.765   4.935  0.1682  1.8149  0.5460
 8153TIP3    H245875   5.600   2.853   4.967 -2.4686 -1.7441  1.0571
 8154TIP3   OH245876   1.577   2.992  11.175 -0.0650  0.2489 -0.3703
 8154TIP3    H145877   1.524   2.950  11.243 -1.5748  1.6048 -0.6635
 8154TIP3    H245878   1.542   3.081  11.168  2.7521  1.4997 -0.0519
 8155TIP3   OH245879   3.138   4.736   6.301  0.8614 -0.5161  0.0007
 8155TIP3    H145880   3.059   4.760   6.254  0.1265 -0.5525  1.1976
 8155TIP3    H245881   3.127   4.643   6.320  1.2047 -0.5269  0.1508
 8156TIP3   OH245882   2.982   1.543  15.990  0.2589 -0.2397  0.1482
 8156TIP3    H145883   3.028   1.587  15.918 -1.2127 -1.0508 -1.3399
 8156TIP3    H245884   2.902   1.594  16.002  0.8939  0.4089  1.8515
 8157TIP3   OH245885   5.258   4.693  10.529  0.1425 -0.4742 -0.4842
 8157TIP3    H145886   5.256   4.784  10.499  5.1236 -0.2984 -1.2067
 8157TIP3    H245887   5.291   4.698  10.619 -4.3075 -1.5457  1.4419
 8158TIP3   OH245888   6.488   4.988   2.297  0.1349 -0.3038  0.0274
 8158TIP3    H145889   6.481   4.984   2.392  0.9290 -2.4766  0.0455
 8158TIP3    H245890   6.577   4.958   2.278  1.9618  4.7810 -1.2435
 8159TIP3   OH245891   5.691   2.570  15.314 -0.1373  0.0304 -0.7487
 8159TIP3    H145892   5.703   2.545  15.222  0.8660  0.6684 -0.7980
 8159TIP3    H245893   5.700   2.665  15.315 -2.7956  0.3651 -0.3809
 8160TIP3   OH245894   5.515   6.412  15.112 -0.1343  0.1266  0.1562
 8160TIP3    H145895   5.484   6.429  15.201 -0.2897  1.4651 -0.1351
 8160TIP3    H245896   5.609   6.398  15.121 -0.0911  0.6051  0.5014
 8161TIP3   OH245897   0.752   1.993  11.897 -0.2204 -0.0271 -0.2318
 8161TIP3    H145898   0.792   2.011  11.982 -0.7433  0.0146  0.0024
 8161TIP3    H245899   0.804   1.921  11.861 -0.3954 -0.4683  0.3940
 8162TIP3   OH245900   3.873   4.681  15.305  0.1696 -0.2799  0.6816
 8162TIP3    H145901   3.920   4.606  15.269  0.0934  0.5195 -1.2359
 8162TIP3    H245902   3.781   4.661  15.292  0.1523  0.1727  0.0692
 8163TIP3   OH245903   4.434   4.657  11.191  0.1374 -0.2817 -0.2177
 8163TIP3    H145904   4.389   4.715  11.130 -0.9717 -1.3183 -0.4394
 8163TIP3    H245905   4.436   4.572  11.146  1.8758 -0.4033  0.0127
 8164TIP3   OH245906   2.147   0.749  10.320  0.2082  0.2889  0.2786
 8164TIP3    H145907   2.102   0.693  10.255  2.9837 -1.9620  0.1096
 8164TIP3    H245908   2.135   0.702  10.403  2.2020 -0.4391  0.2080
 8165TIP3   OH245909   3.041   2.575  16.108  0.0465  0.0080 -0.2110
 8165TIP3    H145910   3.033   2.656  16.159 -0.6930 -0.2817  0.1397
 8165TIP3    H245911   3.015   2.506  16.168  1.3705 -0.5872 -0.2784
 8166TIP3   OH245912   0.296   6.034   6.201 -0.2604  0.0083 -0.9057
 8166TIP3    H145913   0.287   6.061   6.109  4.2939  2.7655 -0.8391
 8166TIP3    H245914   0.388   6.049   6.221 -1.2714  0.8608  4.5081
 8167TIP3   OH245915   4.083   0.104  16.522 -0.0225 -0.0049  0.2619
 8167TIP3    H145916   4.163   0.053  16.527 -0.8926 -1.7071 -1.6521
 8167TIP3    H245917   4.016   0.048  16.562 -1.1593 -0.9087 -2.6247
 8168TIP3   OH245918   4.617   2.177   1.973 -0.0314 -0.1307  0.2157
 8168TIP3    H145919   4.535   2.136   1.946  0.6725 -0.8483 -0.9119
 8168TIP3    H245920   4.660   2.202   1.891 -0.7387  3.6009  0.8257
 8169TIP3   OH245921   2.239   6.503   0.497  0.2658 -0.0386 -0.3059
 8169TIP3    H145922   2.229   6.428   0.439 -1.4589 -0.3138  0.2968
 8169TIP3    H245923   2.170   6.564   0.471  0.3562  0.4404  0.5185
 8170TIP3   OH245924   4.501   3.611   1.140 -0.1537 -0.0477  0.1982
 8170TIP3    H145925   4.462   3.694   1.114 -0.8446 -0.6350 -0.6956
 8170TIP3    H245926   4.427   3.551   1.150  0.2660 -0.3784  1.5843
 8171TIP3   OH245927   4.376   2.469   6.277  0.5385  0.5195 -0.1121
 8171TIP3    H145928   4.286   2.443   6.262  0.2589  1.6086 -0.4428
 8171TIP3    H245929   4.428   2.412   6.221  0.0660 -0.1850  0.1598
 8172TIP3   OH245930   3.565   3.236   1.114  0.8711  0.0019  0.1092
 8172TIP3    H145931   3.641   3.295   1.118 -0.0273  1.3618 -1.4833
 8172TIP3    H245932   3.532   3.247   1.024  0.0928 -2.2326  0.0821
 8173TIP3   OH245933   1.123   6.715   2.362  0.1020 -0.7431  0.4301
 8173TIP3    H145934   1.054   6.711   2.428 -0.3648  1.3073  0.1446
 8173TIP3    H245935   1.079   6.696   2.280  0.1507 -0.7643  0.4091
 8174TIP3   OH245936   5.425   1.900   0.835  0.0646 -0.2235 -0.0692
 8174TIP3    H145937   5.405   1.891   0.741  0.4677  1.0451 -0.2954
 8174TIP3    H245938   5.448   1.992   0.846  0.5506 -0.4732  1.1873
 8175TIP3   OH245939   0.274   5.779   0.064  0.0748 -0.1521 -0.5324
 8175TIP3    H145940   0.251   5.689   0.037  0.5869 -0.5409  0.2963
 8175TIP3    H245941   0.354   5.769   0.114 -2.0476  0.1596  3.3293
 8176TIP3   OH245942   5.491   0.958   3.581 -0.0555 -0.4599  0.3575
 8176TIP3    H145943   5.416   0.979   3.635  0.3758 -1.1808  1.2652
 8176TIP3    H245944   5.483   0.864   3.564  0.3173 -0.4275 -0.0354
 8177TIP3   OH245945   3.425   4.284   6.228  0.3041 -0.5003 -0.3004
 8177TIP3    H145946   3.338   4.322   6.236 -0.1023 -1.6655  1.1553
 8177TIP3    H245947   3.459   4.321   6.146 -1.8028 -0.5399 -1.2727
 8178TIP3   OH245948   2.379   0.937  16.680  0.4073 -0.0132  0.6593
 8178TIP3    H145949   2.400   1.010  16.737  1.8919 -1.0798  1.5662
 8178TIP3    H245950   2.429   0.863  16.716 -2.7332 -2.0752  1.1677
 8179TIP3   OH245951   1.160   6.675  10.789  0.5276 -0.0535  0.3299
 8179TIP3    H145952   1.246   6.661  10.750  0.5934 -0.0919  0.4900
 8179TIP3    H245953   1.177   6.684  10.883  0.4607  0.7856  0.2741
 8180TIP3   OH245954   0.258   1.128  12.708 -0.3588 -0.7580 -0.0881
 8180TIP3    H145955   0.166   1.147  12.727 -0.1036 -0.5349  0.9807
 8180TIP3    H245956   0.306   1.203  12.744  0.2930 -1.1887 -0.0454
 8181TIP3   OH245957   4.696   0.154  15.320  0.3633  0.6323  1.0136
 8181TIP3    H145958   4.728   0.108  15.242  2.6247  1.6825  1.2346
 8181TIP3    H245959   4.712   0.246  15.301  0.1066  0.9744  2.3690
 8182TIP3   OH245960   4.289   0.554   4.924  0.0998 -0.1401  0.1104
 8182TIP3    H145961   4.270   0.536   4.832 -1.1164  0.8049  0.1567
 8182TIP3    H245962   4.330   0.474   4.956 -0.8273 -1.0443 -0.8839
 8183TIP3   OH245963   1.723   6.039  11.425  0.0562  0.2700  0.5132
 8183TIP3    H145964   1.753   6.048  11.334  0.3390  0.0804  0.5855
 8183TIP3    H245965   1.757   6.117  11.469  0.5150  0.0208  0.6114
 8184TIP3   OH245966   6.182   2.312   2.735  0.0654 -0.1037 -0.8923
 8184TIP3    H145967   6.089   2.317   2.756  0.3556  1.1527  0.2283
 8184TIP3    H245968   6.195   2.380   2.669  0.0609 -0.7836 -1.6031
 8185TIP3   OH245969   3.462   5.289   6.021  0.0085 -0.3979  0.5171
 8185TIP3    H145970   3.389   5.321   6.074  0.4414 -0.2521  1.0315
 8185TIP3    H245971   3.521   5.248   6.083  0.7838  0.2435  0.2284
 8186TIP3   OH245972   3.249   5.045   6.228  0.5434 -0.1550  0.0202
 8186TIP3    H145973   3.155   5.057   6.216  0.7930  0.0478 -2.1329
 8186TIP3    H245974   3.282   5.133   6.249  0.5938  0.4913 -2.3617
 8187TIP3   OH245975   3.349   5.303  15.870  0.0323 -0.1053 -1.0189
 8187TIP3    H145976   3.310   5.219  15.894  0.6717 -0.6170 -1.7079
 8187TIP3    H245977   3.275   5.359  15.849 -0.4170 -0.4009 -0.2534
 8188TIP3   OH245978   3.637   0.138  13.391 -0.3147  0.0922 -0.3251
 8188TIP3    H145979   3.713   0.196  13.397  0.7682 -0.8467 -3.2285
 8188TIP3    H245980   3.664   0.057  13.434  0.0397  0.0193 -0.6878
 8189TIP3   OH245981   3.383   4.268  16.293 -0.0307  0.2578  0.0052
 8189TIP3    H145982   3.432   4.266  16.211 -1.6438  1.0084 -1.0286
 8189TIP3    H245983   3.309   4.208  16.279  0.0153 -0.1056  1.1632
 8190TIP3   OH245984   6.205   1.945  11.416 -1.5567 -0.0143 -0.1124
 8190TIP3    H145985   6.174   1.892  11.343  1.0836  0.6855 -1.9146
 8190TIP3    H245986   6.135   2.008  11.431 -2.8024 -1.1358 -1.0170
 8191TIP3   OH245987   4.748   0.935  12.853 -0.2408  0.2842 -0.2850
 8191TIP3    H145988   4.834   0.942  12.894 -0.1301 -0.7420 -0.3024
 8191TIP3    H245989   4.710   1.022  12.861  1.1161  0.9757 -0.9822
 8192TIP3   OH245990   3.798   4.815  15.539 -0.4128 -0.3621  0.0633
 8192TIP3    H145991   3.847   4.772  15.468 -2.5697 -0.7260 -1.2754
 8192TIP3    H245992   3.819   4.763  15.617  1.3989 -0.4218 -0.4078
 8193TIP3   OH245993   4.082   4.482   4.150 -0.2033 -0.6232  0.1662
 8193TIP3    H145994   4.086   4.429   4.070 -1.4047 -0.8690  0.2466
 8193TIP3    H245995   4.000   4.531   4.142 -0.4628 -0.8306  1.3514
 8194TIP3   OH245996   5.702   5.480   6.258 -0.1932  0.6476  0.2218
 8194TIP3    H145997   5.667   5.539   6.324 -0.6354  0.5582  0.0719
 8194TIP3    H245998   5.666   5.394   6.281  0.7513  0.3558  0.6660
 8195TIP3   OH245999   2.992   0.227   2.078 -0.2330  0.0382  0.5460
 8195TIP3    H146000   2.901   0.215   2.103 -0.5319  1.0135 -0.0100
 8195TIP3    H246001   2.988   0.281   1.999  0.8060 -0.3030  0.2463
 8196TIP3   OH246002   4.657   4.240   3.401  0.0219 -0.4687  0.3756
 8196TIP3    H146003   4.688   4.307   3.463 -0.3974  0.5858 -0.5269
 8196TIP3    H246004   4.736   4.190   3.379 -0.0591 -1.8510  2.8837
 8197TIP3   OH246005   4.954   4.960   6.176  0.4624 -0.2232 -0.5186
 8197TIP3    H146006   4.905   5.007   6.243 -0.5919 -0.0229 -1.3852
 8197TIP3    H246007   5.010   4.900   6.224 -0.7851 -0.5963  0.5388
 8198TIP3   OH246008   5.439   2.216  14.098 -0.3929  0.0994  0.1226
 8198TIP3    H146009   5.343   2.213  14.092 -0.3597 -1.9169 -0.0528
 8198TIP3    H246010   5.465   2.124  14.104  1.3259  0.6371  3.3746
 8199TIP3   OH246011   4.182   5.901  17.260  0.2057 -0.2409 -0.6977
 8199TIP3    H146012   4.153   5.958  17.331  2.0012  0.0132 -0.1225
 8199TIP3    H246013   4.106   5.896  17.201 -0.1675  2.4137 -0.5663
 8200TIP3   OH246014   4.314   3.971   5.160 -0.5810 -0.1130  0.3870
 8200TIP3    H146015   4.313   3.941   5.069  1.7665 -3.4732  1.2746
 8200TIP3    H246016   4.367   4.050   5.159  0.6310 -0.9034 -1.0023
 8201TIP3   OH246017   3.749   0.273  16.674  1.0342  0.3574 -0.1679
 8201TIP3    H146018   3.727   0.200  16.617  1.9640  0.9862 -1.3689
 8201TIP3    H246019   3.664   0.307  16.702  0.5845 -1.0276  0.2517
 8202TIP3   OH246020   5.377   1.382  16.253  0.4561 -0.3032 -0.5320
 8202TIP3    H146021   5.453   1.350  16.302  1.6806 -0.9784 -2.7280
 8202TIP3    H246022   5.410   1.459  16.206 -0.3620 -0.2769 -1.0892
 8203TIP3   OH246023   1.572   1.403   0.831  0.3642 -0.1434 -0.3876
 8203TIP3    H146024   1.564   1.494   0.804 -1.8835 -0.5473 -1.3514
 8203TIP3    H246025   1.643   1.403   0.895  0.2497  2.3111 -0.1566
 8204TIP3   OH246026   4.790   5.337  15.600 -0.1413 -0.3713  0.4716
 8204TIP3    H146027   4.837   5.360  15.520  1.7812 -1.8888  1.1012
 8204TIP3    H246028   4.708   5.299  15.569 -0.7415  1.6916 -0.6769
 8205TIP3   OH246029   5.849   2.506   1.178  0.3021  0.1661  0.2792
 8205TIP3    H146030   5.915   2.495   1.247 -0.4445  0.6996  1.1125
 8205TIP3    H246031   5.859   2.597   1.150  0.3680  0.0540 -0.0531
 8206TIP3   OH246032   4.608   6.753  17.288 -0.1331  0.1990 -0.1721
 8206TIP3    H146033   4.646   6.785  17.370 -0.3412  1.8679 -0.6814
 8206TIP3    H246034   4.516   6.779  17.293  0.3306  2.5236 -1.8936
 8207TIP3   OH246035   0.577   6.094  13.683  0.0885  0.5342 -0.5850
 8207TIP3    H146036   0.579   6.089  13.779  0.6328  0.4739 -0.5968
 8207TIP3    H246037   0.581   6.003  13.654 -1.0363  0.4884 -0.6632
 8208TIP3   OH246038   3.232   1.685   3.204 -0.3822 -0.2289  0.8414
 8208TIP3    H146039   3.261   1.637   3.127  0.2151 -0.4451  1.1910
 8208TIP3    H246040   3.138   1.668   3.210 -0.4268 -0.2232  0.1739
 8209TIP3   OH246041   2.358   6.018  12.199 -0.1701 -0.4025 -0.1471
 8209TIP3    H146042   2.356   6.113  12.187 -0.0245 -0.4299 -0.3947
 8209TIP3    H246043   2.343   6.006  12.293 -2.0163 -0.2196 -0.3805
 8210TIP3   OH246044   0.341   3.649  15.807 -0.1607  0.4457  0.2897
 8210TIP3    H146045   0.254   3.644  15.847 -0.2733 -2.2553 -0.1331
 8210TIP3    H246046   0.324   3.671  15.715 -0.3404  0.6548  0.3730
 8211TIP3   OH246047   1.614   5.507  15.348  0.1919 -0.2148 -0.1135
 8211TIP3    H146048   1.625   5.412  15.346  3.2692  0.0436 -2.1481
 8211TIP3    H246049   1.629   5.531  15.440  0.1731 -1.6165  0.2662
 8212TIP3   OH246050   4.758   1.457  13.961  0.3851 -0.2394 -0.0084
 8212TIP3    H146051   4.792   1.482  13.875 -0.7948 -0.2905 -0.5111
 8212TIP3    H246052   4.781   1.365  13.970 -0.6207 -0.6001 -0.8699
 8213TIP3   OH246053   5.120   4.097  11.351 -0.6523  0.1636  0.1500
 8213TIP3    H146054   5.156   4.042  11.282  0.4408  0.3216  0.5752
 8213TIP3    H246055   5.053   4.150  11.307  1.2626  1.5743 -1.2281
 8214TIP3   OH246056   2.331   2.209  13.960  0.1992  0.5095 -0.1144
 8214TIP3    H146057   2.319   2.127  14.009  0.6714 -0.3212 -1.3561
 8214TIP3    H246058   2.248   2.255  13.969  0.1410  0.2074  1.1353
 8215TIP3   OH246059   6.676   5.264   5.993  0.5938  0.0359  0.3847
 8215TIP3    H146060   6.762   5.222   5.989  2.3380  3.1568  1.9097
 8215TIP3    H246061   6.666   5.307   5.909 -0.9784 -2.7222 -0.9855
 8216TIP3   OH246062   4.901   6.668  16.414  0.8709 -0.0289  0.7225
 8216TIP3    H146063   4.832   6.614  16.375 -0.0504  0.7586  1.2074
 8216TIP3    H246064   4.912   6.632  16.503 -0.1603  0.9086  1.2555
 8217TIP3   OH246065   1.384   3.843   1.053  0.1742  0.0334  0.0017
 8217TIP3    H146066   1.395   3.879   1.140  0.6662  0.2665 -0.1538
 8217TIP3    H246067   1.419   3.754   1.059  2.0631  0.6953 -0.4332
 8218TIP3   OH246068   6.140   6.622   5.696 -0.5879 -0.0512  0.1144
 8218TIP3    H146069   6.081   6.657   5.629  1.9103  0.2997 -2.0975
 8218TIP3    H246070   6.196   6.696   5.720  0.5703 -0.9334  0.2231
 8219TIP3   OH246071   4.253   0.266  14.931  0.0235  0.2731 -0.3306
 8219TIP3    H146072   4.288   0.240  15.016  0.0389 -0.8536 -0.6739
 8219TIP3    H246073   4.205   0.190  14.900 -2.0874  1.4960 -0.2351
 8220TIP3   OH246074   5.032   5.228  12.102  0.0562 -0.3911 -0.2432
 8220TIP3    H146075   4.959   5.288  12.088  1.4625  1.3500 -0.5027
 8220TIP3    H246076   5.048   5.188  12.016 -0.0149 -0.1035 -0.3881
 8221TIP3   OH246077   0.510   3.001   4.351 -0.8594  0.3154 -0.2679
 8221TIP3    H146078   0.522   3.013   4.445 -0.8435  2.0927 -0.4623
 8221TIP3    H246079   0.415   2.996   4.340 -0.8364 -1.1287 -0.0639
 8222TIP3   OH246080   0.807   1.780  10.567  0.1119 -0.3405  0.2333
 8222TIP3    H146081   0.774   1.868  10.552  2.3352  1.0453  2.6803
 8222TIP3    H246082   0.741   1.740  10.624  0.1726  0.5689  0.9626
 8223TIP3   OH246083   4.012   1.917   4.339 -0.2413 -0.5503 -0.1413
 8223TIP3    H146084   4.105   1.939   4.336 -0.3121 -0.3027 -0.5833
 8223TIP3    H246085   3.994   1.904   4.432  0.9102 -3.5244 -0.2030
 8224TIP3   OH246086   1.138   0.970   5.638 -0.0392 -0.2735  0.5678
 8224TIP3    H146087   1.055   0.964   5.684  0.3286  0.3297  1.3293
 8224TIP3    H246088   1.183   0.888   5.658 -0.3940 -0.5502  0.2482
 8225TIP3   OH246089   4.774   5.479   2.914 -0.2542  0.5169 -0.5806
 8225TIP3    H146090   4.769   5.407   2.976 -1.5848  0.6518 -0.5058
 8225TIP3    H246091   4.802   5.439   2.832  2.5373  0.4842  0.2759
 8226TIP3   OH246092   5.360   4.171   2.815 -0.1127  0.4126  0.7628
 8226TIP3    H146093   5.401   4.115   2.881 -1.8332 -1.4260  0.3486
 8226TIP3    H246094   5.353   4.257   2.857  0.8245 -0.1531  2.1343
 8227TIP3   OH246095   2.163   1.065   3.543 -0.5199 -0.0901  0.4053
 8227TIP3    H146096   2.176   1.090   3.451  0.9035  0.6296  0.7657
 8227TIP3    H246097   2.236   1.107   3.589 -0.4578 -1.5113  1.6775
 8228TIP3   OH246098   2.369   5.417   6.040  0.1645 -0.9946  0.1860
 8228TIP3    H146099   2.295   5.384   6.090  0.0774 -1.0294  0.0361
 8228TIP3    H246100   2.439   5.353   6.054 -0.7534 -2.6106 -2.0919
 8229TIP3   OH246101   4.202   6.414  13.756  0.2049 -0.0012 -0.6000
 8229TIP3    H146102   4.247   6.353  13.698  0.7763 -0.4321  0.2681
 8229TIP3    H246103   4.116   6.427  13.717  1.3194  1.4688 -2.7691
 8230TIP3   OH246104   1.985   5.611   4.484 -0.5409  0.0086 -0.2354
 8230TIP3    H146105   1.982   5.561   4.565  1.8231  0.4014  0.1531
 8230TIP3    H246106   1.945   5.695   4.505 -0.7303 -0.2077  0.2668
 8231TIP3   OH246107   0.074   5.675   3.437  0.1835  0.1348  0.3518
 8231TIP3    H146108   0.127   5.659   3.515 -0.1900  1.0196  0.7928
 8231TIP3    H246109   0.137   5.708   3.372  1.2196 -3.7681 -0.9507
 8232TIP3   OH246110   1.507   2.096  17.303 -0.3064  0.4345  0.5629
 8232TIP3    H146111   1.475   2.025  17.358 -1.0968 -0.3599 -0.8606
 8232TIP3    H246112   1.603   2.093  17.313 -0.3122 -0.9260  0.4400
 8233TIP3   OH246113   1.220   4.174   5.316 -0.2264 -0.4860  0.4166
 8233TIP3    H146114   1.264   4.236   5.373 -0.8692 -0.2106  0.6235
 8233TIP3    H246115   1.192   4.226   5.240 -1.2567 -0.3877  0.8444
 8234TIP3   OH246116   2.115   3.134  15.091 -0.4059 -0.3248  0.1224
 8234TIP3    H146117   2.111   3.101  15.181 -0.6420 -1.3878 -0.2604
 8234TIP3    H246118   2.097   3.227  15.098  0.1465 -0.2896  1.2443
 8235TIP3   OH246119   1.124   2.018  14.001  0.0365  0.1484 -0.7468
 8235TIP3    H146120   1.052   1.969  14.040  0.1129  2.3777  2.5972
 8235TIP3    H246121   1.199   1.959  14.006  0.0853  0.3035  2.9209
 8236TIP3   OH246122   1.475   0.576  13.687  0.8386  0.3347 -0.5948
 8236TIP3    H146123   1.392   0.613  13.658  1.1277  1.7094  0.2523
 8236TIP3    H246124   1.450   0.496  13.733  0.2170 -0.7019 -2.6091
 8237TIP3   OH246125   0.238   6.702  13.469 -0.3393  0.2673 -0.1397
 8237TIP3    H146126   0.156   6.688  13.516 -0.0526 -1.5786 -0.1261
 8237TIP3    H246127   0.260   6.616  13.432  1.7459  0.6372  0.1292
 8238TIP3   OH246128   1.045   2.590  15.264  0.8563 -0.5499 -0.7900
 8238TIP3    H146129   1.006   2.598  15.177  1.6315 -0.0671 -1.0993
 8238TIP3    H246130   0.981   2.629  15.323  1.1061  0.7564 -1.3610
 8239TIP3   OH246131   1.734   6.596  15.461 -0.0336  0.7422 -0.0322
 8239TIP3    H146132   1.778   6.526  15.510 -0.0289  1.0917  0.4742
 8239TIP3    H246133   1.722   6.560  15.373  0.2186  0.2094  0.1460
 8240TIP3   OH246134   6.597   1.420   3.728  0.3625 -0.1660 -0.4727
 8240TIP3    H146135   6.613   1.506   3.766 -0.2397 -0.9294  1.6176
 8240TIP3    H246136   6.591   1.361   3.803  0.3967 -1.9875 -1.8328
 8241TIP3   OH246137   2.659   5.223  13.715  0.1466  0.1984 -0.0502
 8241TIP3    H146138   2.731   5.172  13.677  0.1832 -0.9424  1.4841
 8241TIP3    H246139   2.588   5.160  13.726 -0.7150  1.0711 -0.5032
 8242TIP3   OH246140   3.514   2.204   2.859 -0.1173  0.1923 -0.2091
 8242TIP3    H146141   3.448   2.212   2.791 -1.3796  0.7162  1.0154
 8242TIP3    H246142   3.467   2.167   2.934  1.3872 -1.0823  0.1623
 8243TIP3   OH246143   5.524   5.839  14.893 -0.3189  0.7576 -0.2506
 8243TIP3    H146144   5.585   5.788  14.840 -1.3469  1.2008 -1.9615
 8243TIP3    H246145   5.536   5.929  14.863 -0.0113  1.2193  1.2259
 8244TIP3   OH246146   4.560   4.239   1.973  0.5661  0.3313  0.6694
 8244TIP3    H146147   4.576   4.333   1.983  2.9531  0.3400 -2.0046
 8244TIP3    H246148   4.481   4.235   1.918  0.9231  0.8212  0.1006
 8245TIP3   OH246149   0.444   4.406   1.232  0.3987 -0.6474  0.0647
 8245TIP3    H146150   0.465   4.331   1.177 -0.7929 -0.6619 -0.3919
 8245TIP3    H246151   0.377   4.374   1.292  0.0142  0.0087 -0.0133
 8246TIP3   OH246152   3.473   2.683   4.167 -0.2465 -0.3004 -0.1514
 8246TIP3    H146153   3.447   2.621   4.098  0.4304  0.0142 -0.7039
 8246TIP3    H246154   3.565   2.663   4.182 -0.2747 -0.0519  0.3395
 8247TIP3   OH246155   1.690   2.850  14.826  0.4627  0.4598 -0.2471
 8247TIP3    H146156   1.617   2.890  14.779 -0.2989 -2.2161 -1.5232
 8247TIP3    H246157   1.669   2.865  14.919 -1.9284 -0.4779 -0.5586
 8248TIP3   OH246158   2.847   5.938   2.090  0.0519 -0.1950  0.0541
 8248TIP3    H146159   2.933   5.950   2.131  1.5408 -0.8587 -2.6422
 8248TIP3    H246160   2.834   6.016   2.037 -0.0101 -0.9795 -1.1342
 8249TIP3   OH246161   6.118   2.804   3.653 -0.1178  0.0541  0.2740
 8249TIP3    H146162   6.186   2.794   3.720 -1.8911 -0.6055  2.1071
 8249TIP3    H246163   6.037   2.783   3.699 -1.6022  0.9888 -1.7641
 8250TIP3   OH246164   4.658   1.495  17.263  0.1155  0.3596  0.2835
 8250TIP3    H146165   4.667   1.546  17.182  0.2566 -0.0401  0.0434
 8250TIP3    H246166   4.574   1.522  17.300  0.4395  1.1637  0.4399
 8251TIP3   OH246167   6.356   5.484   1.803 -0.1184  0.2970 -0.4504
 8251TIP3    H146168   6.327   5.453   1.717  0.2640  0.4433 -0.6354
 8251TIP3    H246169   6.400   5.567   1.785  0.6100 -0.0319 -0.2096
 8252TIP3   OH246170   1.418   5.131  13.887 -0.1174 -0.2351  0.4071
 8252TIP3    H146171   1.342   5.074  13.900 -0.4700  0.1148 -0.0856
 8252TIP3    H246172   1.384   5.219  13.901 -0.3647  0.1340 -2.0627
 8253TIP3   OH246173   5.006   0.251  13.489 -0.3363  0.0354 -0.1371
 8253TIP3    H146174   5.007   0.320  13.422 -0.8487  1.0791  0.9012
 8253TIP3    H246175   4.932   0.273  13.546 -0.6970 -1.5516  0.0551
 8254TIP3   OH246176   5.048   3.083  11.106  0.2010 -0.1099 -0.3979
 8254TIP3    H146177   5.079   2.995  11.083  0.3410 -0.0455 -0.4586
 8254TIP3    H246178   5.091   3.140  11.043  0.5053  0.0577 -0.0465
 8255TIP3   OH246179   0.559   0.909  15.818 -0.1415  0.0679  0.4135
 8255TIP3    H146180   0.650   0.932  15.838  0.1093  0.5915 -1.1766
 8255TIP3    H246181   0.517   0.993  15.799 -0.2756 -0.3598 -1.3811
 8256TIP3   OH246182   1.306   1.781   1.861 -0.0782  0.3346 -0.4128
 8256TIP3    H146183   1.280   1.705   1.912 -0.8786 -0.2506 -1.6252
 8256TIP3    H246184   1.294   1.856   1.920 -0.1302 -0.3866  0.5082
 8257TIP3   OH246185   5.094   5.219  13.267 -0.4933  0.5311 -0.0899
 8257TIP3    H146186   5.187   5.240  13.268 -0.1636 -0.7805 -1.0906
 8257TIP3    H246187   5.072   5.209  13.175 -1.4317 -0.0147  0.1748
 8258TIP3   OH246188   5.641   5.203  13.035 -0.2914  0.3346 -0.1940
 8258TIP3    H146189   5.649   5.248  13.119 -0.1873  0.0269 -0.0362
 8258TIP3    H246190   5.711   5.241  12.982  0.4252 -0.3236  0.2570
 8259TIP3   OH246191   6.322   3.900   6.160 -0.9217 -1.0769  0.9184
 8259TIP3    H146192   6.237   3.934   6.130 -0.5092 -2.2352 -1.8369
 8259TIP3    H246193   6.370   3.978   6.189 -1.7354  0.0811 -0.6676
 8260TIP3   OH246194   6.259   0.237   1.242 -0.2825 -0.4346  0.2161
 8260TIP3    H146195   6.287   0.289   1.166 -1.6503 -0.0099 -0.0277
 8260TIP3    H246196   6.172   0.269   1.262  0.2873 -0.0807  2.4067
 8261TIP3   OH246197   2.272   1.945  16.022  0.7597 -0.2513 -0.4990
 8261TIP3    H146198   2.197   1.975  15.971  1.4469 -2.2360 -2.8967
 8261TIP3    H246199   2.240   1.867  16.068  1.0687 -0.4388 -0.6047
 8262TIP3   OH246200   5.090   1.680  12.191  0.1884  0.6955 -0.0436
 8262TIP3    H146201   5.151   1.750  12.168  1.4235  0.0071  0.9906
 8262TIP3    H246202   5.031   1.673  12.115  0.8929  1.9131 -0.7330
 8263TIP3   OH246203   2.110   2.421   5.423  0.1381 -0.4219 -0.3379
 8263TIP3    H146204   2.171   2.375   5.365 -0.8006 -1.2519 -0.7095
 8263TIP3    H246205   2.166   2.473   5.480  1.1276 -0.1671 -1.4950
 8264TIP3   OH246206   0.425   4.293  14.910  0.4271 -0.3102  0.1415
 8264TIP3    H146207   0.501   4.320  14.859  0.6355  0.1569  0.6998
 8264TIP3    H246208   0.410   4.202  14.884  0.4035 -0.0147 -0.9075
 8265TIP3   OH246209   0.323   3.327   1.114  0.1208  0.4438  0.5575
 8265TIP3    H146210   0.294   3.373   1.193 -1.8191 -0.6739  0.5543
 8265TIP3    H246211   0.261   3.355   1.046  0.9524  0.3565 -0.2520
 8266TIP3   OH246212   5.283   3.143  15.264  0.2068 -0.4115 -0.1533
 8266TIP3    H146213   5.263   3.086  15.338 -0.1831  2.1443  1.8017
 8266TIP3    H246214   5.368   3.182  15.286  0.8122 -0.6815 -1.8018
 8267TIP3   OH246215   1.827   0.817  10.377  0.0131 -0.7333  0.3627
 8267TIP3    H146216   1.862   0.757  10.443 -1.6080 -0.2063  1.7631
 8267TIP3    H246217   1.748   0.853  10.417  0.0403  1.0869 -1.1153
 8268TIP3   OH246218   0.740   3.888   2.225  0.1895  0.5842  0.1448
 8268TIP3    H146219   0.684   3.885   2.302  0.2641 -0.6639  0.1795
 8268TIP3    H246220   0.819   3.934   2.253 -0.1697  0.9724  0.5325
 8269TIP3   OH246221   1.456   0.143   1.878  0.3150  0.1674 -0.1207
 8269TIP3    H146222   1.450   0.050   1.899 -1.4002  0.3918  0.5017
 8269TIP3    H246223   1.537   0.173   1.921 -0.0908 -0.6378  1.2348
 8270TIP3   OH246224   6.453   3.494   2.137 -0.7861  0.6700  0.2208
 8270TIP3    H146225   6.419   3.500   2.227 -1.5501  1.1177 -0.0927
 8270TIP3    H246226   6.501   3.411   2.136 -1.1895  0.4190  0.9035
 8271TIP3   OH246227   1.152   5.060  16.613 -0.7171 -0.6953 -0.4770
 8271TIP3    H146228   1.235   5.077  16.658 -1.2841 -1.5135  0.9451
 8271TIP3    H246229   1.104   5.142  16.617 -0.4060 -0.5161 -0.3906
 8272TIP3   OH246230   5.533   3.494   4.878 -0.2207  0.4303 -0.3111
 8272TIP3    H146231   5.612   3.444   4.856 -0.5878 -0.4980  0.4170
 8272TIP3    H246232   5.482   3.496   4.797  0.8582  1.6695 -0.9979
 8273TIP3   OH246233   0.638   2.470   4.559 -0.3705 -0.1596  0.0159
 8273TIP3    H146234   0.714   2.435   4.512  0.7224  1.5677  0.4360
 8273TIP3    H246235   0.632   2.415   4.638  0.2783 -0.4687 -0.1393
 8274TIP3   OH246236   0.056   0.456  14.905 -0.1035 -0.2465 -0.2023
 8274TIP3    H146237   0.098   0.447  14.991 -0.3866 -2.1636 -0.2389
 8274TIP3    H246238   0.075   0.374  14.860 -0.3732  0.5394 -1.8165
 8275TIP3   OH246239   4.984   0.001  15.201  0.2661 -0.2909 -0.2778
 8275TIP3    H146240   5.051   0.025  15.137  0.3339  1.8664  0.5001
 8275TIP3    H246241   4.906  -0.018  15.148  0.9661 -0.9719 -1.0915
 8276TIP3   OH246242   0.190   2.039  16.047  1.0037 -0.0888  0.8129
 8276TIP3    H146243   0.095   2.026  16.048  0.7903  1.1433 -0.4772
 8276TIP3    H246244   0.202   2.132  16.065  1.7604  0.4390 -1.9692
 8277TIP3   OH246245   6.326   5.541  10.786 -0.0489  0.3234  0.0540
 8277TIP3    H146246   6.400   5.508  10.736  0.3838 -0.4673  1.1670
 8277TIP3    H246247   6.261   5.567  10.720  0.9439  0.4030 -0.9160
 8278TIP3   OH246248   0.471   0.245   2.127 -0.1957  0.2111 -0.0318
 8278TIP3    H146249   0.408   0.263   2.197 -3.1231 -1.3569 -1.9929
 8278TIP3    H246250   0.469   0.324   2.073  1.7336  1.2504  1.3349
 8279TIP3   OH246251   4.293   3.875  16.214  0.3652  0.2688 -0.5040
 8279TIP3    H146252   4.385   3.876  16.242  0.0924 -1.2593  0.5378
 8279TIP3    H246253   4.243   3.895  16.293 -0.4281 -4.4094  0.4487
 8280TIP3   OH246254   2.690   0.205   3.996  0.6729  0.0502 -0.1610
 8280TIP3    H146255   2.749   0.251   3.936  0.9152 -0.2921 -0.1898
 8280TIP3    H246256   2.649   0.137   3.941 -0.3869  0.8135 -0.3519
 8281TIP3   OH246257   1.865   5.559  13.090 -0.3105  0.0747 -0.1537
 8281TIP3    H146258   1.894   5.625  13.028 -1.4466 -0.9197 -1.8074
 8281TIP3    H246259   1.773   5.543  13.069  0.1547 -2.7175 -0.5282
 8282TIP3   OH246260   4.847   2.218  14.063  0.4911  0.1154  0.3334
 8282TIP3    H146261   4.798   2.285  14.112  2.2910  0.6592  1.4849
 8282TIP3    H246262   4.853   2.144  14.123 -1.3068 -1.0991 -0.8580
 8283TIP3   OH246263   0.821   3.657  15.058  0.2118  0.5041 -0.2322
 8283TIP3    H146264   0.796   3.633  14.969  2.1160  0.7150 -0.8681
 8283TIP3    H246265   0.825   3.753  15.056  0.3834  0.5030  0.0337
 8284TIP3   OH246266   6.702   0.811  15.817  0.2624 -0.1503 -0.5404
 8284TIP3    H146267   6.635   0.877  15.798 -0.0732 -0.3261 -0.0109
 8284TIP3    H246268   6.776   0.861  15.852 -0.2479 -0.1011  0.5187
 8285TIP3   OH246269   1.157   6.399   4.420 -0.3223 -0.0712 -0.3519
 8285TIP3    H146270   1.131   6.390   4.328 -2.5981  1.4723  0.0612
 8285TIP3    H246271   1.226   6.466   4.419  0.1145 -0.5181 -0.9794
 8286TIP3   OH246272   1.969   4.311   0.766 -0.2149 -0.6748 -0.5694
 8286TIP3    H146273   1.984   4.237   0.708  1.0631  0.0208 -1.1770
 8286TIP3    H246274   2.001   4.282   0.851  0.7370 -0.6619 -0.9147
 8287TIP3   OH246275   1.811   1.920   4.605  0.3907 -0.0140  0.2900
 8287TIP3    H146276   1.815   1.886   4.516 -0.9756  2.3955 -0.8083
 8287TIP3    H246277   1.891   1.972   4.615  0.8763 -0.8261  0.7611
 8288TIP3   OH246278   4.419   0.912   4.392  0.5102 -0.5609 -0.3065
 8288TIP3    H146279   4.489   0.861   4.433 -1.5314 -2.2549  1.3271
 8288TIP3    H246280   4.372   0.952   4.466  0.8852  2.2324 -1.4507
 8289TIP3   OH246281   2.673   1.553  12.403 -0.3279  0.1519 -0.0011
 8289TIP3    H146282   2.761   1.551  12.368 -0.8039 -3.0977 -1.3267
 8289TIP3    H246283   2.637   1.637  12.375  1.8233  0.8861 -0.6820
 8290TIP3   OH246284   1.547   1.531  16.984 -0.6568  0.5230 -0.4352
 8290TIP3    H146285   1.577   1.620  17.002 -0.0062  0.3133 -0.4662
 8290TIP3    H246286   1.553   1.487  17.069  0.0371  0.2212 -0.6315
 8291TIP3   OH246287   1.888   1.094  12.811 -0.4990 -0.2799  0.2359
 8291TIP3    H146288   1.843   1.031  12.756 -0.9248  0.1201  0.1180
 8291TIP3    H246289   1.852   1.179  12.785  1.7904  0.2926 -1.3309
 8292TIP3   OH246290   2.104   6.025   2.207 -0.0570 -0.1089 -0.7052
 8292TIP3    H146291   2.072   5.974   2.281  1.5495 -0.9423 -0.5483
 8292TIP3    H246292   2.099   6.116   2.236 -1.9873 -0.1940 -0.6155
 8293TIP3   OH246293   3.647   3.851  15.175 -1.0969 -0.1621 -0.4064
 8293TIP3    H146294   3.592   3.912  15.125 -1.3638 -0.0021  0.0786
 8293TIP3    H246295   3.730   3.848  15.127 -0.8303  1.1261 -0.0524
 8294TIP3   OH246296   3.775   3.069   3.471  0.4574  0.2510  0.0329
 8294TIP3    H146297   3.761   2.988   3.422  0.1326 -0.2713  0.9603
 8294TIP3    H246298   3.855   3.106   3.435  0.8207 -0.6860 -0.1370
 8295TIP3   OH246299   1.185   6.198  15.643 -0.2338  0.4628  0.5378
 8295TIP3    H146300   1.224   6.261  15.703  1.0138  0.8238 -0.6097
 8295TIP3    H246301   1.204   6.113  15.683  1.5270  0.6458  0.1610
 8296TIP3   OH246302   1.851   3.039   2.866 -0.1765 -0.0811 -0.1122
 8296TIP3    H146303   1.809   3.075   2.944 -1.1251  0.3732 -0.8176
 8296TIP3    H246304   1.831   3.101   2.796 -0.1205 -0.9427 -0.9207
 8297TIP3   OH246305   0.801   4.758   5.536  0.3532  0.1702 -0.3626
 8297TIP3    H146306   0.850   4.828   5.579  0.6342  0.5188 -1.2348
 8297TIP3    H246307   0.864   4.687   5.527  0.4799  0.3340 -0.7793
 8298TIP3   OH246308   3.215   0.259  16.841 -0.6616  0.0796 -0.2607
 8298TIP3    H146309   3.206   0.354  16.833 -0.2603  0.1416  0.0157
 8298TIP3    H246310   3.129   0.225  16.815 -0.9686  0.5446  0.1383
 8299TIP3   OH246311   1.802   1.648  10.978 -0.6458  0.0712  0.7042
 8299TIP3    H146312   1.775   1.592  10.905 -0.9073  1.4450 -0.2964
 8299TIP3    H246313   1.865   1.595  11.027 -0.3684 -0.8357 -0.5879
 8300TIP3   OH246314   2.284   6.445   2.784  0.4250 -0.5176 -0.3424
 8300TIP3    H146315   2.316   6.520   2.735 -0.2480  0.0925  0.1410
 8300TIP3    H246316   2.357   6.421   2.841  0.5032  0.0120 -0.2172
 8301TIP3   OH246317   3.652   6.300  15.635 -0.4054  0.4934 -0.7180
 8301TIP3    H146318   3.701   6.221  15.613 -0.2462  0.3793  0.0224
 8301TIP3    H246319   3.660   6.307  15.730 -0.0980  1.6130 -0.8162
 8302TIP3   OH246320   2.992   0.583  14.760  0.2187  0.1243 -0.2602
 8302TIP3    H146321   3.080   0.618  14.744  1.6882 -3.3717 -0.7489
 8302TIP3    H246322   2.952   0.579  14.673 -0.0389  0.7349 -0.1748
 8303TIP3   OH246323   1.426   2.520   3.779 -0.5469  0.1311 -0.2377
 8303TIP3    H146324   1.353   2.527   3.717  0.6497  0.4279 -1.6755
 8303TIP3    H246325   1.460   2.432   3.766 -2.1681 -0.9816  2.2832
 8304TIP3   OH246326   4.542   3.376  14.717  0.0920 -0.6685 -0.3472
 8304TIP3    H146327   4.625   3.395  14.674  1.1665  0.5287  2.0484
 8304TIP3    H246328   4.565   3.365  14.810 -2.4470 -0.0310  0.4374
 8305TIP3   OH246329   3.116   5.957  14.257  0.0928 -0.4799  0.6597
 8305TIP3    H146330   3.070   5.873  14.251  0.6926 -0.6793 -2.7757
 8305TIP3    H246331   3.046   6.021  14.274 -0.9498 -1.2198 -0.6692
 8306TIP3   OH246332   6.088   5.496   4.549  0.5921  0.3394  0.4939
 8306TIP3    H146333   6.081   5.401   4.533 -0.2776  0.3316  0.8783
 8306TIP3    H246334   6.170   5.521   4.506 -0.2445 -0.1922 -1.5512
 8307TIP3   OH246335   5.548   0.005   3.934  0.2070  0.7353  0.6560
 8307TIP3    H146336   5.605  -0.044   3.993  1.8785 -0.0688 -1.5044
 8307TIP3    H246337   5.592   0.089   3.922  0.1169  0.7233  0.2121
 8308TIP3   OH246338   5.429   4.065  12.878 -0.0707  0.0597  0.6429
 8308TIP3    H146339   5.362   4.097  12.939 -0.8309  1.8586 -1.0506
 8308TIP3    H246340   5.426   4.126  12.805  1.5840 -1.3958 -0.7183
 8309TIP3   OH246341   2.427   3.336  16.039  0.8311 -0.0460 -0.3472
 8309TIP3    H146342   2.456   3.264  16.095  0.0196 -0.6570 -0.6968
 8309TIP3    H246343   2.332   3.331  16.040  0.7946 -0.1394 -1.8495
 8310TIP3   OH246344   3.403   2.009   3.028  0.5867  0.8419  0.5778
 8310TIP3    H146345   3.334   1.954   2.991  0.6474  0.8271  0.4862
 8310TIP3    H246346   3.408   1.983   3.120  0.2594  1.0601  0.6607
 8311TIP3   OH246347   3.775   6.665   1.929  0.2233  0.0407 -0.2108
 8311TIP3    H146348   3.773   6.695   1.838  0.0155  0.2147 -0.1494
 8311TIP3    H246349   3.865   6.634   1.942  1.3302  3.2335  0.5683
 8312TIP3   OH246350   2.995   5.661  16.025 -0.2365  0.1328  0.2811
 8312TIP3    H146351   3.023   5.753  16.024 -3.3720  1.2864 -2.8555
 8312TIP3    H246352   2.919   5.660  16.084  0.0437 -0.5896  0.6441
 8313TIP3   OH246353   0.527   6.024  12.938  0.4327  0.2412 -0.0997
 8313TIP3    H146354   0.449   6.033  12.993  1.6548 -0.0251  1.7846
 8313TIP3    H246355   0.501   6.059  12.853 -1.1374  2.0836  1.0567
 8314TIP3   OH246356   2.500   6.381  15.723 -0.8157  0.9212  0.3646
 8314TIP3    H146357   2.411   6.371  15.758 -0.4550  0.1836  1.1033
 8314TIP3    H246358   2.557   6.362  15.797 -0.0277  2.6766  0.2460
 8315TIP3   OH246359   4.415   2.233   5.178 -0.3258  0.6251  0.3661
 8315TIP3    H146360   4.338   2.286   5.155 -0.0883  1.1027  0.6719
 8315TIP3    H246361   4.436   2.187   5.096 -1.2692  0.0573  0.4250
 8316TIP3   OH246362   1.959   0.332  16.815  1.1678  0.8495  0.2871
 8316TIP3    H146363   1.955   0.333  16.719 -1.7270 -1.4003  0.2500
 8316TIP3    H246364   1.888   0.390  16.843  0.9818  0.2885  1.0117
 8317TIP3   OH246365   4.523   6.210  11.722  0.1927  0.1106  0.5482
 8317TIP3    H146366   4.450   6.182  11.778 -0.8760  0.5112 -0.5848
 8317TIP3    H246367   4.496   6.184  11.634  0.9696  1.1579 -0.0201
 8318TIP3   OH246368   1.007   1.969   1.045  0.6244 -0.2204  0.5564
 8318TIP3    H146369   1.057   1.909   1.100  1.4507  0.9230  1.0735
 8318TIP3    H246370   1.055   2.051   1.048 -1.5886  1.1318  1.5911
 8319TIP3   OH246371   4.561   2.767  11.164  0.6883  0.2667  0.3530
 8319TIP3    H146372   4.588   2.691  11.112 -0.1705  0.4303 -0.3573
 8319TIP3    H246373   4.593   2.748  11.252 -0.7197 -1.6157  0.5332
 8320TIP3   OH246374   5.014   3.923   3.348  0.3336  0.2286  0.0146
 8320TIP3    H146375   5.083   3.958   3.292  0.1458  0.1282 -0.2785
 8320TIP3    H246376   4.933   3.963   3.316  0.0542 -0.8274 -0.6344
 8321TIP3   OH246377   2.790   2.874  16.127 -0.2713 -1.0097  0.1791
 8321TIP3    H146378   2.865   2.922  16.091 -1.9182  0.3557 -1.6868
 8321TIP3    H246379   2.786   2.900  16.218  0.1009  0.8341 -0.2974
 8322TIP3   OH246380   1.444   5.686  13.321  0.2255  0.4616 -0.5512
 8322TIP3    H146381   1.376   5.700  13.255 -0.9219  0.3098  0.5616
 8322TIP3    H246382   1.396   5.677  13.403  1.3882 -2.3601 -0.0824
 8323TIP3   OH246383   3.499   0.924   0.632  0.1803 -0.5364 -0.5967
 8323TIP3    H146384   3.574   0.920   0.691 -1.4674 -0.2310  1.6268
 8323TIP3    H246385   3.494   1.015   0.605 -0.3212 -0.2289  0.5232
 8324TIP3   OH246386   5.971   3.944  16.705 -0.0582 -0.5541  0.1621
 8324TIP3    H146387   5.885   3.918  16.740 -0.2801  0.1753  0.1736
 8324TIP3    H246388   5.983   3.888  16.628  0.1265 -1.6959  0.9846
 8325TIP3   OH246389   0.758   1.272  15.979 -0.4514 -0.8998  0.5450
 8325TIP3    H146390   0.708   1.338  15.931 -0.6837 -1.8931 -0.6392
 8325TIP3    H246391   0.801   1.320  16.050  1.6632  1.0921 -1.8827
 8326TIP3   OH246392   2.001   3.649   6.085  0.2774  0.5646  0.1890
 8326TIP3    H146393   1.968   3.579   6.029 -0.0564 -0.4044  1.5484
 8326TIP3    H246394   1.922   3.694   6.115  0.3663  0.2351  0.9318
 8327TIP3   OH246395   2.381   3.017  15.834  0.2195 -0.3856  0.0731
 8327TIP3    H146396   2.323   3.022  15.909 -1.0747  1.2205 -0.9696
 8327TIP3    H246397   2.468   2.999  15.871 -0.6863 -1.5236  1.7580
 8328TIP3   OH246398   4.058   0.603   2.930 -0.1789  0.2320 -0.5574
 8328TIP3    H146399   4.071   0.511   2.951  1.7526  0.7389  0.8014
 8328TIP3    H246400   3.973   0.607   2.886 -0.7581 -2.0368  0.2487
 8329TIP3   OH246401   1.419   5.926  12.065  0.0359 -0.0923  0.1744
 8329TIP3    H146402   1.359   5.877  12.122 -1.5883 -0.3409 -1.6458
 8329TIP3    H246403   1.407   6.018  12.091 -0.4829 -0.2269  0.4347
 8330TIP3   OH246404   2.917   3.878   2.335  0.0218 -0.1017  0.2370
 8330TIP3    H146405   2.998   3.831   2.313  0.7812  0.9085  0.7581
 8330TIP3    H246406   2.876   3.823   2.403 -1.5474 -2.4059 -2.3491
 8331TIP3   OH246407   6.677   2.429  13.564 -0.7826 -0.3907  0.4076
 8331TIP3    H146408   6.633   2.367  13.623  0.6738 -3.3260 -1.3325
 8331TIP3    H246409   6.610   2.455  13.501 -0.8644 -2.3444 -0.3750
 8332TIP3   OH246410   4.579   4.396   6.369 -0.2605 -0.3551 -0.1628
 8332TIP3    H146411   4.653   4.366   6.422  0.5769  1.7660  0.0012
 8332TIP3    H246412   4.525   4.446   6.430 -1.8900 -1.8786 -0.2810
 8333TIP3   OH246413   4.686   4.548  12.318 -0.3207  0.0593 -0.2571
 8333TIP3    H146414   4.776   4.545  12.285 -0.1268 -0.8622  0.2979
 8333TIP3    H246415   4.670   4.459  12.350 -0.9519  0.5703  0.9061
 8334TIP3   OH246416   1.957   4.351   2.673 -0.6365 -0.0075  0.0490
 8334TIP3    H146417   2.018   4.278   2.682 -0.3099  0.3922  1.2072
 8334TIP3    H246418   1.978   4.389   2.587 -0.6146 -1.0761 -0.4343
 8335TIP3   OH246419   4.752   0.121   0.133  0.3277 -0.3655 -0.0638
 8335TIP3    H146420   4.844   0.100   0.119  0.3273  0.9463 -2.4525
 8335TIP3    H246421   4.748   0.216   0.131 -1.1288 -0.4060 -0.4346
 8336TIP3   OH246422   1.213   4.755  17.371 -0.0037 -0.1127 -0.1236
 8336TIP3    H146423   1.196   4.686  17.435 -0.1738  1.6880  1.8651
 8336TIP3    H246424   1.133   4.759  17.319 -1.1240  0.4418  1.5687
 8337TIP3   OH246425   2.118   5.307  13.824  0.0609  0.6522  0.0232
 8337TIP3    H146426   2.174   5.382  13.841  0.6042 -0.0400  1.4560
 8337TIP3    H246427   2.032   5.333  13.857 -0.2328  1.3023 -1.1787
 8338TIP3   OH246428   3.006   3.908   4.338  0.1396  0.4376  0.4416
 8338TIP3    H146429   3.072   3.872   4.398 -1.0058 -1.7919  0.4701
 8338TIP3    H246430   2.929   3.923   4.394 -1.2005 -2.3793 -0.4639
 8339TIP3   OH246431   4.177   2.676  13.021 -0.3743 -0.0033 -0.0807
 8339TIP3    H146432   4.256   2.631  12.991  0.5423 -0.8784  3.1963
 8339TIP3    H246433   4.118   2.606  13.047 -0.5209  0.6275  1.3879
 8340TIP3   OH246434   0.617   0.090   0.899  0.4733 -0.3045  0.1969
 8340TIP3    H146435   0.710   0.102   0.883  0.3106 -1.6990 -2.3076
 8340TIP3    H246436   0.581   0.178   0.904  1.5855  0.2579 -1.2899
 8341TIP3   OH246437   2.813   2.487  12.215  0.2042  0.3902  0.2025
 8341TIP3    H146438   2.835   2.402  12.178 -1.5024  0.1499 -0.3679
 8341TIP3    H246439   2.876   2.500  12.286  0.0489 -1.6687  0.7709
 8342TIP3   OH246440   1.803   3.155  16.222  0.2825  0.1867  0.6601
 8342TIP3    H146441   1.895   3.127  16.221  0.2387  0.0353  0.8945
 8342TIP3    H246442   1.758   3.086  16.269  0.0726  0.3486  0.6939
 8343TIP3   OH246443   1.423   3.128   0.170 -0.0832 -0.4138  0.1007
 8343TIP3    H146444   1.475   3.106   0.093 -0.4958 -0.1329 -0.2636
 8343TIP3    H246445   1.438   3.221   0.183  0.6993 -0.6371  0.9098
 8344TIP3   OH246446   0.251   5.518  16.542  0.3147  0.9629 -0.0121
 8344TIP3    H146447   0.271   5.472  16.624 -1.4175 -2.0690 -1.1220
 8344TIP3    H246448   0.197   5.592  16.568 -0.9175 -0.4223  1.5806
 8345TIP3   OH246449   5.236   2.892  13.408 -0.5514  0.1022 -0.8590
 8345TIP3    H146450   5.222   2.926  13.320 -1.9974 -0.0826 -0.7186
 8345TIP3    H246451   5.185   2.948  13.465  0.6499  0.4339 -0.0669
 8346TIP3   OH246452   0.324   3.589   5.474 -0.0349 -0.9141  0.2176
 8346TIP3    H146453   0.383   3.612   5.546 -1.6668 -0.2018  1.3603
 8346TIP3    H246454   0.243   3.561   5.516 -1.3395  0.3395 -1.3358
 8347TIP3   OH246455   4.255   6.399   0.850 -0.7239 -0.0882 -1.0053
 8347TIP3    H146456   4.344   6.417   0.820 -0.3334 -2.4414 -1.4646
 8347TIP3    H246457   4.236   6.312   0.816 -2.2466 -0.7003  1.2411
 8348TIP3   OH246458   3.524   5.896  12.086 -0.2819  0.1428 -0.1450
 8348TIP3    H146459   3.523   5.811  12.043  2.0466 -0.5165  0.9189
 8348TIP3    H246460   3.485   5.880  12.172 -0.0351  0.1836 -0.0235
 8349TIP3   OH246461   4.638   6.382  13.099 -0.2872  0.3213  0.3610
 8349TIP3    H146462   4.601   6.471  13.093 -2.2844 -0.4949 -0.2135
 8349TIP3    H246463   4.567   6.329  13.135 -0.0675 -1.5378 -1.7467
 8350TIP3   OH246464   6.414   2.095  15.934 -0.0773 -0.4166  0.3166
 8350TIP3    H146465   6.419   2.187  15.960  2.0830  0.6083 -3.0267
 8350TIP3    H246466   6.354   2.094  15.861 -0.2024 -1.7227  0.4165
 8351TIP3   OH246467   4.823   5.218   5.118  0.2813  0.1067 -0.3357
 8351TIP3    H146468   4.844   5.220   5.212 -4.2255  0.9380  0.8784
 8351TIP3    H246469   4.831   5.125   5.094 -1.1000 -0.5849  1.6377
 8352TIP3   OH246470   2.084   6.495   4.948 -0.5508  0.0494 -0.2359
 8352TIP3    H146471   2.167   6.455   4.972 -0.3592  0.4952 -0.1398
 8352TIP3    H246472   2.068   6.467   4.857  0.7139  1.5798 -0.9701
 8353TIP3   OH246473   4.412   3.399   6.823 -0.1220 -0.5764 -0.0171
 8353TIP3    H146474   4.359   3.321   6.810  1.6415 -2.1444  1.4245
 8353TIP3    H246475   4.502   3.366   6.826  0.8271  1.7459 -0.9154
 8354TIP3   OH246476   5.811   3.806  11.688 -0.0043 -0.7115  0.2121
 8354TIP3    H146477   5.890   3.801  11.634 -0.1525  3.6974 -0.7738
 8354TIP3    H246478   5.842   3.840  11.772 -0.8011  1.1339 -0.2121
 8355TIP3   OH246479   4.890   1.172   0.253 -0.7420 -0.0599  0.0759
 8355TIP3    H146480   4.823   1.228   0.214 -0.4575  0.7197  0.6855
 8355TIP3    H246481   4.889   1.195   0.346 -0.4137 -0.8570  0.2782
 8356TIP3   OH246482   6.310   6.267  15.199  0.0237 -0.1220  0.9651
 8356TIP3    H146483   6.226   6.276  15.154  0.0680 -1.0751  0.6779
 8356TIP3    H246484   6.301   6.323  15.276  0.1761  2.0631 -0.5130
 8357TIP3   OH246485   0.818   5.100   3.560  0.3869 -0.0963  0.9173
 8357TIP3    H146486   0.762   5.073   3.488  1.6098  0.4907 -0.2874
 8357TIP3    H246487   0.847   5.018   3.601  0.6597 -0.4710 -0.0187
 8358TIP3   OH246488   3.649   5.227   0.721 -0.9089 -0.2976  0.6631
 8358TIP3    H146489   3.672   5.312   0.683 -1.2877 -0.4081  0.1646
 8358TIP3    H246490   3.642   5.169   0.646  1.5315 -1.3296  1.1663
 8359TIP3   OH246491   4.861   2.377  13.240  0.2000  0.1343  0.8055
 8359TIP3    H146492   4.855   2.402  13.148 -0.3406 -0.2496  0.7265
 8359TIP3    H246493   4.928   2.308  13.242 -0.1751 -0.2395  0.6104
 8360TIP3   OH246494   6.628   5.220  15.487  0.0901 -0.1219  0.1468
 8360TIP3    H146495   6.565   5.200  15.556  0.2044  1.3510  0.7225
 8360TIP3    H246496   6.655   5.135  15.453 -1.3858 -0.8197  0.6252
 8361TIP3   OH246497   3.312   5.123  12.293  0.0846  0.2510 -0.4098
 8361TIP3    H146498   3.399   5.160  12.277  0.3352  0.6350  1.5947
 8361TIP3    H246499   3.251   5.192  12.266  0.4829  0.9437  0.4194
 8362TIP3   OH246500   0.499   2.982  16.271 -0.9031  0.3015 -0.1294
 8362TIP3    H146501   0.431   2.964  16.336 -1.4568  3.2861  0.2319
 8362TIP3    H246502   0.465   2.945  16.189 -2.1018  0.1418  0.4305
 8363TIP3   OH246503   4.083   1.633  16.895 -0.6129  0.2415  0.1839
 8363TIP3    H146504   4.078   1.629  16.991 -1.6237 -0.6312  0.1135
 8363TIP3    H246505   4.028   1.561  16.865  3.4395 -2.6753 -1.0415
 8364TIP3   OH246506   1.544   3.217   4.611 -0.2446 -0.2254  0.3631
 8364TIP3    H146507   1.630   3.193   4.577 -1.0490 -0.1774 -1.8636
 8364TIP3    H246508   1.559   3.236   4.703  1.9509 -1.0965  0.2404
 8365TIP3   OH246509   3.699   5.625  14.779 -0.1569 -0.1054 -0.3260
 8365TIP3    H146510   3.689   5.706  14.829  0.9990 -0.2918  0.2378
 8365TIP3    H246511   3.765   5.646  14.712 -0.3190 -0.4049 -0.5854
 8366TIP3   OH246512   2.886   4.042  15.576  0.3493  0.4413  0.0628
 8366TIP3    H146513   2.922   4.019  15.662 -0.1596  2.0722  0.7375
 8366TIP3    H246514   2.791   4.040  15.589  0.2144 -1.0907 -0.9693
 8367TIP3   OH246515   6.697   3.031  11.800 -0.3792 -0.1531  0.0206
 8367TIP3    H146516   6.756   2.978  11.747 -2.9849 -0.9305 -2.3590
 8367TIP3    H246517   6.719   3.121  11.778  0.6109 -0.3904  0.0177
 8368TIP3   OH246518   3.744   6.380  11.438  0.3256 -0.0780 -0.2137
 8368TIP3    H146519   3.657   6.419  11.440 -0.1003 -0.9557 -0.9242
 8368TIP3    H246520   3.750   6.330  11.519 -0.5056 -1.3964 -0.9397
 8369TIP3   OH246521   4.399   4.765   0.756  0.3345  0.9074  0.3358
 8369TIP3    H146522   4.326   4.807   0.802  1.4166  2.0888  1.0439
 8369TIP3    H246523   4.475   4.783   0.811  0.7705 -3.1143  1.4040
 8370TIP3   OH246524   6.730   0.353   1.279  0.2652 -0.2426  0.3604
 8370TIP3    H146525   6.814   0.319   1.310  0.8506  0.4762 -0.4000
 8370TIP3    H246526   6.746   0.376   1.188 -0.2523  1.5649  0.6934
 8371TIP3   OH246527   5.665   3.569  14.960  0.1739  0.0441 -0.1307
 8371TIP3    H146528   5.738   3.582  14.900  1.2396 -1.6583  0.7153
 8371TIP3    H246529   5.704   3.567  15.047 -1.0930  0.5928  0.4779
 8372TIP3   OH246530   4.496   1.595  14.735 -0.1448  0.0845 -0.7598
 8372TIP3    H146531   4.508   1.502  14.756  0.4576  0.1787 -0.6695
 8372TIP3    H246532   4.469   1.597  14.644 -0.8301 -0.2152 -0.5732
 8373TIP3   OH246533   4.160   2.715  14.944 -0.4258 -0.1818 -0.0766
 8373TIP3    H146534   4.239   2.756  14.979 -0.0461 -0.1752 -0.9205
 8373TIP3    H246535   4.094   2.729  15.012  0.7785 -1.9373  1.5650
 8374TIP3   OH246536   3.249   1.454   4.598 -0.1637  0.1942 -0.4263
 8374TIP3    H146537   3.177   1.509   4.630  1.2709  0.7472  2.1193
 8374TIP3    H246538   3.245   1.375   4.652  0.9806  0.1387 -0.3888
 8375TIP3   OH246539   5.785   2.197   5.085 -0.1324 -0.1154 -0.0272
 8375TIP3    H146540   5.789   2.257   5.011 -0.8685 -0.8626 -0.6988
 8375TIP3    H246541   5.748   2.248   5.156  0.4191  0.5662 -0.2228
 8376TIP3   OH246542   0.604   6.043  11.180  0.3461 -0.6043  0.2426
 8376TIP3    H146543   0.654   5.966  11.151 -1.1959 -1.0282 -1.4522
 8376TIP3    H246544   0.662   6.116  11.161  1.3836 -1.2308  0.8310
 8377TIP3   OH246545   1.979   3.245   1.972 -0.7768  0.0668  0.3596
 8377TIP3    H146546   2.057   3.299   1.965 -0.4578 -0.3236  0.8105
 8377TIP3    H246547   1.931   3.261   1.891  0.3682 -0.5988 -0.4890
 8378TIP3   OH246548   4.098   6.414  14.743 -0.0735  0.4041  0.2070
 8378TIP3    H146549   4.131   6.485  14.798  2.2750  0.9187 -1.7057
 8378TIP3    H246550   4.157   6.412  14.668 -1.6656 -1.8645 -1.1150
 8379TIP3   OH246551   5.996   3.642   6.394  0.4039  0.1530 -0.1564
 8379TIP3    H146552   5.919   3.671   6.443  0.3470 -1.9757  1.1660
 8379TIP3    H246553   6.059   3.616   6.460  1.4261 -0.1678 -1.2170
 8380TIP3   OH246554   0.802   0.476   1.499 -0.5611 -1.5656  0.0751
 8380TIP3    H146555   0.733   0.418   1.531 -0.6352 -0.8940  1.1801
 8380TIP3    H246556   0.766   0.515   1.420 -1.7124 -0.7938  0.9409
 8381TIP3   OH246557   1.688   5.725   5.553 -0.1230  0.2469  0.4602
 8381TIP3    H146558   1.643   5.661   5.607 -1.3704  1.4200  0.8743
 8381TIP3    H246559   1.761   5.755   5.607 -1.3015  1.3373  1.5056
 8382TIP3   OH246560   0.575   2.881  10.839 -0.1813  0.0630  0.0130
 8382TIP3    H146561   0.611   2.857  10.753  1.3178  3.2007 -0.3581
 8382TIP3    H246562   0.480   2.876  10.827 -0.0294 -2.7462 -0.7516
 8383TIP3   OH246563   2.624   3.055   4.531  0.2749  0.1313 -0.1871
 8383TIP3    H146564   2.632   3.094   4.618  1.2286  0.1762 -0.2808
 8383TIP3    H246565   2.715   3.044   4.501 -0.0013 -1.1250 -0.6286
 8384TIP3   OH246566   2.665   5.883   2.741  0.3059 -0.4652 -0.3557
 8384TIP3    H146567   2.724   5.958   2.748 -2.2850  1.8528 -1.1651
 8384TIP3    H246568   2.698   5.833   2.667  2.5137 -0.5973  0.6419
 8385TIP3   OH246569   5.367   4.968   5.091 -0.2005 -0.6250 -0.4754
 8385TIP3    H146570   5.277   4.993   5.111  0.7517  3.5786 -0.4528
 8385TIP3    H246571   5.403   4.938   5.174 -1.1159 -0.7582 -0.1134
 8386TIP3   OH246572   0.264   3.856  11.455 -0.2348  0.2765 -0.2599
 8386TIP3    H146573   0.301   3.808  11.381  0.3404  1.2440 -0.6116
 8386TIP3    H246574   0.250   3.944  11.423 -0.4286  0.5911  0.6454
 8387TIP3   OH246575   1.424   0.384  12.638  0.1154 -0.0374 -0.3162
 8387TIP3    H146576   1.366   0.317  12.675 -0.7086  1.6012  1.4968
 8387TIP3    H246577   1.378   0.466  12.652  1.3698  1.0080 -1.9743
 8388TIP3   OH246578   0.438   6.683  11.184  0.7086 -0.1855 -0.1410
 8388TIP3    H146579   0.359   6.704  11.234 -0.5687 -1.2514 -1.5862
 8388TIP3    H246580   0.504   6.745  11.215 -0.4037  0.1107  1.8103
 8389TIP3   OH246581   4.847   1.218   4.457 -0.5452  0.2629  0.0850
 8389TIP3    H146582   4.873   1.244   4.368  1.0619  0.0068  0.4429
 8389TIP3    H246583   4.799   1.293   4.491  0.4237  1.1209 -0.3639
 8390TIP3   OH246584   3.052   1.182   3.993 -0.2319 -0.2624 -0.9786
 8390TIP3    H146585   3.136   1.136   4.006  0.3760  0.3815 -2.4538
 8390TIP3    H246586   3.008   1.173   4.078  1.1109 -1.0432 -0.3094
 8391TIP3   OH246587   5.895   0.792  17.367 -0.4370  0.2398 -0.1238
 8391TIP3    H146588   5.847   0.743  17.433 -0.3093  0.4218  0.1052
 8391TIP3    H246589   5.938   0.726  17.314 -1.1246  0.0633 -0.4726
 8392TIP3   OH246590   2.738   4.892   4.231 -0.4206  0.3062  0.0586
 8392TIP3    H146591   2.825   4.933   4.230  0.7848 -2.0688  0.9829
 8392TIP3    H246592   2.685   4.951   4.286  1.5234  0.1944  2.2384
 8393TIP3   OH246593   6.422   4.196  16.973  0.1336 -0.1644  0.1906
 8393TIP3    H146594   6.408   4.156  17.059 -0.0247 -1.0681 -0.2433
 8393TIP3    H246595   6.412   4.124  16.911  1.3116  0.2482 -0.5179
 8394TIP3   OH246596   2.217   6.171   0.541  0.3209 -0.1731 -0.1702
 8394TIP3    H146597   2.278   6.190   0.469  1.7286 -0.4974  0.8883
 8394TIP3    H246598   2.130   6.173   0.501  0.9044  1.6179 -1.4887
 8395TIP3   OH246599   3.453   5.471   3.876 -0.0241 -0.4451 -0.2824
 8395TIP3    H146600   3.495   5.461   3.791  1.8953 -1.5268  0.7475
 8395TIP3    H246601   3.523   5.499   3.935 -1.2936  0.2207  0.9833
 8396TIP3   OH246602   3.840   4.948  12.586 -0.0667 -0.1143  0.9309
 8396TIP3    H146603   3.757   4.970  12.627 -0.5116 -0.3023  0.1362
 8396TIP3    H246604   3.896   5.023  12.604 -0.1542 -0.3126  2.1272
 8397TIP3   OH246605   1.525   3.331  15.820 -0.2455 -0.5988  0.2033
 8397TIP3    H146606   1.539   3.312  15.913  0.0465  0.8844  0.4888
 8397TIP3    H246607   1.432   3.350  15.812  0.2320  2.7705  0.9565
 8398TIP3   OH246608   3.755   5.932   6.113  0.3785  0.7415  0.5309
 8398TIP3    H146609   3.666   5.965   6.120 -0.0276  0.5033 -2.2506
 8398TIP3    H246610   3.749   5.840   6.140 -0.5445  0.3758 -0.7820
 8399TIP3   OH246611   2.318   1.995  15.679  0.7758  0.2436 -0.0402
 8399TIP3    H146612   2.403   1.962  15.709  0.9275  0.4279 -0.2752
 8399TIP3    H246613   2.338   2.078  15.636  0.6643 -0.4095 -1.3967
 8400TIP3   OH246614   2.057   2.840  12.582 -0.0700  0.0172 -0.2759
 8400TIP3    H146615   2.152   2.829  12.580  0.0043  0.3613 -3.4604
 8400TIP3    H246616   2.041   2.894  12.659  2.3189  0.0770  0.2712
 8401TIP3   OH246617   1.052   3.803  17.340  0.0251 -0.3176 -0.2478
 8401TIP3    H146618   1.025   3.778  17.428  0.8336  1.8593  0.6994
 8401TIP3    H246619   0.983   3.862  17.309  0.5259  0.1942 -0.4057
 8402TIP3   OH246620   3.650   4.695  17.028 -0.2081 -0.5981  0.4941
 8402TIP3    H146621   3.618   4.620  16.978 -0.9890  0.1366 -0.1548
 8402TIP3    H246622   3.613   4.683  17.116 -0.7367 -0.7316  0.2589
 8403TIP3   OH246623   4.950   1.293   6.223  0.0650 -0.5574 -0.1191
 8403TIP3    H146624   4.972   1.322   6.311 -3.2935 -0.2409  0.7445
 8403TIP3    H246625   4.913   1.206   6.235 -0.2290 -0.6051 -1.2572
 8404TIP3   OH246626   6.233   2.144   0.021  0.0590  0.4408 -0.5478
 8404TIP3    H146627   6.291   2.105  -0.045 -1.1732  0.4326 -1.6480
 8404TIP3    H246628   6.146   2.112  -0.002 -0.4377  0.6571  0.9384
 8405TIP3   OH246629   4.755   5.689   3.415 -0.2561 -0.3708  0.8095
 8405TIP3    H146630   4.826   5.627   3.399 -1.6293 -2.2867  1.7719
 8405TIP3    H246631   4.755   5.701   3.510  1.4504  3.0379  0.5302
 8406TIP3   OH246632   6.370   6.517   3.066  0.4766 -0.3012  0.2569
 8406TIP3    H146633   6.374   6.427   3.098 -1.0507 -1.0891 -1.5678
 8406TIP3    H246634   6.417   6.516   2.984  3.1591  1.3725  1.6386
 8407TIP3   OH246635   1.217   2.187  16.994 -0.4478  0.0495 -0.6754
 8407TIP3    H146636   1.183   2.098  16.997  1.0456 -0.5249 -0.0531
 8407TIP3    H246637   1.159   2.233  16.933 -3.1755 -0.4852  1.3190
 8408TIP3   OH246638   5.851   1.427   2.581 -0.2399 -0.0204 -0.0685
 8408TIP3    H146639   5.906   1.497   2.547 -0.8692  0.2623 -0.5064
 8408TIP3    H246640   5.914   1.363   2.617  0.3418  0.7102  0.2541
 8409TIP3   OH246641   3.247   1.819   6.609  0.2306  0.0188  0.2382
 8409TIP3    H146642   3.293   1.794   6.689  1.0229 -2.3929 -0.8936
 8409TIP3    H246643   3.159   1.784   6.620 -0.1419  1.0572  0.6779
 8410TIP3   OH246644   2.466   1.270  15.747  0.0613  0.2262 -0.2744
 8410TIP3    H146645   2.449   1.352  15.702 -0.7554  0.3597  0.2618
 8410TIP3    H246646   2.448   1.202  15.682  0.4674  0.4558 -0.6300
 8411TIP3   OH246647   2.795   4.920  15.998 -0.0611  0.3890  0.7254
 8411TIP3    H146648   2.844   4.883  15.924 -0.5688 -2.0682  1.5252
 8411TIP3    H246649   2.840   4.888  16.076 -2.8851 -2.1668  1.5081
 8412TIP3   OH246650   3.034   2.950  17.229 -0.1913 -0.2861  0.3470
 8412TIP3    H146651   3.128   2.931  17.234 -0.0216  0.6461  0.9125
 8412TIP3    H246652   3.027   3.042  17.255 -1.0892  0.1393 -1.2753
 8413TIP3   OH246653   2.870   1.056  13.974 -0.2995 -0.1480 -0.1126
 8413TIP3    H146654   2.793   1.001  13.969 -0.8709  0.6857 -4.2802
 8413TIP3    H246655   2.940   1.003  13.936 -0.4230  1.1843 -2.3681
 8414TIP3   OH246656   2.373   3.659  17.351 -0.2665  0.0984  0.4467
 8414TIP3    H146657   2.408   3.733  17.400  0.7605 -0.2120  0.2279
 8414TIP3    H246658   2.451   3.612  17.320 -0.7893  0.9390 -2.4935
 8415TIP3   OH246659   6.187   6.527  17.398 -0.0460  0.3174  0.1133
 8415TIP3    H146660   6.257   6.564  17.452  0.6269  0.0418 -0.5529
 8415TIP3    H246661   6.145   6.603  17.358 -1.7441  0.6824  2.3860
 8416TIP3   OH246662   2.423   5.479  13.372 -0.7469 -0.3033 -0.7610
 8416TIP3    H146663   2.473   5.398  13.375  0.6171  0.5121 -0.4824
 8416TIP3    H246664   2.480   5.544  13.414 -1.8631  0.7625 -0.8293
 8417TIP3   OH246665   3.974   5.543  12.958 -0.0955  0.2255  0.2727
 8417TIP3    H146666   4.052   5.488  12.967 -2.3096 -3.2111  0.3450
 8417TIP3    H246667   3.939   5.550  13.047 -0.5231  0.6668  0.0768
 8418TIP3   OH246668   5.793   1.728   3.570  0.4405  0.1094  0.0335
 8418TIP3    H146669   5.855   1.791   3.606 -0.2324 -0.6507  2.6895
 8418TIP3    H246670   5.707   1.768   3.584  0.1439 -0.1842 -0.8427
 8419TIP3   OH246671   4.184   2.248   2.436 -0.6139 -0.5736 -0.1700
 8419TIP3    H146672   4.209   2.215   2.522  0.2624  0.2269 -0.1057
 8419TIP3    H246673   4.254   2.216   2.378  0.7927  1.8551  0.0429
 8420TIP3   OH246674   5.683   1.196  12.708 -0.1972 -0.4610 -0.4876
 8420TIP3    H146675   5.778   1.196  12.722 -0.2936  0.1164  0.2684
 8420TIP3    H246676   5.650   1.132  12.771 -0.3045 -0.7578 -0.8409
 8421TIP3   OH246677   3.504   0.665  15.837 -0.1494  0.5054 -0.1132
 8421TIP3    H146678   3.552   0.582  15.835 -0.4538  0.3370 -0.9708
 8421TIP3    H246679   3.411   0.639  15.838 -0.2507  0.8278  1.2190
 8422TIP3   OH246680   4.379   2.375   5.781  0.4422 -0.1756  0.1606
 8422TIP3    H146681   4.447   2.409   5.838 -0.4281 -1.9457  2.4252
 8422TIP3    H246682   4.314   2.445   5.775  0.7604  0.1916  0.9828
 8423TIP3   OH246683   5.330   3.830   3.849 -0.4061 -0.3891  0.5024
 8423TIP3    H146684   5.425   3.839   3.860 -0.1479  0.0877 -1.6570
 8423TIP3    H246685   5.310   3.741   3.878  0.4554 -0.0208  2.3048
 8424TIP3   OH246686   5.158   1.979   3.842 -0.6298  0.0283  0.7241
 8424TIP3    H146687   5.077   2.009   3.801 -0.8833 -1.3668  0.1526
 8424TIP3    H246688   5.226   2.032   3.802 -1.0393 -0.2496 -0.3874
 8425TIP3   OH246689   6.512   0.326  14.191 -0.2671 -0.2191  0.0684
 8425TIP3    H146690   6.554   0.261  14.134 -0.0495  0.1713 -0.2176
 8425TIP3    H246691   6.583   0.360  14.246  0.0136  1.1529 -1.0821
 8426TIP3   OH246692   4.901   6.688   5.020  0.1984 -0.3301 -0.1964
 8426TIP3    H146693   4.869   6.727   4.939 -0.7828 -0.1327  0.2661
 8426TIP3    H246694   4.935   6.763   5.070 -1.6747 -0.0041  0.6868
 8427TIP3   OH246695   1.063   2.283  14.065  0.2955  0.4478 -0.7656
 8427TIP3    H146696   1.058   2.323  13.978  1.0528  0.8565 -0.6251
 8427TIP3    H246697   1.094   2.194  14.048  1.2898  0.8005 -0.8463
 8428TIP3   OH246698   2.114   5.866   3.078  0.0399 -0.4616  0.1293
 8428TIP3    H146699   2.192   5.821   3.111  0.2881  0.7992  1.3448
 8428TIP3    H246700   2.141   5.904   2.995  0.8886  0.3745  0.7691
 8429TIP3   OH246701   3.901   3.246   0.804  0.6051  0.3826  0.3433
 8429TIP3    H146702   3.851   3.286   0.875  1.0579  0.0235  0.8810
 8429TIP3    H246703   3.861   3.278   0.724 -0.4015  0.1975  0.7616
 8430TIP3   OH246704   2.551   5.887  13.890  0.5704  0.3154 -0.1474
 8430TIP3    H146705   2.543   5.879  13.795  0.1684 -2.0795  0.0385
 8430TIP3    H246706   2.537   5.980  13.906  1.9343  1.0257 -2.5313
 8431TIP3   OH246707   3.859   1.653   5.768 -0.0632  0.3668  0.4618
 8431TIP3    H146708   3.924   1.685   5.830  0.3890 -2.3643  1.5587
 8431TIP3    H246709   3.781   1.706   5.785  0.6519  0.9910  1.9939
 8432TIP3   OH246710   1.242   1.085   1.709  0.0279  0.2293 -0.0277
 8432TIP3    H146711   1.156   1.109   1.744  0.3128  1.0756  0.0963
 8432TIP3    H246712   1.303   1.105   1.779  0.4120  0.3003 -0.3790
 8433TIP3   OH246713   3.214   3.096  15.043 -0.1944 -0.5503  0.2400
 8433TIP3    H146714   3.225   3.180  15.086 -0.8209 -0.7657  0.8372
 8433TIP3    H246715   3.181   3.037  15.111 -1.0309 -0.9390 -0.4663
 8434TIP3   OH246716   5.148   5.773   0.921  0.1386 -0.3252  0.1516
 8434TIP3    H146717   5.065   5.756   0.965 -0.3010 -0.9000 -0.8468
 8434TIP3    H246718   5.199   5.693   0.934 -0.8673 -1.4526 -2.2190
 8435TIP3   OH246719   1.042   6.622   2.741 -0.0431 -0.1846  0.1469
 8435TIP3    H146720   1.013   6.701   2.694  1.0702  0.1039 -0.0899
 8435TIP3    H246721   1.093   6.656   2.815 -1.7817 -0.6342  1.6272
 8436TIP3   OH246722   3.725   3.540   1.621  0.1523  0.0244  0.3639
 8436TIP3    H146723   3.796   3.487   1.656 -1.1143 -0.6418  2.0761
 8436TIP3    H246724   3.719   3.615   1.680 -1.9757 -1.0793  1.7090
 8437TIP3   OH246725   2.009   5.434   0.671 -0.9737  0.4078 -0.0591
 8437TIP3    H146726   1.967   5.375   0.607  0.3066  0.4112 -0.9354
 8437TIP3    H246727   1.937   5.462   0.728 -1.7229 -1.5995  0.0828
 8438TIP3   OH246728   6.284   6.109   3.273  0.6577 -0.5857 -0.3621
 8438TIP3    H146729   6.378   6.102   3.285  0.3650 -1.0075  2.3341
 8438TIP3    H246730   6.247   6.080   3.356 -1.8991 -1.1381 -1.5880
 8439TIP3   OH246731   0.424   3.440   4.744 -0.0625 -0.5248  0.0234
 8439TIP3    H146732   0.365   3.383   4.694  1.0435  1.6294 -4.1969
 8439TIP3    H246733   0.381   3.526   4.742  1.8810  0.4886 -0.7992
 8440TIP3   OH246734   2.652   0.378   5.260  0.0935  0.3465 -0.2978
 8440TIP3    H146735   2.665   0.463   5.301  3.1195  0.1420 -0.5973
 8440TIP3    H246736   2.600   0.328   5.323 -1.1456  2.1538  0.1758
 8441TIP3   OH246737   3.326   2.429  13.647 -0.1335  0.1415 -0.0418
 8441TIP3    H146738   3.346   2.448  13.739 -0.3969  1.1925 -0.1917
 8441TIP3    H246739   3.408   2.448  13.600  0.0005 -0.3936 -0.0295
 8442TIP3   OH246740   5.883   4.593   3.419  0.3489 -0.2432 -0.4861
 8442TIP3    H146741   5.875   4.641   3.501  0.1021  0.8087 -1.1156
 8442TIP3    H246742   5.794   4.569   3.396  0.5796 -2.3693  0.5878
 8443TIP3   OH246743   1.330   3.336   4.451 -0.5502 -0.5746  0.0100
 8443TIP3    H146744   1.390   3.347   4.525 -0.1405  0.6211 -0.4657
 8443TIP3    H246745   1.371   3.270   4.396  0.3258  0.1837 -0.2777
 8444TIP3   OH246746   4.251   4.743  12.206 -0.6315  0.5897 -0.6291
 8444TIP3    H146747   4.163   4.748  12.244 -0.7214  0.3150 -0.8013
 8444TIP3    H246748   4.308   4.780  12.274 -0.8242  0.3508 -0.3321
 8445TIP3   OH246749   1.065   6.372  13.416 -0.1174 -0.6294 -0.4400
 8445TIP3    H146750   0.997   6.318  13.376 -0.4928 -0.9921  0.6588
 8445TIP3    H246751   1.123   6.309  13.460 -0.9044 -0.1279  1.3725
 8446TIP3   OH246752   4.833   4.323   0.947  0.6268 -0.3639  0.3479
 8446TIP3    H146753   4.781   4.397   0.915 -0.2904 -0.7956  0.8032
 8446TIP3    H246754   4.924   4.354   0.943  0.3767  0.2791 -0.7965
 8447TIP3   OH246755   1.505   1.818   3.474 -0.4918 -0.6733 -0.1620
 8447TIP3    H146756   1.571   1.781   3.416 -1.4240  0.5410 -2.1050
 8447TIP3    H246757   1.480   1.746   3.532  1.1572 -1.6592 -0.6196
 8448TIP3   OH246758   3.489   5.494  11.316 -0.5378  0.4180 -0.4791
 8448TIP3    H146759   3.485   5.516  11.223  0.1015  0.8001 -0.4162
 8448TIP3    H246760   3.520   5.573  11.358  2.5390 -0.7308 -0.3240
 8449TIP3   OH246761   1.754   0.672   4.538  0.3015 -0.1939  0.3309
 8449TIP3    H146762   1.743   0.624   4.620 -1.3027  0.7930  0.7589
 8449TIP3    H246763   1.664   0.694   4.512  0.9105  2.8768  0.4144
 8450TIP3   OH246764   3.989   4.287  14.440  0.1061 -0.2485 -0.3558
 8450TIP3    H146765   3.973   4.209  14.493 -0.4749 -1.1614 -1.7961
 8450TIP3    H246766   4.063   4.264  14.384 -0.6550 -0.1384 -1.4471
 8451TIP3   OH246767   1.938   1.553  10.570 -0.2878 -0.8086  0.1660
 8451TIP3    H146768   1.987   1.472  10.550  0.1118 -0.0349 -2.3318
 8451TIP3    H246769   1.989   1.622  10.529 -0.2950  0.8824  2.7866
 8452TIP3   OH246770   3.112   0.391   0.239  0.4979  0.1114 -0.1994
 8452TIP3    H146771   3.166   0.467   0.260  2.1897 -0.3073 -2.6639
 8452TIP3    H246772   3.121   0.335   0.317  0.5671  1.6521  0.9623
 8453TIP3   OH246773   3.719   4.786  10.682 -0.5255 -0.0817 -0.2315
 8453TIP3    H146774   3.669   4.793  10.763  1.2891 -0.6957  1.0176
 8453TIP3    H246775   3.708   4.870  10.639  0.5308  1.2375  1.9296
 8454TIP3   OH246776   5.522   5.258  16.224 -0.3301  0.6100  0.0422
 8454TIP3    H146777   5.495   5.328  16.165 -0.8061 -0.0319 -0.5266
 8454TIP3    H246778   5.547   5.186  16.166 -1.7704 -0.3924  0.6087
 8455TIP3   OH246779   0.322   4.599   5.867 -0.7709 -0.1024  0.2459
 8455TIP3    H146780   0.392   4.609   5.802 -1.6928 -1.5353 -1.0629
 8455TIP3    H246781   0.349   4.524   5.919 -0.3741  0.6117  1.0907
 8456TIP3   OH246782   4.175   3.353  16.315  0.0071  0.2674 -0.2557
 8456TIP3    H146783   4.244   3.392  16.369  0.6592 -1.4290  0.2110
 8456TIP3    H246784   4.167   3.263  16.347  0.6506 -0.9426 -3.1376
 8457TIP3   OH246785   3.243   1.400   2.089 -0.1983  0.4944 -0.1405
 8457TIP3    H146786   3.204   1.314   2.072 -0.0395  0.3503  0.2115
 8457TIP3    H246787   3.231   1.448   2.007  0.1332 -0.0250 -0.5016
 8458TIP3   OH246788   5.492   4.937  14.558  0.4960  0.4588 -0.2668
 8458TIP3    H146789   5.449   4.884  14.491  2.2964  0.3566 -1.4120
 8458TIP3    H246790   5.564   4.882  14.589  1.1653  1.4589 -0.0174
 8459TIP3   OH246791   0.657   3.526   1.398 -0.4978 -0.0000 -0.0151
 8459TIP3    H146792   0.649   3.503   1.490 -1.7045  0.3903 -0.0038
 8459TIP3    H246793   0.727   3.470   1.365 -0.1858 -0.2791  1.0865
 8460TIP3   OH246794   6.577   2.153  15.704 -0.1952  0.0683 -0.0572
 8460TIP3    H146795   6.574   2.171  15.798  3.4878 -0.6767  0.3540
 8460TIP3    H246796   6.670   2.161  15.681 -0.8816 -0.4176 -3.5283
 8461TIP3   OH246797   2.584   1.117   1.811  0.2875  0.3163  0.1699
 8461TIP3    H146798   2.552   1.205   1.793 -1.9390 -0.0178  1.9608
 8461TIP3    H246799   2.508   1.071   1.846  1.2901 -2.4369 -0.9828
 8462TIP3   OH246800   6.285   3.887  16.837 -0.1552  0.2172  0.0142
 8462TIP3    H146801   6.266   3.977  16.809 -0.3298  0.9471  2.2970
 8462TIP3    H246802   6.336   3.850  16.764  0.9569  2.5585 -0.4978
 8463TIP3   OH246803   5.355   5.726  13.191  0.3187  0.2026  0.3711
 8463TIP3    H146804   5.377   5.643  13.233  0.1143 -1.3573 -2.3884
 8463TIP3    H246805   5.419   5.735  13.121 -0.5517  1.6866 -0.2838
 8464TIP3   OH246806   1.695   3.166   3.065  0.1968  0.2768  0.0010
 8464TIP3    H146807   1.710   3.228   3.137 -1.3171 -0.3642  0.9324
 8464TIP3    H246808   1.603   3.181   3.041  0.2754 -0.5268 -0.8197
 8465TIP3   OH246809   6.351   4.970  13.339 -0.4357 -0.4359 -0.1806
 8465TIP3    H146810   6.387   4.982  13.252 -1.7678  1.8213 -0.4857
 8465TIP3    H246811   6.298   4.891  13.332  0.9005 -1.3112 -0.8753
 8466TIP3   OH246812   0.496   2.609   4.285  0.0350  0.3637  0.2573
 8466TIP3    H146813   0.518   2.658   4.364  1.2204 -0.3666  0.4065
 8466TIP3    H246814   0.419   2.557   4.309  0.1181  0.4858  0.7899
 8467TIP3   OH246815   2.826   4.144   0.104 -0.4914 -0.1740  0.2361
 8467TIP3    H146816   2.796   4.082   0.170  1.8703  1.0820  2.6532
 8467TIP3    H246817   2.802   4.230   0.138 -0.1713  0.4684 -1.0832
 8468TIP3   OH246818   2.336   1.042   1.467 -0.2059  0.3261  0.0315
 8468TIP3    H146819   2.292   1.112   1.515  0.7019  0.5841  0.4864
 8468TIP3    H246820   2.324   1.065   1.375 -0.4416  0.7437  0.1665
 8469TIP3   OH246821   0.597   0.803  14.140  0.1113  0.3079 -1.0019
 8469TIP3    H146822   0.549   0.724  14.116  0.0115 -0.5512  1.7375
 8469TIP3    H246823   0.658   0.775  14.208 -1.2941  2.8739  1.5122
 8470TIP3   OH246824   4.659   5.463   5.084  0.0547  0.4154 -0.3609
 8470TIP3    H146825   4.569   5.434   5.067 -0.0116  0.6433 -0.4067
 8470TIP3    H246826   4.711   5.383   5.081  0.0261  0.4239 -1.5349
 8471TIP3   OH246827   3.616   4.832   1.565 -0.9984 -0.2122 -0.2089
 8471TIP3    H146828   3.660   4.906   1.607  0.9403 -1.1570 -0.4690
 8471TIP3    H246829   3.567   4.871   1.493  1.5663  0.7140 -1.5907
 8472TIP3   OH246830   5.721   2.651  12.011 -0.7617 -0.5946  0.0375
 8472TIP3    H146831   5.800   2.692  11.979 -0.5002  0.3303  1.7368
 8472TIP3    H246832   5.686   2.712  12.076 -1.9260 -1.7623  0.5745
 8473TIP3   OH246833   1.506   1.519  13.090  0.4725  0.0952 -0.1410
 8473TIP3    H146834   1.456   1.588  13.134 -0.0611 -0.7715  0.6427
 8473TIP3    H246835   1.568   1.567  13.035 -1.2417  1.2198 -1.2020
 8474TIP3   OH246836   6.389   4.333  13.354  0.3892  0.5990 -0.3248
 8474TIP3    H146837   6.362   4.376  13.435  1.2091 -1.9939  1.4239
 8474TIP3    H246838   6.484   4.343  13.352  0.5953 -0.9962  0.1072
 8475TIP3   OH246839   4.286   5.795   4.816  0.0776  0.3551 -0.2540
 8475TIP3    H146840   4.375   5.828   4.810 -0.2608  1.6335  1.0389
 8475TIP3    H246841   4.276   5.767   4.907 -0.4654 -0.9343 -0.6923
 8476TIP3   OH246842   0.292   6.283   3.775  0.7347  0.3636  0.6040
 8476TIP3    H146843   0.295   6.340   3.852  1.1791  1.1472  0.0122
 8476TIP3    H246844   0.344   6.329   3.709 -0.0399 -0.0723 -0.3241
 8477TIP3   OH246845   1.684   4.437   6.294 -0.1794 -0.3724  0.2035
 8477TIP3    H146846   1.695   4.532   6.291  0.2565 -0.4464 -1.4031
 8477TIP3    H246847   1.589   4.425   6.297 -0.2174  0.1080  1.4444
 8478TIP3   OH246848   1.865   1.546  11.462 -0.0628  0.4278  0.4815
 8478TIP3    H146849   1.873   1.453  11.482  0.8389  0.6971  1.4561
 8478TIP3    H246850   1.928   1.560  11.391  0.3543  0.4411  0.8526
 8479TIP3   OH246851   0.332   5.905  14.306 -0.0183 -0.0269 -0.3223
 8479TIP3    H146852   0.400   5.972  14.307  1.0834 -1.1014  0.6652
 8479TIP3    H246853   0.362   5.840  14.243  1.0949 -1.6081  1.6813
 8480TIP3   OH246854   1.117   4.898  15.482 -0.1201 -0.4430  0.1443
 8480TIP3    H146855   1.137   4.846  15.559 -2.0390 -0.9769  0.3359
 8480TIP3    H246856   1.201   4.910  15.438  1.0683  0.1179  2.4364
 8481TIP3   OH246857   6.209   0.353   3.098  0.3347 -0.0477  0.0616
 8481TIP3    H146858   6.159   0.358   3.179 -1.5951  1.5264 -1.0954
 8481TIP3    H246859   6.168   0.281   3.049 -0.2046  0.6062 -0.4819
 8482TIP3   OH246860   6.233   4.384   4.434 -0.4076  0.1470  0.2664
 8482TIP3    H146861   6.219   4.290   4.446 -2.1842  0.4624  1.0784
 8482TIP3    H246862   6.151   4.424   4.464 -0.3397  1.8691 -1.6030
 8483TIP3   OH246863   2.055   0.026  15.030 -0.1687 -0.2510 -0.1321
 8483TIP3    H146864   2.114  -0.010  14.964  0.4390  0.6275 -0.0817
 8483TIP3    H246865   2.088   0.114  15.046 -0.4971 -0.3422  1.1211
 8484TIP3   OH246866   1.990   4.380  12.765  0.1959  0.2345 -0.3600
 8484TIP3    H146867   1.908   4.333  12.748 -0.3684  1.7185 -2.2076
 8484TIP3    H246868   2.047   4.316  12.807 -1.5783 -1.1283  0.0973
 8485TIP3   OH246869   3.821   2.817   4.649  0.2972  0.1069 -0.0483
 8485TIP3    H146870   3.789   2.839   4.736 -0.5954  0.4136 -0.4436
 8485TIP3    H246871   3.887   2.749   4.664  1.0871  1.0553  0.9608
 8486TIP3   OH246872   0.559   6.624  16.521 -0.6396 -0.1997  0.0033
 8486TIP3    H146873   0.586   6.715  16.512 -1.6169  0.1930  0.7538
 8486TIP3    H246874   0.490   6.626  16.588  0.5103 -1.7302  1.3129
 8487TIP3   OH246875   1.855   1.612  13.420  0.4396 -0.6031  1.0345
 8487TIP3    H146876   1.931   1.653  13.461 -0.1663  0.6968  0.8923
 8487TIP3    H246877   1.796   1.593  13.493 -0.3759  1.1531  0.8716
 8488TIP3   OH246878   1.762   5.857   3.088 -0.3364  0.1846  0.2473
 8488TIP3    H146879   1.703   5.845   3.013 -0.6590 -0.5393  0.6151
 8488TIP3    H246880   1.837   5.801   3.068 -1.4711 -1.9478  1.5628
 8489TIP3   OH246881   1.474   3.942  11.097 -0.5943 -0.3701 -0.4651
 8489TIP3    H146882   1.544   3.915  11.037 -0.8237  1.2798 -1.5431
 8489TIP3    H246883   1.504   4.026  11.132 -0.8935 -0.8699  1.0704
 8490TIP3   OH246884   5.059   6.401   2.115 -0.2706  0.3747 -0.4149
 8490TIP3    H146885   5.055   6.310   2.084 -0.5542 -0.1151  1.0080
 8490TIP3    H246886   5.102   6.448   2.043  1.1871 -1.1504 -0.6085
 8491TIP3   OH246887   4.792   2.284   0.375 -0.5996 -0.4690 -0.0890
 8491TIP3    H146888   4.774   2.364   0.326 -0.5770 -0.8658 -0.7512
 8491TIP3    H246889   4.856   2.311   0.441  0.9232 -0.3430 -1.5444
 8492TIP3   OH246890   4.672   3.230   1.674  0.0795  0.1373  0.0379
 8492TIP3    H146891   4.701   3.174   1.602  0.4803 -0.7200  0.8492
 8492TIP3    H246892   4.606   3.178   1.720  1.6944 -0.4112  1.8318
 8493TIP3   OH246893   4.048   6.272  13.950  0.0142 -0.0814  0.2192
 8493TIP3    H146894   4.117   6.335  13.925 -0.7608  0.5574 -0.3740
 8493TIP3    H246895   4.026   6.228  13.868  0.2293 -0.8126  0.5500
 8494TIP3   OH246896   5.084   1.953  11.414  0.8112 -0.7453 -0.3601
 8494TIP3    H146897   5.163   2.007  11.426  0.2156 -0.0832  0.7584
 8494TIP3    H246898   5.024   1.984  11.481 -1.1402  0.0813 -2.3466
 8495TIP3   OH246899   6.347   3.212   1.135 -0.0146 -0.6097 -0.2826
 8495TIP3    H146900   6.363   3.234   1.227 -1.1820 -1.5264  0.1712
 8495TIP3    H246901   6.418   3.255   1.087  0.3624  0.2572  0.9975
 8496TIP3   OH246902   6.743   3.147   6.310 -0.2188  0.5174  0.2239
 8496TIP3    H146903   6.662   3.198   6.318 -1.2662 -1.2233  1.2632
 8496TIP3    H246904   6.714   3.059   6.286  1.5282  0.3302 -1.4450
 8497TIP3   OH246905   4.159   0.405   4.206  0.0613 -0.3966  0.1551
 8497TIP3    H146906   4.201   0.452   4.134  0.7799  0.4610  1.1006
 8497TIP3    H246907   4.231   0.360   4.250 -0.2301 -0.1650  0.8834
 8498TIP3   OH246908   5.749   5.507  17.357  0.7199  0.0686  0.2877
 8498TIP3    H146909   5.800   5.506  17.276  0.4685 -0.5744  0.1252
 8498TIP3    H246910   5.723   5.415  17.370 -0.8674  0.4455  0.0468
 8499TIP3   OH246911   6.668   6.671  12.680 -0.4501  0.2946 -0.3298
 8499TIP3    H146912   6.763   6.673  12.693 -0.8109  0.5771  2.9753
 8499TIP3    H246913   6.642   6.762  12.674 -0.7755  0.3472  1.5397
 8500TIP3   OH246914   1.842   4.958  12.321  0.0841 -0.6038  0.3276
 8500TIP3    H146915   1.844   4.923  12.411 -1.0897 -3.0434 -0.5200
 8500TIP3    H246916   1.754   4.993  12.311  0.6980  1.0955  0.5744
 8501TIP3   OH246917   1.351   3.452   1.282  0.0204  0.1399  0.8009
 8501TIP3    H146918   1.302   3.451   1.200  0.5253 -1.3632  0.4911
 8501TIP3    H246919   1.435   3.491   1.259 -0.9649  2.7653  1.3426
 8502TIP3   OH246920   3.866   2.145  16.829 -0.6685 -0.4641 -0.8306
 8502TIP3    H146921   3.954   2.179  16.810 -0.8284  0.7251  0.3571
 8502TIP3    H246922   3.807   2.213  16.798 -1.1762 -1.1433 -1.3820
 8503TIP3   OH246923   4.566   5.938   5.793 -0.8129  0.0082  0.4588
 8503TIP3    H146924   4.633   5.986   5.744  1.2213  1.0971  3.9093
 8503TIP3    H246925   4.486   5.988   5.778 -0.0326  0.9699 -0.7756
 8504TIP3   OH246926   1.412   1.761  15.182 -0.5658 -0.3040  0.1464
 8504TIP3    H146927   1.322   1.774  15.212 -0.7802 -1.7669  0.2414
 8504TIP3    H246928   1.404   1.752  15.087 -0.4868 -0.1988  0.1295
 8505TIP3   OH246929   0.903   6.458  15.850 -0.4335 -0.4356 -0.0080
 8505TIP3    H146930   0.993   6.445  15.879  0.1337  0.8871 -1.0415
 8505TIP3    H246931   0.875   6.372  15.819 -0.0634 -1.1952  1.6615
 8506TIP3   OH246932   6.399   6.375  17.245  0.3429 -0.4325 -0.0159
 8506TIP3    H146933   6.340   6.450  17.256  1.0125 -0.0410  1.0940
 8506TIP3    H246934   6.447   6.393  17.165  0.0630  0.0238 -0.0848
 8507TIP3   OH246935   1.096   3.383  16.667  0.7805  0.4785 -0.3041
 8507TIP3    H146936   1.171   3.370  16.609  0.6485 -0.2436 -0.3222
 8507TIP3    H246937   1.037   3.440  16.618  1.2048  0.8369 -0.3980
 8508TIP3   OH246938   3.479   6.297   3.326 -0.7810  1.1165 -0.2798
 8508TIP3    H146939   3.566   6.335   3.337 -1.7640  2.9786  2.1908
 8508TIP3    H246940   3.419   6.368   3.349 -2.9168 -0.5973 -0.2017
 8509TIP3   OH246941   1.209   0.049  15.876 -0.3499 -0.0410  0.2827
 8509TIP3    H146942   1.246   0.108  15.941  0.9832  0.0499 -0.5332
 8509TIP3    H246943   1.284   0.016  15.826 -1.3035 -0.2154 -1.1170
 8510TIP3   OH246944   5.118   1.005  13.327 -0.2983  0.0240 -0.2538
 8510TIP3    H146945   5.030   1.041  13.339 -0.1303  0.6070 -0.7479
 8510TIP3    H246946   5.158   1.060  13.260  0.1384 -0.7750 -0.6688
 8511TIP3   OH246947   2.352   4.963   3.608 -0.2744  0.1605 -0.3889
 8511TIP3    H146948   2.345   4.879   3.654  0.2796  0.0845 -0.4389
 8511TIP3    H246949   2.376   5.025   3.677  0.0056  0.1490 -0.4752
 8512TIP3   OH246950   2.314   5.899   5.202  0.0967  0.0742  0.3165
 8512TIP3    H146951   2.328   5.805   5.205  1.7263  0.3174  1.1582
 8512TIP3    H246952   2.249   5.911   5.132 -0.6773 -1.7050  0.6766
 8513TIP3   OH246953   1.845   2.628  15.002 -0.0221 -0.0018 -0.6363
 8513TIP3    H146954   1.866   2.696  14.938 -0.9313 -0.1576 -1.1247
 8513TIP3    H246955   1.797   2.562  14.951 -0.9316 -0.0361  0.2438
 8514TIP3   OH246956   3.590   4.391   0.818  0.4471 -0.0857  0.2989
 8514TIP3    H146957   3.600   4.400   0.724  0.4017  1.4864  0.4190
 8514TIP3    H246958   3.548   4.305   0.830 -1.0486  0.3796 -1.2155
 8515TIP3   OH246959   3.484   5.351  13.815 -0.0639 -0.0465  0.4990
 8515TIP3    H146960   3.399   5.340  13.858  0.3392 -2.8690  0.7188
 8515TIP3    H246961   3.537   5.399  13.879 -1.2494  1.2280  0.5918
 8516TIP3   OH246962   1.777   6.078   4.615  0.5197  0.6129  0.7361
 8516TIP3    H146963   1.727   6.133   4.554  1.6319  1.3706  0.4784
 8516TIP3    H246964   1.859   6.061   4.570 -0.0607 -1.9406  0.4828
 8517TIP3   OH246965   1.048   1.531  16.741 -0.2136  0.1861 -0.1354
 8517TIP3    H146966   1.144   1.534  16.749 -0.1557 -0.0613 -0.6619
 8517TIP3    H246967   1.023   1.453  16.791 -0.0832 -0.0617 -0.4494
 8518TIP3   OH246968   3.954   5.215   5.631 -0.1969  0.3670 -0.1721
 8518TIP3    H146969   3.927   5.128   5.602 -0.7725  0.1501  0.9374
 8518TIP3    H246970   3.893   5.236   5.702  1.1216  0.8739  0.8397
 8519TIP3   OH246971   6.586   1.713  15.202  0.0735 -0.0106  0.2123
 8519TIP3    H146972   6.503   1.715  15.250  0.0366  0.9938  0.1317
 8519TIP3    H246973   6.599   1.803  15.173  1.1520 -0.1697  0.1475
 8520TIP3   OH246974   4.813   0.665  12.572  0.1932 -0.3271  0.1805
 8520TIP3    H146975   4.725   0.631  12.559 -0.5574  1.4574  0.3677
 8520TIP3    H246976   4.819   0.739  12.512  1.6501 -0.5349  0.0256
 8521TIP3   OH246977   4.857   5.344   2.667  0.2671  0.0389 -0.6160
 8521TIP3    H146978   4.788   5.396   2.626  0.1550 -1.2685 -2.1895
 8521TIP3    H246979   4.889   5.286   2.597  0.9085 -1.4651  0.8374
 8522TIP3   OH246980   5.309   0.963  14.291 -0.3528 -0.0600 -0.2073
 8522TIP3    H146981   5.401   0.940  14.281 -0.3141  0.7030 -2.1188
 8522TIP3    H246982   5.307   1.032  14.357  0.5186  0.3289 -0.5856
 8523TIP3   OH246983   3.081   5.354  11.913  0.3619  0.1694 -0.0956
 8523TIP3    H146984   3.050   5.355  11.823 -0.4170 -0.2115  0.1608
 8523TIP3    H246985   3.008   5.319  11.964  0.2559  1.7013  0.8910
 8524TIP3   OH246986   0.476   1.225   1.862 -0.3888 -0.4098  0.4479
 8524TIP3    H146987   0.554   1.199   1.813 -1.7240 -1.4012 -1.2417
 8524TIP3    H246988   0.492   1.191   1.951  1.2916 -0.1530  0.2779
 8525TIP3   OH246989   4.611   3.664   3.160  0.1609 -0.1932  0.2987
 8525TIP3    H146990   4.592   3.607   3.085 -0.3116  1.3405 -0.8265
 8525TIP3    H246991   4.701   3.645   3.183  0.3292 -0.6949 -0.7126
 8526TIP3   OH246992   2.377   4.793   5.097 -0.1756  0.0837 -0.3463
 8526TIP3    H146993   2.320   4.863   5.064 -0.4490 -0.6776 -1.5958
 8526TIP3    H246994   2.438   4.777   5.025  1.2297  0.4527  0.7453
 8527TIP3   OH246995   6.248   1.156  11.487  0.3277  0.8376  0.6603
 8527TIP3    H146996   6.171   1.211  11.505 -0.2583  0.3420 -0.2411
 8527TIP3    H246997   6.214   1.085  11.433  1.2025 -0.0517  1.2371
 8528TIP3   OH246998   0.872   3.234  14.664 -0.2980  0.2502  0.5047
 8528TIP3    H146999   0.933   3.255  14.593 -0.1576  0.3329  0.6471
 8528TIP3    H247000   0.825   3.156  14.634  0.3025 -0.1726  0.6442
 8529TIP3   OH247001   0.745   0.493  11.450  0.9110 -0.4043 -0.5861
 8529TIP3    H147002   0.698   0.425  11.402 -1.8410 -0.5927  2.0217
 8529TIP3    H247003   0.768   0.452  11.533 -2.2205  1.9969  1.7471
 8530TIP3   OH247004   4.157   6.373   5.606  0.3988 -0.5268 -0.2201
 8530TIP3    H147005   4.161   6.299   5.666 -0.4611 -0.4514 -0.0607
 8530TIP3    H247006   4.249   6.399   5.593  0.6643 -1.2734  0.1418
 8531TIP3   OH247007   1.485   4.421   5.827 -0.2586 -0.3826 -0.8070
 8531TIP3    H147008   1.551   4.485   5.802 -1.0969  1.5378  1.5357
 8531TIP3    H247009   1.534   4.355   5.876  0.5023 -1.2898 -2.6715
 8532TIP3   OH247010   3.950   0.129  15.682 -0.2059 -0.1513 -0.4502
 8532TIP3    H147011   3.884   0.118  15.613 -1.6817 -0.8560  1.0014
 8532TIP3    H247012   4.006   0.200  15.650 -0.7323 -0.5677 -2.4332
 8533TIP3   OH247013   4.799   0.497  14.489 -0.5329 -0.2073 -0.0269
 8533TIP3    H147014   4.802   0.556  14.413 -0.8005  0.7812  0.7088
 8533TIP3    H247015   4.739   0.539  14.550  1.3693  0.2091  1.6935
 8534TIP3   OH247016   4.222   2.691  14.099 -0.0005  0.3055 -0.3211
 8534TIP3    H147017   4.222   2.597  14.116 -2.1417  0.2327 -0.4677
 8534TIP3    H247018   4.172   2.729  14.171  0.5963  1.3032 -0.4124
 8535TIP3   OH247019   1.575   5.918  13.133 -0.3707  0.2605 -0.3161
 8535TIP3    H147020   1.602   5.875  13.052  0.8811  0.4633 -0.0344
 8535TIP3    H247021   1.600   5.857  13.202 -2.8730 -0.6325 -0.1066
 8536TIP3   OH247022   5.653   2.100   2.453  0.0811  0.7308  0.0928
 8536TIP3    H147023   5.748   2.106   2.463  0.1436  1.3547 -0.7781
 8536TIP3    H247024   5.623   2.059   2.534  1.0848  0.5808  0.4036
 8537TIP3   OH247025   6.285   6.593  14.171 -0.0311  0.2077  0.2872
 8537TIP3    H147026   6.290   6.534  14.096  0.7009  2.2592 -1.3600
 8537TIP3    H247027   6.376   6.621  14.186 -0.4398  1.5116  0.4916
 8538TIP3   OH247028   4.486   5.891  12.997 -0.0305 -0.2341  0.6686
 8538TIP3    H147029   4.394   5.873  12.981 -0.9290  3.6911  0.4853
 8538TIP3    H247030   4.489   5.926  13.086  0.5948  2.9420 -0.4708
 8539TIP3   OH247031   6.018   3.472   3.770  0.4539  0.0524 -1.0252
 8539TIP3    H147032   6.000   3.564   3.785 -1.7483 -0.5061  0.2559
 8539TIP3    H247033   6.053   3.440   3.854  0.2291 -0.4824 -1.1295
 8540TIP3   OH247034   2.221   5.521   2.844  0.0783  0.0538  0.7352
 8540TIP3    H147035   2.232   5.435   2.884 -1.2492 -0.1806  0.6346
 8540TIP3    H247036   2.261   5.582   2.907  0.8209 -0.6043  0.9130
 8541TIP3   OH247037   4.583   5.505   1.176  0.2085  0.7331 -0.1822
 8541TIP3    H147038   4.656   5.540   1.227 -1.5855  2.8808  1.0735
 8541TIP3    H247039   4.524   5.469   1.242  0.1692 -1.2131 -1.2030
 8542TIP3   OH247040   3.787   0.672  11.152 -0.4655  0.2493  0.3296
 8542TIP3    H147041   3.707   0.651  11.104 -0.7444  2.3443 -0.2526
 8542TIP3    H247042   3.756   0.717  11.231  0.0929 -0.6881  1.0961
 8543TIP3   OH247043   3.600   4.645  13.332 -0.6881  0.4468 -0.9494
 8543TIP3    H147044   3.505   4.643  13.320 -0.8705  1.6628  0.0469
 8543TIP3    H247045   3.615   4.717  13.393  0.7282 -0.9107  0.3904
 8544TIP3   OH247046   3.533   4.854  13.758  0.2828 -0.1539  0.2861
 8544TIP3    H147047   3.496   4.776  13.715 -3.2070  1.5198 -0.1258
 8544TIP3    H247048   3.489   4.857  13.843  1.0833  0.8576  0.6848
 8545TIP3   OH247049   6.364   3.234  14.864 -0.6088 -0.6304  0.2318
 8545TIP3    H147050   6.344   3.292  14.938 -0.8180  0.8526 -0.9496
 8545TIP3    H247051   6.281   3.225  14.817 -0.3273 -1.0294 -0.1990
 8546TIP3   OH247052   2.333   4.945  16.944 -0.2866 -0.3242  0.8308
 8546TIP3    H147053   2.376   4.961  17.029  2.5906 -0.0132 -0.5587
 8546TIP3    H247054   2.365   4.858  16.918  1.3267  0.7921 -1.2065
 8547TIP3   OH247055   4.911   0.006  15.576 -0.4662 -0.4206 -0.1428
 8547TIP3    H147056   4.926   0.030  15.484  0.8559  1.1472  0.4323
 8547TIP3    H247057   4.923  -0.089  15.578 -1.8772 -0.6902 -1.8172
 8548TIP3   OH247058   4.410   5.434  15.138 -0.5375  0.1119  0.1639
 8548TIP3    H147059   4.326   5.459  15.176  0.5629  1.1457  2.0987
 8548TIP3    H247060   4.475   5.470  15.198  1.2952 -1.1916 -0.9230
 8549TIP3   OH247061   6.739   5.396  15.036 -0.1539  0.0794  0.1089
 8549TIP3    H147062   6.822   5.444  15.032 -0.5553  0.8529  0.8484
 8549TIP3    H247063   6.715   5.397  15.129 -0.0609 -1.7587  0.1778
 8550TIP3   OH247064   4.845   3.391  15.774 -0.0409 -0.4312  0.5518
 8550TIP3    H147065   4.754   3.407  15.796 -0.9821  0.1569 -3.0254
 8550TIP3    H247066   4.879   3.477  15.750 -0.7529 -1.2469 -4.6249
 8551TIP3   OH247067   1.259   1.342  13.884 -0.2999  0.6368  0.1662
 8551TIP3    H147068   1.213   1.315  13.964  3.4417 -1.0492  1.9920
 8551TIP3    H247069   1.192   1.339  13.816 -2.3655 -4.9078  1.8809
 8552TIP3   OH247070   3.124   6.315  14.320  0.9408  0.4516  0.0554
 8552TIP3    H147071   3.160   6.254  14.255  0.5668 -0.7015  0.8992
 8552TIP3    H247072   3.055   6.362  14.273  1.6827  0.7257 -0.8014
 8553TIP3   OH247073   5.047   1.949   1.450 -0.1252 -0.1551  0.1967
 8553TIP3    H147074   5.059   1.860   1.482 -0.7361  0.0358  1.0122
 8553TIP3    H247075   4.970   1.981   1.498  0.0665  0.7947 -0.1074
 8554TIP3   OH247076   5.228   6.284   4.498  0.2077 -0.0669  0.0397
 8554TIP3    H147077   5.256   6.353   4.558  0.3607 -0.6794  0.6985
 8554TIP3    H247078   5.137   6.268   4.521 -0.2394  0.8371 -1.0328
 8555TIP3   OH247079   6.387   2.639  12.910  0.6321  0.3252 -0.3980
 8555TIP3    H147080   6.373   2.545  12.925 -1.1126  0.4170 -1.1833
 8555TIP3    H247081   6.469   2.643  12.861  0.6655 -0.8082 -0.4752
 8556TIP3   OH247082   3.393   4.370   4.388 -0.2700  0.4710 -0.1751
 8556TIP3    H147083   3.456   4.355   4.458 -0.4561 -1.3503 -0.3516
 8556TIP3    H247084   3.434   4.335   4.310 -1.3405 -0.4520 -0.3532
 8557TIP3   OH247085   3.209   3.486   5.845 -0.3021  0.5426  0.1212
 8557TIP3    H147086   3.302   3.462   5.841  0.0827  1.4272  2.5253
 8557TIP3    H247087   3.197   3.523   5.932 -3.2446 -0.8329  0.4174
 8558TIP3   OH247088   4.054   2.864   3.613  0.1919  0.7092 -0.6843
 8558TIP3    H147089   4.112   2.789   3.604 -1.1523 -0.6452  1.0620
 8558TIP3    H247090   4.016   2.876   3.526 -1.1882 -2.0815 -0.5635
 8559TIP3   OH247091   5.185   6.673   1.676 -0.1967  0.3726  0.7770
 8559TIP3    H147092   5.267   6.723   1.674  1.8474 -2.6469 -2.4214
 8559TIP3    H247093   5.188   6.626   1.758  1.4962  0.0995  0.5993
 8560TIP3   OH247094   6.135   2.022  15.117 -0.1301  0.1942  0.0228
 8560TIP3    H147095   6.197   2.092  15.096  0.3796 -0.5384 -0.9887
 8560TIP3    H247096   6.055   2.068  15.145  0.6757  1.1492  0.8213
 8561TIP3   OH247097   4.737   3.728   4.356 -0.4002 -0.0575  0.2095
 8561TIP3    H147098   4.672   3.759   4.418  1.9426  1.7049  1.9760
 8561TIP3    H247099   4.749   3.800   4.294 -0.6751 -0.6735 -0.5740
 8562TIP3   OH247100   0.003   2.550   6.004 -0.4421  0.3091 -0.5449
 8562TIP3    H147101   0.050   2.625   5.966 -1.1840 -0.2189 -2.6553
 8562TIP3    H247102   0.000   2.569   6.098  1.5309  1.7089 -0.6883
 8563TIP3   OH247103   3.282   5.090  12.732  0.2086  0.6353  0.2771
 8563TIP3    H147104   3.288   5.178  12.770  2.0101  0.0128  1.5989
 8563TIP3    H247105   3.368   5.075  12.694  0.4513 -1.0838  1.3851
 8564TIP3   OH247106   3.523   1.585  13.936 -0.5361 -0.0055 -0.5349
 8564TIP3    H147107   3.556   1.655  13.992 -4.4468 -0.8428  3.2969
 8564TIP3    H247108   3.578   1.510  13.957 -0.8570  0.1464  0.9456
 8565TIP3   OH247109   2.173   2.000  12.760  0.3930  0.7868 -0.4226
 8565TIP3    H147110   2.183   1.921  12.813 -1.2877  1.7265  1.4402
 8565TIP3    H247111   2.186   1.971  12.670  1.1487 -1.3217  0.3137
 8566TIP3   OH247112   4.604   0.210   1.974  0.0283  0.4778  0.4082
 8566TIP3    H147113   4.521   0.243   1.940  0.6136  0.5399 -1.0332
 8566TIP3    H247114   4.624   0.134   1.920  0.2659 -0.3397  1.6184
 8567TIP3   OH247115   4.270   2.008   4.259 -0.0143 -0.0531 -0.7004
 8567TIP3    H147116   4.237   2.041   4.175  0.2352 -0.6430 -1.0391
 8567TIP3    H247117   4.330   1.937   4.235 -0.9407 -1.1113  0.0272
 8568TIP3   OH247118   6.753   4.232   5.359 -0.0383  0.0714  0.1112
 8568TIP3    H147119   6.659   4.236   5.342 -0.2497  1.6612  1.4561
 8568TIP3    H247120   6.767   4.143   5.391 -0.9590 -0.3804 -0.6834
 8569TIP3   OH247121   1.625   5.218   1.144 -0.3725  0.3589 -0.0540
 8569TIP3    H147122   1.643   5.177   1.228 -0.4843  0.8613  0.2160
 8569TIP3    H247123   1.706   5.206   1.094 -1.2364 -2.4958 -0.9485
 8570TIP3   OH247124   4.825   4.199   5.737 -0.0641 -0.0061  0.3436
 8570TIP3    H147125   4.779   4.254   5.800 -0.9160  2.3456 -2.1783
 8570TIP3    H247126   4.758   4.140   5.703 -0.2119  0.4634 -0.1875
 8571TIP3   OH247127   0.585   5.891   5.716  0.3967  0.1187 -0.2607
 8571TIP3    H147128   0.677   5.895   5.740  0.8758 -3.5600 -0.9901
 8571TIP3    H247129   0.546   5.829   5.777 -0.8359 -0.7870 -1.8679
 8572TIP3   OH247130   6.753   4.539   6.123  0.6311 -0.2220  0.1321
 8572TIP3    H147131   6.788   4.516   6.209  0.2698  1.2185  0.6864
 8572TIP3    H247132   6.696   4.465   6.100  0.2616 -0.3522  1.4038
 8573TIP3   OH247133   6.024   6.647   1.539  0.2740  0.2744  0.1955
 8573TIP3    H147134   6.086   6.715   1.513  0.1987 -0.1030 -1.0571
 8573TIP3    H247135   6.054   6.619   1.625  0.1662  2.0435  0.8456
 8574TIP3   OH247136   3.783   5.557   5.682  0.4889  0.6068  0.1013
 8574TIP3    H147137   3.739   5.479   5.649  1.8323 -0.8133  1.4511
 8574TIP3    H247138   3.719   5.628   5.671 -2.0108 -1.2417  1.6144
 8575TIP3   OH247139   0.640   4.755   3.079  0.2980 -0.9557 -0.3958
 8575TIP3    H147140   0.720   4.746   3.028  0.0948 -0.2310 -0.8482
 8575TIP3    H247141   0.623   4.849   3.081 -0.6464 -1.1181 -0.4619
 8576TIP3   OH247142   5.088   1.078   5.587 -0.1541  0.0892  0.2654
 8576TIP3    H147143   5.155   1.054   5.651 -0.0384 -0.1803  0.0449
 8576TIP3    H247144   5.107   1.169   5.564  1.8788 -0.7753 -1.8983
 8577TIP3   OH247145   2.801   0.981   1.737  0.4483 -0.1101 -0.9033
 8577TIP3    H147146   2.725   1.038   1.754  0.4895  0.4437 -2.4204
 8577TIP3    H247147   2.804   0.973   1.642  2.4216  0.0608 -0.8970
 8578TIP3   OH247148   6.018   1.311  16.540 -0.0379 -0.1824  0.8239
 8578TIP3    H147149   6.100   1.265  16.560  0.3240 -0.0792 -0.3528
 8578TIP3    H247150   6.045   1.383  16.483 -1.0856 -0.8565 -0.5640
 8579TIP3   OH247151   4.370   6.495  11.657  0.2546  0.6432  0.2416
 8579TIP3    H147152   4.294   6.552  11.672 -0.0518  0.0908  0.8318
 8579TIP3    H247153   4.337   6.407  11.671  1.3338  0.4667  2.0469
 8580TIP3   OH247154   2.428   4.987  14.491 -0.2829  0.5177  0.8690
 8580TIP3    H147155   2.448   5.028  14.576  1.9338  1.0422  0.1468
 8580TIP3    H247156   2.450   5.053  14.426  0.4113 -0.7249 -0.2159
 8581TIP3   OH247157   4.932   0.112  16.867  0.0685  0.8467  0.2014
 8581TIP3    H147158   5.024   0.093  16.884 -0.2578  0.5903  1.7862
 8581TIP3    H247159   4.930   0.206  16.847  0.5502  1.0986  1.2595
 8582TIP3   OH247160   0.324   2.933  12.530  0.1001 -0.3181 -0.8992
 8582TIP3    H147161   0.256   2.896  12.586  0.1233  0.3524 -0.4027
 8582TIP3    H247162   0.358   2.859  12.480 -1.3611 -0.5838 -1.5625
 8583TIP3   OH247163   0.542   1.548   0.121 -0.4062  0.1465 -0.0588
 8583TIP3    H147164   0.578   1.489   0.054  0.4887  0.7833 -0.1503
 8583TIP3    H247165   0.577   1.634   0.098  0.8004  0.2233  1.8444
 8584TIP3   OH247166   1.743   1.484  13.659  0.3347 -0.0903 -0.7379
 8584TIP3    H147167   1.803   1.410  13.657  1.1726  0.4914  0.7047
 8584TIP3    H247168   1.659   1.446  13.688  0.9411 -0.4018  0.7172
 8585TIP3   OH247169   1.170   4.058   4.089 -0.2867 -0.5303  0.6397
 8585TIP3    H147170   1.162   4.144   4.049 -0.3611 -1.4954 -1.5535
 8585TIP3    H247171   1.263   4.037   4.084 -0.5251 -1.3860 -0.7281
 8586TIP3   OH247172   3.700   3.186  14.608  0.0656 -0.3148  0.0903
 8586TIP3    H147173   3.758   3.255  14.639 -0.7526  0.5758 -0.2899
 8586TIP3    H247174   3.723   3.176  14.515 -1.5649  1.3499 -0.5635
 8587TIP3   OH247175   5.103   0.591   3.486  0.3186 -0.2774 -0.1441
 8587TIP3    H147176   5.044   0.575   3.412  0.9220  1.2248 -0.9884
 8587TIP3    H247177   5.191   0.589   3.449  0.6229  0.7095  0.4748
 8588TIP3   OH247178   5.055   4.181   2.338  0.1161 -0.4649 -0.0919
 8588TIP3    H147179   5.000   4.138   2.272  0.7351  0.0612 -0.9822
 8588TIP3    H247180   5.132   4.211   2.289  1.1618 -1.0773  1.0884
 8589TIP3   OH247181   4.869   6.246  15.807  0.0443 -0.1545  0.1630
 8589TIP3    H147182   4.841   6.269  15.895 -1.3904 -2.4733  0.4058
 8589TIP3    H247183   4.817   6.303  15.750 -0.5524 -0.0732  0.7726
 8590TIP3   OH247184   1.361   5.371   3.068  0.2611  0.0009 -0.1826
 8590TIP3    H147185   1.293   5.377   3.134 -0.1221  1.6079 -0.6813
 8590TIP3    H247186   1.314   5.362   2.985  0.6770  0.1107 -0.4341
 8591TIP3   OH247187   4.934   5.458   0.691 -0.1418  0.3938 -0.8000
 8591TIP3    H147188   5.025   5.485   0.697 -0.5121  1.7153 -0.6708
 8591TIP3    H247189   4.886   5.539   0.674 -1.3329 -0.2029 -0.4609
 8592TIP3   OH247190   1.745   4.966   3.300  0.1123  0.3295 -0.1407
 8592TIP3    H147191   1.736   4.871   3.308  3.4911 -0.0571  0.4007
 8592TIP3    H247192   1.703   4.987   3.216 -0.6190 -1.6431 -0.3083
 8593TIP3   OH247193   6.557   1.995  12.318 -0.0472  0.1473  0.3729
 8593TIP3    H147194   6.581   2.079  12.356 -1.7682  1.7514 -1.8458
 8593TIP3    H247195   6.466   2.005  12.291 -0.3080 -2.4348 -0.0124
 8594TIP3   OH247196   0.911   6.728  14.054  0.3753 -0.0055  0.3415
 8594TIP3    H147197   0.947   6.641  14.066  2.2629  0.6996  0.1261
 8594TIP3    H247198   0.925   6.748  13.962  0.4597  0.7401  0.5060
 8595TIP3   OH247199   0.510   1.440  15.464  0.2235  0.1922 -0.1049
 8595TIP3    H147200   0.528   1.447  15.370 -0.1066 -0.0081 -0.1849
 8595TIP3    H247201   0.446   1.370  15.471 -0.5424  0.8984  0.1644
 8596TIP3   OH247202   5.062   3.979  16.652  0.1461  0.3280 -0.7649
 8596TIP3    H147203   5.137   4.020  16.610 -0.8818  2.0952 -0.9421
 8596TIP3    H247204   5.011   4.051  16.688 -1.4120 -0.8226 -0.5338
 8597TIP3   OH247205   6.616   1.813  16.737  0.2282 -0.2005  0.2420
 8597TIP3    H147206   6.655   1.760  16.667 -0.6690  0.8486 -1.0865
 8597TIP3    H247207   6.681   1.809  16.808  1.8661 -0.0780 -1.1871
 8598TIP3   OH247208   1.580   0.669   3.662 -0.1446  0.3037 -0.2009
 8598TIP3    H147209   1.499   0.708   3.697 -1.5140 -0.7388 -2.0283
 8598TIP3    H247210   1.607   0.730   3.593  0.0083  0.0882 -0.3317
 8599TIP3   OH247211   5.978   5.277   0.697  0.3006  0.4027 -0.6650
 8599TIP3    H147212   5.971   5.323   0.614  0.1005 -0.7806 -1.3204
 8599TIP3    H247213   5.965   5.185   0.675 -0.0252  0.0969  0.7178
 8600TIP3   OH247214   0.460   0.012   4.586 -0.5958  0.1163 -0.1578
 8600TIP3    H147215   0.520   0.063   4.530  0.7805 -0.7426  0.4907
 8600TIP3    H247216   0.415   0.079   4.638 -0.2824  0.7889 -0.7171
 8601TIP3   OH247217   6.468   3.445  11.053  0.2879  0.3423 -0.5239
 8601TIP3    H147218   6.440   3.507  10.986 -1.1345 -0.0053 -0.2801
 8601TIP3    H247219   6.407   3.371  11.044  1.0649 -0.3957  0.1215
 8602TIP3   OH247220   3.957   5.620   4.921  0.0549  0.1465  0.2015
 8602TIP3    H147221   3.940   5.713   4.939  2.4909  0.3903  1.7186
 8602TIP3    H247222   3.989   5.620   4.830  0.6360  0.9100  0.3915
 8603TIP3   OH247223   0.544   6.379   1.141 -0.1295 -0.8256 -0.0769
 8603TIP3    H147224   0.631   6.375   1.102  0.2715 -2.4654  0.8825
 8603TIP3    H247225   0.555   6.341   1.228 -1.5053  0.3655  0.6620
 8604TIP3   OH247226   0.517   4.986   2.986  0.6698  0.5097  0.1570
 8604TIP3    H147227   0.452   4.922   2.957  0.1183 -0.2505  2.8414
 8604TIP3    H247228   0.483   5.070   2.954 -1.0752 -0.0053  0.5674
 8605TIP3   OH247229   0.850   5.642   1.870 -0.0580  0.1882  0.3314
 8605TIP3    H147230   0.869   5.715   1.812 -1.8237 -0.2370 -0.8521
 8605TIP3    H247231   0.919   5.578   1.851 -2.9992 -2.0747 -5.1373
 8606TIP3   OH247232   6.039   2.335  17.080  0.7682 -0.4382  0.7617
 8606TIP3    H147233   5.985   2.414  17.090 -0.4527 -1.1451 -0.0337
 8606TIP3    H247234   6.109   2.362  17.019 -1.4339 -0.7534 -2.1189
 8607TIP3   OH247235   1.788   6.343   3.178 -0.2124 -0.3371 -0.1582
 8607TIP3    H147236   1.695   6.346   3.152 -0.5251  0.9913  1.0064
 8607TIP3    H247237   1.824   6.269   3.129 -1.5619 -0.0337 -1.6863
 8608TIP3   OH247238   6.097   0.908  14.376  0.6549  0.1312 -0.1685
 8608TIP3    H147239   6.139   0.937  14.457  2.4842 -0.3447 -0.8777
 8608TIP3    H247240   6.170   0.899  14.314 -0.3140 -2.0826 -1.1021
 8609TIP3   OH247241   6.291   2.011   1.666 -0.5090  0.5116  0.2003
 8609TIP3    H147242   6.281   1.918   1.684 -0.7541  0.5699  0.3640
 8609TIP3    H247243   6.347   2.014   1.588 -0.2918  0.2358  0.3438
 8610TIP3   OH247244   5.175   2.248  14.051  0.1330  0.1244  0.3685
 8610TIP3    H147245   5.102   2.279  14.104  0.2342 -0.3482  0.7920
 8610TIP3    H247246   5.136   2.185  13.990 -0.1595  1.3995 -0.8337
 8611TIP3   OH247247   5.566   5.616  12.248 -1.2174 -0.0157  0.6985
 8611TIP3    H147248   5.537   5.606  12.339 -1.2905  1.9724  0.9431
 8611TIP3    H247249   5.487   5.643  12.201 -0.9754 -0.1080  0.2388
 8612TIP3   OH247250   2.481   3.475  15.821 -0.4104  0.5182 -0.0601
 8612TIP3    H147251   2.412   3.541  15.829  0.3408  1.2561  0.6662
 8612TIP3    H247252   2.461   3.411  15.889 -1.1917 -0.0683 -0.8234
 8613TIP3   OH247253   6.460   1.964  10.559 -0.0377  0.4208  0.3143
 8613TIP3    H147254   6.545   1.939  10.524 -0.6427 -0.9855 -0.2017
 8613TIP3    H247255   6.453   1.917  10.642 -0.8844 -0.6695 -0.3297
 8614TIP3   OH247256   2.716   3.288  12.364 -0.7218  0.1187  0.1891
 8614TIP3    H147257   2.793   3.271  12.418 -0.6290  1.9176  0.7051
 8614TIP3    H247258   2.735   3.372  12.323 -2.2316  0.3835 -0.0028
 8615TIP3   OH247259   6.201   4.066   5.210 -0.1025 -0.2056  0.1871
 8615TIP3    H147260   6.116   4.051   5.169 -0.4655 -2.4021  1.5900
 8615TIP3    H247261   6.229   3.980   5.241  2.4447  0.5332  0.1916
 8616TIP3   OH247262   4.628   4.561   5.079 -0.7578 -0.5087  0.6009
 8616TIP3    H147263   4.695   4.496   5.058 -0.6205 -0.6463  1.4571
 8616TIP3    H247264   4.628   4.567   5.174 -0.1323  1.4410  0.5144
 8617TIP3   OH247265   5.605   2.613   6.776 -0.1889 -0.4524 -0.0653
 8617TIP3    H147266   5.537   2.564   6.731  0.0730  0.1561 -1.1401
 8617TIP3    H247267   5.606   2.576   6.865 -2.7559  0.3768  0.3746
 8618TIP3   OH247268   3.575   2.711  13.638  0.1750 -0.3406  0.2237
 8618TIP3    H147269   3.593   2.619  13.619 -0.8070 -0.5096  0.0630
 8618TIP3    H247270   3.592   2.756  13.555  0.5304 -0.3959  0.2668
 8619TIP3   OH247271   6.680   0.415  14.391 -0.0274 -0.1001 -0.2582
 8619TIP3    H147272   6.676   0.483  14.458  0.4699  1.1904 -1.5059
 8619TIP3    H247273   6.693   0.334  14.440 -1.6162  0.5445  1.3293
 8620TIP3   OH247274   5.668   2.832  16.495 -0.3561 -0.4378  0.1266
 8620TIP3    H147275   5.727   2.792  16.431  1.1780  0.3496  0.9718
 8620TIP3    H247276   5.580   2.813  16.463  0.3530 -1.6113 -1.2270
 8621TIP3   OH247277   1.244   1.494   0.744  0.3729  0.4572  0.3534
 8621TIP3    H147278   1.272   1.551   0.672 -0.8525  2.2348  1.1934
 8621TIP3    H247279   1.267   1.543   0.823  0.1636 -0.6889  1.1497
 8622TIP3   OH247280   0.120   2.773  13.612  0.2470  0.4200 -0.2806
 8622TIP3    H147281   0.197   2.815  13.649 -0.1459  1.6812 -0.8104
 8622TIP3    H247282   0.072   2.739  13.687  1.6852 -1.0837 -0.0044
 8623TIP3   OH247283   1.168   4.545   0.855 -0.1680 -0.1727  0.2193
 8623TIP3    H147284   1.262   4.559   0.843 -0.0656 -1.1017 -0.1775
 8623TIP3    H247285   1.155   4.454   0.830 -1.2325  0.0485 -0.0658
 8624TIP3   OH247286   1.660   2.081  15.744  0.7552  0.1682  0.2287
 8624TIP3    H147287   1.709   2.160  15.766 -0.4794  1.2449 -0.7919
 8624TIP3    H247288   1.568   2.106  15.751  0.3307 -1.2602  0.1623
 8625TIP3   OH247289   3.838   6.348  13.663 -0.0871 -0.1820 -0.1911
 8625TIP3    H147290   3.815   6.335  13.571 -0.1059 -0.1383 -0.1929
 8625TIP3    H247291   3.872   6.263  13.691 -2.7598 -1.1155  0.5566
 8626TIP3   OH247292   5.640   4.250   4.801 -0.3087  0.1832 -0.0160
 8626TIP3    H147293   5.658   4.337   4.837 -1.1731  0.5823 -0.5219
 8626TIP3    H247294   5.664   4.190   4.871 -0.1031  0.8480  0.4954
 8627TIP3   OH247295   2.308   5.126  12.045  0.0157 -0.0831 -0.6928
 8627TIP3    H147296   2.385   5.116  11.988 -0.3205  0.3727 -1.2330
 8627TIP3    H247297   2.345   5.139  12.133  0.5938  1.0244 -1.0752
 8628TIP3   OH247298   6.471   6.404  16.990 -0.3318  0.0113 -0.1507
 8628TIP3    H147299   6.434   6.472  16.934  0.6595  1.1052  0.4877
 8628TIP3    H247300   6.558   6.388  16.955 -0.0279  0.0871  0.5452
 8629TIP3   OH247301   3.202   0.314  14.456  0.0784  0.0682 -0.3187
 8629TIP3    H147302   3.285   0.347  14.490 -0.5516  0.6350  0.7352
 8629TIP3    H247303   3.143   0.390  14.459 -0.5174 -0.3572 -0.9222
 8630TIP3   OH247304   3.146   1.344  14.156  0.3526 -0.4740 -0.3081
 8630TIP3    H147305   3.232   1.307  14.139  0.5195 -0.6281  0.7787
 8630TIP3    H247306   3.165   1.424  14.206 -0.1635 -1.4554  1.5672
 8631TIP3   OH247307   2.558   0.020  11.490 -0.5034 -0.6521 -0.0579
 8631TIP3    H147308   2.648   0.054  11.479 -0.9794  0.3010 -1.3252
 8631TIP3    H247309   2.552  -0.052  11.428 -0.4297 -1.1121  0.4670
 8632TIP3   OH247310   0.524   2.781  13.918 -0.1820 -0.0730  0.1684
 8632TIP3    H147311   0.586   2.848  13.947 -0.9037  0.2841  0.9422
 8632TIP3    H247312   0.570   2.698  13.929  0.5763  0.2619 -0.4103
 8633TIP3   OH247313   6.003   5.494   4.088  0.9327  0.5254  0.4621
 8633TIP3    H147314   6.006   5.437   4.165  1.2527  0.5811  0.4936
 8633TIP3    H247315   5.992   5.434   4.015 -1.9900  0.6044  0.7156
 8634TIP3   OH247316   5.042   6.076   4.565 -0.1347 -0.1333 -0.1748
 8634TIP3    H147317   4.964   6.130   4.574  0.2159  0.4621 -0.5967
 8634TIP3    H247318   5.049   6.030   4.648 -1.8416 -1.4461 -0.7046
 8635TIP3   OH247319   4.390   6.512   5.546  0.3989  0.2751  0.2871
 8635TIP3    H147320   4.461   6.537   5.605  1.1297  0.8831 -0.8173
 8635TIP3    H247321   4.412   6.422   5.519 -0.0859 -0.1107  1.1279
 8636TIP3   OH247322   5.771   6.456   1.421 -0.3365  0.3207  0.1026
 8636TIP3    H147323   5.803   6.546   1.426 -1.2908  0.6195  2.4401
 8636TIP3    H247324   5.847   6.402   1.442 -0.1118  0.7036  0.2760
 8637TIP3   OH247325   1.215   3.259  14.954  0.1064 -0.0776  0.3913
 8637TIP3    H147326   1.179   3.305  15.031  0.3546 -0.3453  0.6704
 8637TIP3    H247327   1.194   3.316  14.880 -1.7713 -0.6926  0.4092
 8638TIP3   OH247328   3.960   3.793   4.197 -0.3247  0.5501  0.3189
 8638TIP3    H147329   3.915   3.777   4.114  0.5781  1.3043 -0.3419
 8638TIP3    H247330   3.927   3.877   4.226 -0.7490  0.2184  0.8124
 8639TIP3   OH247331   1.710   4.097   0.091  0.3430  0.1451  0.3813
 8639TIP3    H147332   1.642   4.066   0.032 -1.5630  2.1855  1.3698
 8639TIP3    H247333   1.746   4.174   0.048  2.0318 -0.8427 -0.0755
 8640TIP3   OH247334   5.639   0.204  13.883  0.5331 -0.3465  0.4061
 8640TIP3    H147335   5.584   0.167  13.814 -0.5974 -1.4032  1.8173
 8640TIP3    H247336   5.724   0.160  13.872 -0.5414 -2.8883  1.5373
 8641TIP3   OH247337   2.043   3.343  14.738  0.4278 -0.0249 -0.3288
 8641TIP3    H147338   2.053   3.439  14.738  0.7794 -0.0370 -1.6132
 8641TIP3    H247339   1.984   3.325  14.810  1.8121  0.9938  1.1354
 8642TIP3   OH247340   1.014   6.080  12.420 -0.1231 -0.2940 -0.3729
 8642TIP3    H147341   0.998   6.094  12.513 -0.7422 -0.3655 -0.4684
 8642TIP3    H247342   1.071   6.003  12.418  1.7161  0.9864  0.0425
 8643TIP3   OH247343   2.676   3.349   6.819  0.8193  0.0825 -0.2509
 8643TIP3    H147344   2.708   3.260   6.806  0.4937 -0.0768  0.0193
 8643TIP3    H247345   2.750   3.405   6.794  2.0908 -0.2882  2.3215
 8644TIP3   OH247346   0.896   0.669   3.527 -0.4605  0.4338  0.5986
 8644TIP3    H147347   0.927   0.582   3.500 -0.7509  0.6905 -0.6446
 8644TIP3    H247348   0.970   0.707   3.574  0.7173  0.5301 -1.1966
 8645TIP3   OH247349   2.086   3.797   1.992  0.0516 -0.4557 -0.2578
 8645TIP3    H147350   2.091   3.705   1.964 -0.6745 -1.4956  2.6321
 8645TIP3    H247351   2.143   3.802   2.068 -2.2831  0.6281  1.5518
 8646TIP3   OH247352   3.919   2.971   0.815 -0.3492  0.2870  0.1148
 8646TIP3    H147353   3.928   3.066   0.806  2.2757  0.1602  0.6114
 8646TIP3    H247354   3.855   2.960   0.885  0.7851  1.8000  1.4695
 8647TIP3   OH247355   0.923   5.243  12.091 -0.6161 -0.0067  0.1899
 8647TIP3    H147356   1.016   5.223  12.077 -0.6807  1.3415 -2.8063
 8647TIP3    H247357   0.885   5.160  12.119  1.0668 -1.2214 -0.9388
 8648TIP3   OH247358   3.553   4.343   4.593  0.0452 -0.8754  0.5344
 8648TIP3    H147359   3.592   4.360   4.679 -2.1012 -1.7006  1.7696
 8648TIP3    H247360   3.621   4.296   4.545  1.0253 -1.1684  2.1134
 8649TIP3   OH247361   2.493   1.687  14.320 -0.1193 -0.5526  0.3289
 8649TIP3    H147362   2.521   1.648  14.237  0.1569 -0.5729  0.4278
 8649TIP3    H247363   2.413   1.735  14.298  0.7489  0.6768 -0.2800
 8650TIP3   OH247364   2.328   2.858  10.833  0.1824  0.1234  0.2477
 8650TIP3    H147365   2.274   2.799  10.780  0.1616  0.3777 -0.0189
 8650TIP3    H247366   2.418   2.831  10.814  0.3167  1.8601 -1.9448
 8651TIP3   OH247367   1.918   2.547  15.795  0.4808  0.4209  0.2669
 8651TIP3    H147368   1.933   2.605  15.720 -1.1747  0.0670 -0.3880
 8651TIP3    H247369   1.823   2.539  15.800  0.5746  0.0913  2.1708
 8652TIP3   OH247370   6.672   2.268  16.230  0.1402 -0.3774 -0.9379
 8652TIP3    H147371   6.622   2.203  16.279 -0.5838 -0.9412 -2.3381
 8652TIP3    H247372   6.756   2.226  16.214  0.4905 -0.0652  0.0725
 8653TIP3   OH247373   3.033   5.762  12.890 -0.5915 -0.2927  0.1323
 8653TIP3    H147374   3.086   5.801  12.821 -0.1820 -0.3736  0.3924
 8653TIP3    H247375   3.086   5.772  12.969 -0.5862 -1.1414  0.2481
 8654TIP3   OH247376   0.617   2.996  15.354 -0.7704 -0.2202 -0.1204
 8654TIP3    H147377   0.660   2.999  15.268  0.0350 -1.1481  0.2258
 8654TIP3    H247378   0.653   2.917  15.396 -0.2725  0.8282  1.5141
 8655TIP3   OH247379   6.666   5.774  16.608 -0.1054  0.2879  0.4777
 8655TIP3    H147380   6.680   5.680  16.608 -3.7525 -0.3806 -0.1745
 8655TIP3    H247381   6.573   5.785  16.590  0.4362  4.0889 -0.9588
 8656TIP3   OH247382   5.679   0.847  12.668 -0.5973 -0.1925 -0.9923
 8656TIP3    H147383   5.655   0.758  12.639  1.4944 -1.0945 -0.1634
 8656TIP3    H247384   5.638   0.905  12.604 -0.3864 -1.8570 -2.7221
 8657TIP3   OH247385   1.749   6.593  12.970  0.2905  0.2424  0.1512
 8657TIP3    H147386   1.787   6.656  13.031  0.0602  0.0712  0.4739
 8657TIP3    H247387   1.821   6.533  12.950  0.6838  0.9624 -0.6425
 8658TIP3   OH247388   4.144   5.497  15.197 -0.8271  0.3102 -0.4665
 8658TIP3    H147389   4.073   5.548  15.157 -0.7485 -0.4384 -1.5852
 8658TIP3    H247390   4.112   5.477  15.285 -2.0610 -0.1256 -0.9986
 8659TIP3   OH247391   0.177   5.266   0.016  0.1305  0.5621 -0.4189
 8659TIP3    H147392   0.210   5.177   0.003 -2.1956 -0.5606  0.7508
 8659TIP3    H247393   0.114   5.258   0.087  0.2802  3.2985  0.1401
 8660TIP3   OH247394   2.349   3.000   3.514  0.3586  0.2003  0.1343
 8660TIP3    H147395   2.384   3.037   3.594 -0.1956  1.0244  0.0122
 8660TIP3    H247396   2.347   3.073   3.452 -0.3545 -0.1260 -0.2512
 8661TIP3   OH247397   5.711   1.140   3.237  0.1559  0.3056  0.1788
 8661TIP3    H147398   5.755   1.056   3.227 -2.4462 -1.2207  0.6480
 8661TIP3    H247399   5.709   1.156   3.331 -0.1691  0.4091  0.1576
 8662TIP3   OH247400   1.385   0.761   1.541 -0.0327 -0.3458  0.0039
 8662TIP3    H147401   1.467   0.714   1.557  0.0650  0.0049  0.5710
 8662TIP3    H247402   1.413   0.850   1.518 -0.2535 -0.2337  0.1663
 8663TIP3   OH247403   5.667   4.078   2.079 -0.2350 -0.0502  0.0761
 8663TIP3    H147404   5.733   4.010   2.093  0.3507  0.2713 -0.9664
 8663TIP3    H247405   5.640   4.104   2.166  1.1400 -0.0839  0.5393
 8664TIP3   OH247406   5.897   6.421  11.810  0.0251 -0.0266 -0.1148
 8664TIP3    H147407   5.888   6.507  11.853  2.0397  0.9894 -1.5705
 8664TIP3    H247408   5.827   6.420  11.744  0.4264  0.8263 -0.5701
 8665TIP3   OH247409   3.884   3.433   3.375  0.4362 -0.6064 -0.4308
 8665TIP3    H147410   3.845   3.413   3.290 -1.1335 -0.9458  0.3368
 8665TIP3    H247411   3.915   3.349   3.409 -2.2511 -1.1549  0.8923
 8666TIP3   OH247412   2.088   3.097  15.385  0.4427 -0.0875 -0.5973
 8666TIP3    H147413   2.172   3.115  15.428  0.2013 -2.1215  0.8759
 8666TIP3    H247414   2.085   3.002  15.378 -1.4127 -0.0134 -1.3444
 8667TIP3   OH247415   3.727   3.933  12.536 -0.3371  0.2686 -0.3105
 8667TIP3    H147416   3.700   3.933  12.628 -1.1603  0.7950 -0.5403
 8667TIP3    H247417   3.758   4.023  12.521  0.4113  0.0062 -0.3827
 8668TIP3   OH247418   2.600   4.043  15.641  0.3185 -0.0555  0.2987
 8668TIP3    H147419   2.550   3.982  15.695  0.9477 -0.7082  0.1710
 8668TIP3    H247420   2.548   4.052  15.561 -0.5157  0.7601  0.9132
 8669TIP3   OH247421   3.956   5.514  16.235  0.1566 -0.6536  0.3478
 8669TIP3    H147422   4.044   5.529  16.270 -0.0545  0.7120  0.3631
 8669TIP3    H247423   3.920   5.445  16.289  1.0916 -0.9809  0.5767
 8670TIP3   OH247424   6.392   3.809  12.399 -0.1793 -0.2396  0.3375
 8670TIP3    H147425   6.397   3.750  12.324 -1.2431  0.3427 -0.2259
 8670TIP3    H247426   6.299   3.834  12.403  0.0979  0.7320  1.0665
 8671TIP3   OH247427   6.148   0.939   3.211  0.5149 -0.1476  0.2920
 8671TIP3    H147428   6.129   1.030   3.234  1.4645 -0.0542  0.7919
 8671TIP3    H247429   6.213   0.945   3.141 -2.6973 -0.4238 -2.9907
 8672TIP3   OH247430   0.487   4.641  13.961 -0.1628  0.0785 -0.9288
 8672TIP3    H147431   0.416   4.578  13.955  0.5915 -1.2037  1.7327
 8672TIP3    H247432   0.479   4.678  14.049  0.8407  1.9584 -1.5647
 8673TIP3   OH247433   6.427   1.101  11.708 -0.3864  0.1074 -0.3700
 8673TIP3    H147434   6.427   1.006  11.693 -1.1615  0.5194 -3.6394
 8673TIP3    H247435   6.345   1.132  11.671  0.4927  2.2296 -0.6854
 8674TIP3   OH247436   0.770   3.595  15.310  0.8712 -0.2233  0.0231
 8674TIP3    H147437   0.791   3.615  15.219  2.8281  0.1391  0.5136
 8674TIP3    H247438   0.846   3.625  15.360  0.1468 -1.0403  1.7163
 8675TIP3   OH247439   6.131   0.452   2.857  0.3169 -0.0163  0.0714
 8675TIP3    H147440   6.186   0.425   2.931 -1.2632  1.0564  1.6942
 8675TIP3    H247441   6.089   0.371   2.828  1.5656 -0.5859 -0.2155
 8676TIP3   OH247442   3.016   2.230  14.487  0.4041 -0.1138 -0.6459
 8676TIP3    H147443   2.979   2.317  14.471  0.0404 -0.6312 -3.0523
 8676TIP3    H247444   3.045   2.233  14.578 -1.9162  1.6638  0.1639
 8677TIP3   OH247445   5.665   4.943   4.476 -0.3422 -0.3237  0.0329
 8677TIP3    H147446   5.727   4.871   4.489  1.6119  1.2060 -0.2001
 8677TIP3    H247447   5.588   4.918   4.526  1.1057 -1.5688  1.7897
 8678TIP3   OH247448   4.180   0.774   2.040  0.6435  0.2982  0.1075
 8678TIP3    H147449   4.248   0.733   1.986 -0.0738 -1.5282  0.5106
 8678TIP3    H247450   4.148   0.703   2.096 -1.0472  1.3084  0.4920
 8679TIP3   OH247451   1.514   0.145   1.581 -0.1215  0.2681  0.3274
 8679TIP3    H147452   1.552   0.085   1.645 -0.0746  0.4687  0.4859
 8679TIP3    H247453   1.528   0.232   1.617 -1.5800  0.3122  0.8556
 8680TIP3   OH247454   1.666   3.988   6.754  0.0449 -0.3521 -0.4591
 8680TIP3    H147455   1.584   3.941   6.766  0.2114 -0.9059 -1.4270
 8680TIP3    H247456   1.734   3.921   6.756  0.7305  0.3058  2.5040
 8681TIP3   OH247457   4.032   3.189   3.347  0.6464  0.0324 -0.6013
 8681TIP3    H147458   4.083   3.113   3.376  1.0144  1.3057  2.4240
 8681TIP3    H247459   4.007   3.168   3.257 -1.7886 -5.0664  0.8545
 8682TIP3   OH247460   1.081   3.305   5.170  0.4472 -0.0006 -0.0948
 8682TIP3    H147461   1.005   3.289   5.226  0.5791 -1.4552 -0.2975
 8682TIP3    H247462   1.050   3.367   5.104 -0.2216  0.3308  0.5213
 8683TIP3   OH247463   4.513   6.368  16.907 -0.4167  0.2196  0.2817
 8683TIP3    H147464   4.552   6.312  16.973  0.2372  1.0671  0.6271
 8683TIP3    H247465   4.566   6.354  16.828  0.2720  0.9480  0.5959
 8684TIP3   OH247466   4.563   4.603   3.022  0.0866 -0.4077 -0.1927
 8684TIP3    H147467   4.600   4.530   3.071 -0.6995 -1.5755 -1.2900
 8684TIP3    H247468   4.488   4.632   3.075  0.9319  0.2289  0.6946
 8685TIP3   OH247469   4.872   3.055  16.400  0.6148 -0.1688  0.1248
 8685TIP3    H147470   4.932   2.985  16.375  0.5856  0.0941 -0.7011
 8685TIP3    H247471   4.804   3.055  16.332 -2.0050 -2.3848  2.5226
 8686TIP3   OH247472   3.126   0.021  16.946  0.0102 -0.3628 -0.5930
 8686TIP3    H147473   3.187   0.094  16.940 -0.2589 -0.1876 -1.2616
 8686TIP3    H247474   3.110  -0.005  16.855 -3.2617  1.5590 -0.7353
 8687TIP3   OH247475   3.586   3.651  15.356  0.1977  0.3365  0.1196
 8687TIP3    H147476   3.658   3.592  15.334 -0.7737 -0.1712 -1.9047
 8687TIP3    H247477   3.605   3.732  15.308  0.3721  0.8944  1.1030
 8688TIP3   OH247478   2.672   4.047   1.693  0.4745  0.1792  0.5608
 8688TIP3    H147479   2.592   4.048   1.745 -0.2107  1.8368 -0.4263
 8688TIP3    H247480   2.717   4.128   1.718  0.3317  0.7918 -1.0818
 8689TIP3   OH247481   1.756   1.123   4.254  0.2033  0.4250 -0.2026
 8689TIP3    H147482   1.772   1.071   4.332 -0.1076 -1.9102 -1.6242
 8689TIP3    H247483   1.830   1.103   4.196 -0.8479  0.1535 -1.4894
 8690TIP3   OH247484   6.229   3.987   4.473 -0.2936  0.4467  0.0597
 8690TIP3    H147485   6.197   4.029   4.393  0.5274  0.3656 -0.3175
 8690TIP3    H247486   6.276   4.056   4.519 -0.8132  0.5091  0.5137
 8691TIP3   OH247487   5.556   0.087   5.395  0.8177 -0.5330 -0.0795
 8691TIP3    H147488   5.504   0.168   5.397  0.0342 -1.0020 -0.9345
 8691TIP3    H247489   5.549   0.052   5.484  0.6618  0.0238  0.1326
 8692TIP3   OH247490   0.957   3.367   1.051  0.3547  0.5074  0.4543
 8692TIP3    H147491   1.037   3.318   1.035  0.3486  0.7526 -0.3691
 8692TIP3    H247492   0.987   3.456   1.071  0.3119  0.4568  0.7497
 8693TIP3   OH247493   2.691   1.608   5.226 -0.3517 -0.3956 -0.5299
 8693TIP3    H147494   2.602   1.576   5.241 -0.3697 -0.2613 -0.3594
 8693TIP3    H247495   2.680   1.696   5.192 -0.2869 -0.4165 -0.6056
 8694TIP3   OH247496   6.568   5.774   3.397  0.6564  0.2746 -0.0324
 8694TIP3    H147497   6.533   5.689   3.421 -0.4607  1.4128  2.8243
 8694TIP3    H247498   6.657   5.774   3.433  0.5900  0.3448  0.1375
 8695TIP3   OH247499   1.123   5.522  12.271  0.3169  0.3779  0.0826
 8695TIP3    H147500   1.167   5.497  12.190  1.2425  0.4537  0.5473
 8695TIP3    H247501   1.039   5.558  12.243 -0.4254 -1.8124 -0.6935
 8696TIP3   OH247502   0.635   1.818   1.036 -0.6315  0.0253  0.1355
 8696TIP3    H147503   0.580   1.831   1.113 -2.3012 -0.0911 -0.9848
 8696TIP3    H247504   0.678   1.734   1.050 -1.4121 -0.2923  0.6488
 8697TIP3   OH247505   1.660   6.160  16.835  0.4634  0.2237 -0.3158
 8697TIP3    H147506   1.734   6.193  16.785  0.2537 -0.1902 -0.9177
 8697TIP3    H247507   1.592   6.226  16.823  0.0174 -0.4360 -1.5858
 8698TIP3   OH247508   3.603   2.227  16.313  0.2062  0.7881 -0.1677
 8698TIP3    H147509   3.644   2.312  16.331  1.7220  0.5774 -2.3064
 8698TIP3    H247510   3.528   2.249  16.257  0.4470  0.7676 -0.5062
 8699TIP3   OH247511   2.381   5.682   5.975  0.2697 -0.5362 -0.1353
 8699TIP3    H147512   2.311   5.708   6.035  0.3314  1.7086 -0.9714
 8699TIP3    H247513   2.368   5.588   5.964 -2.4556 -0.2517 -0.0429
 8700TIP3   OH247514   1.990   0.632   2.232 -0.2656 -0.1258 -0.5616
 8700TIP3    H147515   1.997   0.606   2.139 -2.0046 -2.2964 -0.1752
 8700TIP3    H247516   2.038   0.564   2.279 -0.1389  0.4825  0.2112
 8701TIP3   OH247517   3.487   3.811   3.435  0.4131 -0.2821 -0.0752
 8701TIP3    H147518   3.411   3.782   3.383 -0.6751  1.6462  0.3465
 8701TIP3    H247519   3.563   3.786   3.382 -0.6211  0.5608 -2.0784
 8702TIP3   OH247520   1.894   4.768   5.795 -0.0113  0.2624 -0.5857
 8702TIP3    H147521   1.980   4.810   5.785  0.9658 -1.7306 -1.1479
 8702TIP3    H247522   1.834   4.824   5.746  1.1709  1.1579 -1.0505
 8703TIP3   OH247523   1.988   2.056   6.301 -0.2956 -0.4866 -0.1435
 8703TIP3    H147524   2.074   2.032   6.335 -0.3346 -0.1970  0.1709
 8703TIP3    H247525   1.927   1.993   6.339 -0.0456 -1.5731 -1.4863
 8704TIP3   OH247526   3.959   3.121  16.274  0.1373  0.7249 -0.2027
 8704TIP3    H147527   3.974   3.122  16.369 -1.3524  1.3895  0.0410
 8704TIP3    H247528   4.026   3.061  16.240 -0.6538 -1.2526  1.5123
 8705TIP3   OH247529   0.484   2.191  16.832  0.1326  0.4981 -0.5564
 8705TIP3    H147530   0.570   2.157  16.857 -0.2563  0.7101  1.1717
 8705TIP3    H247531   0.454   2.240  16.908 -1.4709  0.5581 -1.1801
 8706TIP3   OH247532   5.635   6.297   3.537  0.2985  0.5129  0.1018
 8706TIP3    H147533   5.689   6.221   3.555 -0.5944 -0.1038  0.2458
 8706TIP3    H247534   5.548   6.261   3.519  0.0601  1.4350 -0.7026
 8707TIP3   OH247535   6.037   5.147   5.839 -0.2093 -0.5172  0.4634
 8707TIP3    H147536   5.974   5.079   5.815 -0.0411 -0.5847  0.2134
 8707TIP3    H247537   6.085   5.164   5.758 -1.9587  1.7485 -0.2045
 8708TIP3   OH247538   1.239   2.115  11.251  0.0199  0.0002  0.2766
 8708TIP3    H147539   1.164   2.174  11.248  0.6010  0.7188 -1.4558
 8708TIP3    H247540   1.292   2.140  11.176  1.6302 -0.9940  1.0342
 8709TIP3   OH247541   1.370   6.663   2.148 -0.1111 -0.1114  0.1050
 8709TIP3    H147542   1.380   6.650   2.242  0.2106  0.1866  0.1146
 8709TIP3    H247543   1.277   6.648   2.131 -0.1499 -0.2668  0.4543
 8710TIP3   OH247544   1.303   4.085  14.846  0.2827 -0.8284 -0.2228
 8710TIP3    H147545   1.358   4.100  14.768  0.5410 -0.7892 -0.0338
 8710TIP3    H247546   1.213   4.089  14.813  0.3609  0.3233 -0.3235
 8711TIP3   OH247547   1.062   5.812   4.203 -0.0624 -0.7927  0.1863
 8711TIP3    H147548   1.108   5.810   4.287 -0.6657  0.0434  0.5542
 8711TIP3    H247549   1.041   5.905   4.190  2.6293 -0.3846 -2.3377
 8712TIP3   OH247550   0.326   2.261   0.417  0.0949  0.0332 -0.6488
 8712TIP3    H147551   0.313   2.166   0.405  0.0083  0.1164 -1.2195
 8712TIP3    H247552   0.256   2.287   0.477 -0.2270 -0.1627 -0.9366
 8713TIP3   OH247553   2.233   4.093  14.871 -0.5049  0.1126 -0.5542
 8713TIP3    H147554   2.241   4.018  14.811  1.4900  1.3874 -1.9970
 8713TIP3    H247555   2.143   4.124  14.857 -1.1996 -1.6380 -0.3096
 8714TIP3   OH247556   6.188   3.476   4.015 -0.6193 -0.0282  0.0510
 8714TIP3    H147557   6.283   3.460   4.015 -0.2737  1.7845  0.8030
 8714TIP3    H247558   6.152   3.408   4.071  0.2664 -0.5220  0.0489
 8715TIP3   OH247559   3.823   6.409  14.840  0.0333 -0.1563  0.5177
 8715TIP3    H147560   3.894   6.393  14.779  0.9475  0.4027  1.3984
 8715TIP3    H247561   3.867   6.435  14.921 -1.1784  1.0131  0.8396
 8716TIP3   OH247562   3.295   5.839   5.586  0.0486 -0.0943  0.0412
 8716TIP3    H147563   3.289   5.755   5.539  0.7660 -0.5017  0.6472
 8716TIP3    H247564   3.245   5.825   5.666 -0.0076  0.1282  0.0445
 8717TIP3   OH247565   2.399   4.142  16.422  0.4432  0.9766  1.0249
 8717TIP3    H147566   2.481   4.109  16.386 -0.9798 -0.8843 -0.7865
 8717TIP3    H247567   2.376   4.079  16.491 -0.4044  0.2850  0.1454
 8718TIP3   OH247568   1.194   6.412  15.436 -0.0474 -0.4183 -0.2504
 8718TIP3    H147569   1.177   6.327  15.477 -1.2383 -0.3189 -0.5035
 8718TIP3    H247570   1.152   6.475  15.495 -0.6699 -0.1688 -0.9393
 8719TIP3   OH247571   4.389   2.484  13.047  0.0596  0.0442 -0.0711
 8719TIP3    H147572   4.375   2.391  13.068 -0.4215 -0.6898 -3.0435
 8719TIP3    H247573   4.386   2.486  12.951 -0.3966  3.2374 -0.0712
 8720TIP3   OH247574   4.510   4.429   4.573 -0.4878 -0.1105  0.1744
 8720TIP3    H147575   4.555   4.468   4.498 -0.0559  0.4290  0.7017
 8720TIP3    H247576   4.578   4.385   4.623 -0.7079 -0.1597  0.4381
 8721TIP3   OH247577   6.467   3.858  15.988  0.7699 -0.2254 -0.9867
 8721TIP3    H147578   6.455   3.806  16.067  2.5412  1.8521  0.7821
 8721TIP3    H247579   6.546   3.909  16.004  0.1139  1.7382 -3.2995
 8722TIP3   OH247580   3.742   1.440  13.991  0.1360 -0.5766  0.0547
 8722TIP3    H147581   3.753   1.346  13.976  0.6539 -0.3863 -0.7924
 8722TIP3    H247582   3.785   1.482  13.917  2.6213  0.4236  1.9176
 8723TIP3   OH247583   5.122   0.589   1.589 -0.1583 -0.6775 -0.3408
 8723TIP3    H147584   5.173   0.562   1.666  0.2255  0.4305 -0.1965
 8723TIP3    H247585   5.039   0.621   1.625  0.0363 -0.1232 -0.3873
 8724TIP3   OH247586   2.642   1.160  14.861 -0.4230 -0.1703 -0.0642
 8724TIP3    H147587   2.562   1.108  14.865  0.1164 -1.2690 -1.9899
 8724TIP3    H247588   2.617   1.240  14.814 -0.4368 -0.4462 -0.5323
 8725TIP3   OH247589   2.280   3.902   1.611  0.5890  0.3510 -0.4172
 8725TIP3    H147590   2.189   3.930   1.623  0.2164 -0.7992 -0.4314
 8725TIP3    H247591   2.289   3.889   1.517  1.4513  2.5748 -0.7193
 8726TIP3   OH247592   0.776   0.632  13.938 -0.4606  0.3332 -0.6178
 8726TIP3    H147593   0.853   0.668  13.892 -1.5935  0.9275 -2.1466
 8726TIP3    H247594   0.807   0.550  13.976  1.4300  1.4622  0.4430
 8727TIP3   OH247595   5.016   4.370  14.174 -0.2622 -0.8309 -0.2986
 8727TIP3    H147596   5.006   4.313  14.251 -1.9618  0.5384  0.5650
 8727TIP3    H247597   5.052   4.313  14.107 -0.8636 -2.6614  0.8532
 8728TIP3   OH247598   2.989   1.627   1.670 -0.1214 -0.0975 -0.1241
 8728TIP3    H147599   3.067   1.605   1.619 -0.3387  1.3044 -1.1238
 8728TIP3    H247600   2.919   1.574   1.632  0.0220 -0.1832 -0.2704
 8729TIP3   OH247601   5.004   1.944   1.024 -0.3099 -0.1936 -0.0483
 8729TIP3    H147602   4.942   1.945   0.951 -0.3491 -0.1880 -0.0154
 8729TIP3    H247603   4.948   1.943   1.102 -0.2832  0.9408  0.0057
 8730TIP3   OH247604   4.194   3.255   3.619  0.5839 -0.6711  0.3349
 8730TIP3    H147605   4.211   3.345   3.646 -0.5360  0.7391 -3.1135
 8730TIP3    H247606   4.273   3.228   3.573  0.9601 -1.5529  1.4501
 8731TIP3   OH247607   3.299   3.894   2.342 -0.0765  0.0545  0.0238
 8731TIP3    H147608   3.373   3.874   2.398 -0.8844 -0.3399  0.9815
 8731TIP3    H247609   3.298   3.990   2.337  0.4522  0.0639  0.0631
 8732TIP3   OH247610   1.535   3.845   3.293  0.2842  0.2192  0.3642
 8732TIP3    H147611   1.441   3.862   3.297  0.2864  0.5064 -0.6667
 8732TIP3    H247612   1.543   3.753   3.316 -0.5966 -0.7579 -2.7713
 8733TIP3   OH247613   4.378   3.609  15.640  0.5564  0.1635 -0.7924
 8733TIP3    H147614   4.287   3.592  15.665  1.3876 -1.6778  1.3239
 8733TIP3    H247615   4.387   3.704  15.646 -0.8200  0.2562  0.6681
 8734TIP3   OH247616   4.272   2.441   1.128 -0.0024  0.3081 -0.4798
 8734TIP3    H147617   4.328   2.456   1.204 -0.0882  0.9992 -0.5458
 8734TIP3    H247618   4.190   2.409   1.165  0.6001 -1.2460 -0.4166
 8735TIP3   OH247619   3.903   3.196   5.666  0.7752 -0.1816  0.9935
 8735TIP3    H147620   3.898   3.252   5.589  0.8882 -0.0833  1.0560
 8735TIP3    H247621   3.935   3.112   5.633 -3.0793 -1.5318  0.2139
 8736TIP3   OH247622   5.764   3.479   2.710  0.0678 -0.2980  0.0246
 8736TIP3    H147623   5.751   3.553   2.650  0.5787 -0.0416  0.2202
 8736TIP3    H247624   5.792   3.407   2.654 -0.6823 -0.4219 -0.2002
 8737TIP3   OH247625   3.789   3.625  16.031 -0.1796  0.3478 -0.0967
 8737TIP3    H147626   3.735   3.655  16.104 -1.8974 -1.8212 -0.3622
 8737TIP3    H247627   3.872   3.599  16.071 -0.0831  1.7383  0.6506
 8738TIP3   OH247628   0.868   0.527   5.171 -0.0405 -0.6261 -0.4941
 8738TIP3    H147629   0.796   0.586   5.148 -1.0414 -1.7141 -0.2201
 8738TIP3    H247630   0.841   0.441   5.139  1.3862 -0.9682 -0.8713
 8739TIP3   OH247631   4.638   6.075   2.931  1.0609 -0.7762 -0.0621
 8739TIP3    H147632   4.722   6.118   2.915  1.3688 -1.8050 -1.3979
 8739TIP3    H247633   4.642   6.048   3.023  1.0033  1.6580  0.7198
 8740TIP3   OH247634   4.518   1.498   1.989  0.1598  0.2841 -0.4633
 8740TIP3    H147635   4.516   1.407   2.020 -1.2184  0.0676 -1.0997
 8740TIP3    H247636   4.478   1.548   2.060 -0.8747  0.1008 -0.8899
 8741TIP3   OH247637   1.369   2.788   2.451 -0.3274 -0.7480  0.3000
 8741TIP3    H147638   1.337   2.877   2.458 -1.5707 -1.2311  0.9881
 8741TIP3    H247639   1.291   2.733   2.461  0.1029 -1.8916 -1.8855
 8742TIP3   OH247640   1.548   2.854   5.728 -0.2019  0.2266 -0.0862
 8742TIP3    H147641   1.640   2.859   5.752 -0.3031  2.0943  0.1132
 8742TIP3    H247642   1.512   2.783   5.780  1.3838 -1.4815 -1.1955
 8743TIP3   OH247643   1.826   1.054   2.533  0.2103  0.1385  0.2053
 8743TIP3    H147644   1.851   0.990   2.466 -0.2766  0.3157 -0.1520
 8743TIP3    H247645   1.815   1.136   2.485  0.1300  0.3298  0.5476
 8744TIP3   OH247646   4.270   4.612  16.751 -0.3996 -0.2575 -0.0462
 8744TIP3    H147647   4.203   4.654  16.697 -0.6318 -0.0725  0.3853
 8744TIP3    H247648   4.227   4.534  16.786 -0.4144 -0.0947  0.2966
 8745TIP3   OH247649   6.006   2.352  11.569  0.5044  0.0610 -0.6267
 8745TIP3    H147650   6.071   2.422  11.559  0.5892 -0.2356 -2.5503
 8745TIP3    H247651   6.045   2.276  11.525 -0.0760 -0.8747  0.4300
 8746TIP3   OH247652   2.891   0.625  12.862 -0.6280  0.4113  0.4026
 8746TIP3    H147653   2.870   0.556  12.925 -2.5393 -0.1057 -0.7399
 8746TIP3    H247654   2.912   0.578  12.781 -2.1888  1.1225 -0.4607
 8747TIP3   OH247655   2.027   6.521  14.984 -0.8810  0.0033  0.1723
 8747TIP3    H147656   2.009   6.553  14.896  0.5522  0.8471  0.1617
 8747TIP3    H247657   1.993   6.590  15.042 -1.1512 -0.1991  0.2537
 8748TIP3   OH247658   1.077   4.081   1.561 -0.2068  0.1708 -0.1490
 8748TIP3    H147659   1.143   4.140   1.597 -3.1347  3.1516  0.8843
 8748TIP3    H247660   1.061   4.113   1.473  0.9691 -1.7554 -1.1221
 8749TIP3   OH247661   6.446   4.021  11.332 -1.1926  0.1068 -0.0076
 8749TIP3    H147662   6.468   4.109  11.365 -2.8571  0.4871  0.2117
 8749TIP3    H247663   6.460   3.964  11.407 -0.4167  0.2391 -0.0498
 8750TIP3   OH247664   0.664   4.948  13.641  0.1345  0.4218 -0.3984
 8750TIP3    H147665   0.595   4.997  13.686 -0.4840  0.4752 -1.3920
 8750TIP3    H247666   0.651   4.857  13.669 -0.4894  0.3957 -0.7511
 8751TIP3   OH247667   5.761   4.786   2.380  0.3214 -0.1935 -0.3241
 8751TIP3    H147668   5.843   4.765   2.425 -0.3578 -1.4944  0.3628
 8751TIP3    H247669   5.779   4.869   2.336  1.8867 -0.2620  0.1080
 8752TIP3   OH247670   0.068   6.276   1.877 -0.1005  0.6059 -0.6619
 8752TIP3    H147671   0.100   6.351   1.926 -2.0668  0.7338  0.5264
 8752TIP3    H247672   0.142   6.215   1.874  0.4994  1.1995  1.2693
 8753TIP3   OH247673   0.887   1.260   0.803  0.2410 -0.1957  0.0097
 8753TIP3    H147674   0.819   1.212   0.850 -1.0823  0.0924 -1.5156
 8753TIP3    H247675   0.969   1.224   0.836 -0.6557 -1.0314  1.4166
 8754TIP3   OH247676   5.674   4.502   4.448  0.1603  0.1694  0.1040
 8754TIP3    H147677   5.693   4.539   4.534  2.5264  0.2444 -0.3729
 8754TIP3    H247678   5.739   4.543   4.390 -0.0729 -1.3662 -1.3179
 8755TIP3   OH247679   2.458   5.490  14.477 -0.9787 -0.1524  0.0552
 8755TIP3    H147680   2.491   5.558  14.418 -1.5164 -1.1803 -1.5138
 8755TIP3    H247681   2.373   5.521  14.506  0.3602  1.5454  2.4265
 8756TIP3   OH247682   4.085   1.350   3.963  0.4980  0.1294 -0.4509
 8756TIP3    H147683   4.159   1.387   4.012  0.8960 -0.2482 -0.7518
 8756TIP3    H247684   4.041   1.426   3.925  0.7437  0.3596 -0.2835
 8757TIP3   OH247685   3.842   5.252  17.176  0.6370 -0.5423 -0.1991
 8757TIP3    H147686   3.757   5.258  17.220 -0.5160  0.6242 -2.4116
 8757TIP3    H247687   3.891   5.187  17.226 -1.9382 -2.0144  0.5510
 8758TIP3   OH247688   4.536   2.292  16.104  0.3865  0.0412 -0.0106
 8758TIP3    H147689   4.599   2.221  16.113  2.0219  1.1061 -2.0724
 8758TIP3    H247690   4.581   2.369  16.140 -0.5543  0.4449  0.3443
 8759TIP3   OH247691   5.958   0.033  13.597  0.0865  0.1875 -0.0731
 8759TIP3    H147692   5.952   0.067  13.508  0.4879  2.1195  0.5881
 8759TIP3    H247693   6.051   0.016  13.610  0.0774  0.2773  0.1087
 8760TIP3   OH247694   6.364   2.577  14.245 -0.1812  0.6633 -0.0879
 8760TIP3    H147695   6.327   2.652  14.291  1.9467  0.9538  1.3185
 8760TIP3    H247696   6.400   2.522  14.314 -0.0809 -0.7526 -1.2183
 8761TIP3   OH247697   4.840   5.009   0.243 -0.1826  0.7403  0.2576
 8761TIP3    H147698   4.751   5.045   0.252 -0.5515  0.0010 -0.3059
 8761TIP3    H247699   4.892   5.083   0.212 -0.6533  1.1323  0.3773
 8762TIP3   OH247700   3.674   6.488   6.892  0.2062 -0.2483 -0.4419
 8762TIP3    H147701   3.632   6.416   6.844 -0.3517 -0.0879 -0.2065
 8762TIP3    H247702   3.733   6.444   6.954 -1.5300 -0.6396  1.0575
 8763TIP3   OH247703   3.866   6.103  15.117  0.2951  0.4067  0.0534
 8763TIP3    H147704   3.941   6.075  15.169 -0.2270 -1.7069 -0.2573
 8763TIP3    H247705   3.904   6.140  15.037  1.0185 -0.1104  0.1510
 8764TIP3   OH247706   4.286   1.889  14.076  0.2640 -0.2741  0.3096
 8764TIP3    H147707   4.304   1.974  14.037  2.6298 -1.5922 -1.7874
 8764TIP3    H247708   4.235   1.842  14.010 -0.1049 -0.8419  0.9822
 8765TIP3   OH247709   4.872   5.263   2.082  0.2363 -0.1806 -0.2293
 8765TIP3    H147710   4.842   5.177   2.112 -0.0442  0.6762  2.1949
 8765TIP3    H247711   4.792   5.316   2.078  0.4471  0.0711 -1.3909
 8766TIP3   OH247712   0.471   0.483  14.828  0.1225 -0.2891 -0.1694
 8766TIP3    H147713   0.545   0.513  14.774  0.5283 -1.6724 -0.4200
 8766TIP3    H247714   0.512   0.426  14.893 -0.7383 -1.1420 -0.3674
 8767TIP3   OH247715   2.212   1.555   4.747 -0.6472  0.0750  0.2618
 8767TIP3    H147716   2.143   1.497   4.717  1.0034 -1.4197 -0.8327
 8767TIP3    H247717   2.268   1.567   4.671  2.1424 -1.5001  1.9163
 8768TIP3   OH247718   0.866   0.064  15.683  0.7971 -0.1126 -0.2635
 8768TIP3    H147719   0.800   0.018  15.735  0.8588 -0.3239 -0.3704
 8768TIP3    H247720   0.837   0.155  15.682  1.5017  0.1642  1.2654
 8769TIP3   OH247721   6.648   6.179   4.422  0.4584 -0.5599  0.3637
 8769TIP3    H147722   6.678   6.219   4.504  1.0562  1.9748 -0.9833
 8769TIP3    H247723   6.726   6.174   4.368 -0.2399 -0.4724 -0.6854
 8770TIP3   OH247724   1.506   0.381   3.587 -0.2348 -0.1075  0.5019
 8770TIP3    H147725   1.517   0.450   3.653 -0.1220 -0.1829  0.5618
 8770TIP3    H247726   1.460   0.425   3.515  0.3393  0.1822  0.3035
 8771TIP3   OH247727   4.756   3.362  11.907 -0.3320  0.0828  0.1884
 8771TIP3    H147728   4.666   3.364  11.938 -0.3909 -0.5387  0.0620
 8771TIP3    H247729   4.786   3.453  11.916 -0.8779  0.2399  0.4866
 8772TIP3   OH247730   2.565   1.753   3.137  0.1171 -0.3997  0.1159
 8772TIP3    H147731   2.504   1.805   3.085  1.9831  1.7360 -0.1269
 8772TIP3    H247732   2.619   1.707   3.072 -0.4178 -1.3040  0.2992
 8773TIP3   OH247733   5.929   2.976  14.107 -0.5960 -0.1390 -0.2225
 8773TIP3    H147734   5.925   3.069  14.127 -0.2573 -0.0473 -0.5883
 8773TIP3    H247735   5.937   2.934  14.193  0.8336  0.2531 -0.1490
 8774TIP3   OH247736   4.155   6.459   3.074  0.4443 -0.5720  0.2275
 8774TIP3    H147737   4.221   6.466   3.143  0.5834 -1.7716  0.2500
 8774TIP3    H247738   4.190   6.511   3.002  1.0494 -0.5736  0.5098
 8775TIP3   OH247739   3.373   5.860  15.546 -0.5554 -0.4850 -0.0219
 8775TIP3    H147740   3.424   5.922  15.598 -0.5093 -0.2978 -0.2867
 8775TIP3    H247741   3.437   5.797  15.514 -0.7435 -1.2635  1.0739
 8776TIP3   OH247742   0.433   1.191   0.939  0.0411  0.5186 -0.2134
 8776TIP3    H147743   0.402   1.162   1.025  1.3882 -2.4671 -0.6097
 8776TIP3    H247744   0.481   1.272   0.957 -0.3176  0.3372  1.7453
 8777TIP3   OH247745   6.153   2.245  12.005 -0.1502 -0.0525  0.0765
 8777TIP3    H147746   6.064   2.236  11.971 -0.1900  1.6843 -0.3629
 8777TIP3    H247747   6.166   2.339  12.014  1.7804 -0.2543 -0.2303
 8778TIP3   OH247748   6.338   1.010   4.072  0.4976 -0.2092  0.6628
 8778TIP3    H147749   6.332   1.104   4.059 -2.3329 -0.4714 -0.8413
 8778TIP3    H247750   6.431   0.991   4.070  1.1060  2.4692  0.2666
 8779TIP3   OH247751   6.719   1.370  10.413 -0.2572 -0.4040 -0.1583
 8779TIP3    H147752   6.811   1.354  10.390 -0.1088  1.5736 -1.1026
 8779TIP3    H247753   6.675   1.287  10.392  1.0919 -0.9814 -0.8624
 8780TIP3   OH247754   2.987   3.197  17.373  0.0250 -0.4580 -0.5316
 8780TIP3    H147755   3.070   3.229  17.408 -1.0104  2.6770 -0.5917
 8780TIP3    H247756   2.936   3.173  17.451 -0.0966  0.7103 -0.2187
 8781TIP3   OH247757   2.039   2.729   5.500  0.1456 -0.1699 -0.2526
 8781TIP3    H147758   2.122   2.683   5.490  0.5425  0.2798  0.8704
 8781TIP3    H247759   1.987   2.673   5.557  0.5281  0.5945  0.8933
 8782TIP3   OH247760   1.733   5.357   4.492  0.4475 -0.3015 -0.2294
 8782TIP3    H147761   1.791   5.359   4.416  0.4730 -0.3209 -0.2105
 8782TIP3    H247762   1.786   5.389   4.565  0.2116  0.4073 -0.3611
 8783TIP3   OH247763   2.285   3.532   5.470  0.5847  0.5932 -0.2284
 8783TIP3    H147764   2.344   3.608   5.471  0.2615  0.8533 -0.3691
 8783TIP3    H247765   2.236   3.542   5.388 -0.5124  1.0573  0.4630
 8784TIP3   OH247766   2.251   2.134  17.224  0.3533  0.1387  0.2177
 8784TIP3    H147767   2.261   2.229  17.228  1.4735  0.0104  0.6320
 8784TIP3    H247768   2.336   2.101  17.195 -0.4211 -0.6554 -1.3102
 8785TIP3   OH247769   4.233   4.168   0.569 -0.8079 -0.7256 -0.1016
 8785TIP3    H147770   4.272   4.222   0.638 -1.2810  1.5952 -1.5315
 8785TIP3    H247771   4.139   4.168   0.589 -0.9102 -0.2852 -0.5582
 8786TIP3   OH247772   3.328   5.768  11.052  0.9027  0.1390  0.1660
 8786TIP3    H147773   3.385   5.702  11.092 -1.2840 -0.9618  1.7027
 8786TIP3    H247774   3.319   5.740  10.961  2.1358 -0.0954  0.0917
 8787TIP3   OH247775   2.882   4.440  14.303  0.0700 -0.2083 -0.5951
 8787TIP3    H147776   2.950   4.412  14.365 -0.3555 -1.5551 -0.7023
 8787TIP3    H247777   2.803   4.393  14.331 -1.0997  2.0443  0.1016
 8788TIP3   OH247778   1.255   1.422  11.350  0.0165  0.4037  0.6328
 8788TIP3    H147779   1.301   1.357  11.402  0.0379 -0.9966 -1.0429
 8788TIP3    H247780   1.185   1.373  11.307  0.9321  1.1284 -1.8452
 8789TIP3   OH247781   6.099   2.402   0.617 -0.0883 -0.2703 -0.3961
 8789TIP3    H147782   6.190   2.384   0.593  0.4328  0.6133  0.8075
 8789TIP3    H247783   6.065   2.453   0.543  0.7663  0.4198 -0.3356
 8790TIP3   OH247784   1.868   0.791  15.094 -0.6145  0.9911 -0.7024
 8790TIP3    H147785   1.856   0.876  15.137  3.4870 -0.2971  3.8285
 8790TIP3    H247786   1.931   0.808  15.024 -0.4370  1.8255 -0.3547
 8791TIP3   OH247787   1.232   4.358   5.760 -0.0638  0.0809 -0.0264
 8791TIP3    H147788   1.315   4.371   5.805 -0.4143  0.3175  0.5655
 8791TIP3    H247789   1.204   4.447   5.736  0.6868 -0.1189 -1.7827
 8792TIP3   OH247790   4.179   2.866   5.997  0.1056  0.3743 -0.5166
 8792TIP3    H147791   4.091   2.891   5.968 -0.0684  1.4734  0.8508
 8792TIP3    H247792   4.215   2.816   5.923 -2.9212 -3.2211  0.1305
 8793TIP3   OH247793   3.935   2.874  15.420  0.0423  0.1793 -0.1876
 8793TIP3    H147794   4.029   2.854  15.424  0.0645  0.2912 -0.1184
 8793TIP3    H247795   3.915   2.877  15.327 -0.0590 -0.5999 -0.1941
 8794TIP3   OH247796   4.384   0.137  12.531 -0.7338  0.3262  0.2266
 8794TIP3    H147797   4.419   0.106  12.615  1.2785  1.1689 -0.2381
 8794TIP3    H247798   4.458   0.181  12.489 -2.0325  1.0104 -1.4664
 8795TIP3   OH247799   2.187   4.229  13.332 -0.0100  0.5862 -0.8794
 8795TIP3    H147800   2.142   4.146  13.348  1.4588 -0.2095 -0.6073
 8795TIP3    H247801   2.264   4.225  13.388 -0.2065  2.4176 -0.4303
 8796TIP3   OH247802   5.171   4.859   2.502  0.5193  0.1267  0.2927
 8796TIP3    H147803   5.228   4.803   2.554  1.3391  1.4812  0.9085
 8796TIP3    H247804   5.224   4.936   2.482 -0.2019  0.2152 -1.4669
 8797TIP3   OH247805   4.723   2.737   5.714 -0.1831  0.1919 -0.1255
 8797TIP3    H147806   4.731   2.785   5.631 -1.7548  0.8079  0.0450
 8797TIP3    H247807   4.813   2.720   5.740  0.3652 -0.5182 -2.2446
 8798TIP3   OH247808   3.374   4.675  12.550 -0.3279  0.0162 -0.2488
 8798TIP3    H147809   3.312   4.740  12.518 -0.2391 -1.0974 -2.9219
 8798TIP3    H247810   3.438   4.726  12.600 -1.6898  1.5878 -0.0336
 8799TIP3   OH247811   6.409   4.087  14.092  0.0822  0.4490 -0.1982
 8799TIP3    H147812   6.361   4.110  14.013  0.0251  0.4579 -0.1614
 8799TIP3    H247813   6.344   4.046  14.149  0.6883 -2.1262 -1.2329
 8800TIP3   OH247814   3.718   2.698   2.756 -0.4770 -0.2482  0.2894
 8800TIP3    H147815   3.666   2.622   2.728  1.9523 -1.2751 -1.7948
 8800TIP3    H247816   3.732   2.749   2.676  0.7011  0.6403  1.0288
 8801TIP3   OH247817   4.179   5.355  13.033 -0.1016 -0.2199 -0.2430
 8801TIP3    H147818   4.195   5.281  13.091  2.4575  0.5867  0.2099
 8801TIP3    H247819   4.222   5.429  13.075 -0.5872  1.0391 -1.8111
 8802TIP3   OH247820   3.615   0.068   0.160  0.6754 -0.4895 -0.7648
 8802TIP3    H147821   3.589  -0.008   0.108  0.1930  0.0412 -1.3095
 8802TIP3    H247822   3.708   0.054   0.179  0.8265 -0.7580 -1.6616
 8803TIP3   OH247823   6.684   3.983  17.238 -0.1407  0.1416 -0.3609
 8803TIP3    H147824   6.627   3.924  17.286 -0.2653  0.3879 -0.2062
 8803TIP3    H247825   6.761   3.993  17.294  0.3230 -0.6577 -0.8292
 8804TIP3   OH247826   5.904   0.875  15.369 -0.2629  0.1509  0.1810
 8804TIP3    H147827   5.872   0.889  15.458 -0.4639  0.5106  0.0509
 8804TIP3    H247828   5.848   0.929  15.314  0.4309  0.6420 -0.0676
 8805TIP3   OH247829   0.336   3.441   5.866 -0.2163  0.1936  0.6958
 8805TIP3    H147830   0.319   3.367   5.807 -1.6832  0.3261  0.9122
 8805TIP3    H247831   0.364   3.401   5.948 -0.1064 -0.0842  0.5230
 8806TIP3   OH247832   1.834   2.458  16.375  0.2103 -0.0460 -0.2652
 8806TIP3    H147833   1.836   2.393  16.305  0.6567 -1.3457  0.9148
 8806TIP3    H247834   1.910   2.438  16.429 -1.5015 -0.7155  2.0280
 8807TIP3   OH247835   0.028   3.062  13.532 -0.0386 -0.4927 -0.3758
 8807TIP3    H147836  -0.058   3.054  13.491 -0.3293  1.6233 -0.2834
 8807TIP3    H247837   0.018   3.018  13.617 -1.2886  0.4246 -0.0177
 8808TIP3   OH247838   0.186   5.117   2.408  0.2895 -0.0245 -0.1908
 8808TIP3    H147839   0.249   5.176   2.447  0.1468  0.1654 -0.2460
 8808TIP3    H247840   0.125   5.174   2.361 -0.7901 -0.0846  1.0926
 8809TIP3   OH247841   3.650   0.863   2.787  0.3403 -0.5242 -0.1527
 8809TIP3    H147842   3.694   0.779   2.803  1.9967  0.3342  0.0968
 8809TIP3    H247843   3.626   0.860   2.695  2.9421 -0.2026 -0.9211
 8810TIP3   OH247844   5.318   4.475   4.591 -0.2999  0.9132 -0.2332
 8810TIP3    H147845   5.387   4.431   4.539 -1.7737 -1.3523 -0.4383
 8810TIP3    H247846   5.352   4.475   4.680 -0.4090 -1.1962 -0.1355
 8811TIP3   OH247847   6.597   4.805   2.044 -0.4228  0.4641 -0.3634
 8811TIP3    H147848   6.657   4.775   1.975  0.4275 -0.2307  0.6474
 8811TIP3    H247849   6.559   4.885   2.009  1.9519  1.5618 -0.6208
 8812TIP3   OH247850   1.755   1.218  10.461  0.2352 -0.1083 -0.5232
 8812TIP3    H147851   1.724   1.305  10.434  0.9975 -0.0925 -1.3673
 8812TIP3    H247852   1.753   1.165  10.382 -0.8255 -1.0575  0.1167
 8813TIP3   OH247853   4.751   2.133   2.205  0.9742  0.0136 -0.9166
 8813TIP3    H147854   4.708   2.173   2.129 -1.1903 -0.0462  0.2168
 8813TIP3    H247855   4.785   2.208   2.255  1.4001  0.1181 -1.3563
 8814TIP3   OH247856   0.068   4.019   1.841  0.5532 -0.0130 -0.3925
 8814TIP3    H147857   0.144   3.968   1.814  1.2468  1.2200 -0.8484
 8814TIP3    H247858   0.102   4.106   1.860 -0.6433  0.3852  0.0632
 8815TIP3   OH247859   1.811   1.343  16.278  0.1029 -0.0558 -0.1650
 8815TIP3    H147860   1.778   1.389  16.355  0.3101 -1.0995  0.5695
 8815TIP3    H247861   1.788   1.399  16.204 -0.5127  0.7375  0.6169
 8816TIP3   OH247862   6.473   4.757   0.063 -0.0972 -0.3657  0.2225
 8816TIP3    H147863   6.378   4.754   0.077 -0.1928 -1.2862 -0.5367
 8816TIP3    H247864   6.504   4.671   0.093  0.1306 -1.0928 -1.9509
 8817TIP3   OH247865   2.032   4.993   4.333 -0.3526 -0.5163  0.3732
 8817TIP3    H147866   1.955   4.940   4.351 -0.2550 -0.9598 -0.4733
 8817TIP3    H247867   2.106   4.940   4.362 -0.3701  0.0595  1.5269
 8818TIP3   OH247868   1.252   5.837   0.126  0.3538 -0.3453  0.1725
 8818TIP3    H147869   1.207   5.895   0.064  2.3405  0.6595 -0.4090
 8818TIP3    H247870   1.256   5.752   0.082  0.7998  0.0899 -0.6488
 8819TIP3   OH247871   5.951   5.112   2.570 -0.3306  0.2276  0.5065
 8819TIP3    H147872   6.012   5.086   2.502 -1.0556  0.3710 -0.2140
 8819TIP3    H247873   5.902   5.032   2.590 -0.3338  0.2613  0.6350
 8820TIP3   OH247874   6.618   3.073   1.091 -0.0059  0.2838 -0.0828
 8820TIP3    H147875   6.610   3.080   1.186  0.5054 -2.4912  0.2613
 8820TIP3    H247876   6.539   3.025   1.064 -0.2109  1.1601 -1.1036
 8821TIP3   OH247877   1.178   5.804  13.213 -0.1203  0.4083  0.2911
 8821TIP3    H147878   1.132   5.736  13.163  0.6031  0.4003 -0.3892
 8821TIP3    H247879   1.117   5.878  13.214 -0.4837  0.1181  0.1113
 8822TIP3   OH247880   0.460   2.470  11.072 -0.4945 -0.2052 -0.2241
 8822TIP3    H147881   0.398   2.418  11.123 -0.7987  0.9622  0.6391
 8822TIP3    H247882   0.425   2.467  10.983 -1.2095 -0.4345  0.0559
 8823TIP3   OH247883   1.894   0.419   4.849  0.0366 -0.0951 -0.2041
 8823TIP3    H147884   1.946   0.413   4.929  0.3590  0.2189 -0.3836
 8823TIP3    H247885   1.959   0.426   4.779 -0.2440  1.2837 -0.3555
 8824TIP3   OH247886   3.737   5.456  11.777 -0.7770 -0.1816 -0.3710
 8824TIP3    H147887   3.678   5.398  11.729 -1.0395  1.7021 -2.4793
 8824TIP3    H247888   3.759   5.525  11.715  1.5648  0.6285  1.2083
 8825TIP3   OH247889   0.997   2.943  15.112  0.2248 -0.2556  0.2278
 8825TIP3    H147890   0.954   2.951  15.197  2.2973 -0.3259  1.3507
 8825TIP3    H247891   0.930   2.968  15.049 -1.1834  0.4666  1.9240
 8826TIP3   OH247892   6.085   5.359  14.803  0.0964  0.5844 -0.5773
 8826TIP3    H147893   6.098   5.417  14.728  1.1271  2.0359  0.6613
 8826TIP3    H247894   6.002   5.387  14.841  0.4931  1.1457 -0.1010
 8827TIP3   OH247895   4.354   4.946  16.833 -0.3335  0.8562 -0.0732
 8827TIP3    H147896   4.302   4.876  16.874  1.5481 -0.9989 -0.7099
 8827TIP3    H247897   4.313   4.958  16.747  0.2328 -0.6244 -0.5916
 8828TIP3   OH247898   5.804   6.566   2.551 -0.3443 -0.0554  0.1733
 8828TIP3    H147899   5.836   6.517   2.476  0.1813 -0.5985  0.7434
 8828TIP3    H247900   5.851   6.650   2.546 -0.8194  0.1813 -0.4783
 8829TIP3   OH247901   0.619   6.419  16.325 -0.1001  0.0770  0.2472
 8829TIP3    H147902   0.702   6.455  16.294 -0.7729  1.6897  0.2472
 8829TIP3    H247903   0.590   6.480  16.392 -1.3398 -0.4335  0.1997
 8830TIP3   OH247904   2.294   6.416  14.895  0.5010  0.6301 -0.4374
 8830TIP3    H147905   2.320   6.324  14.905 -0.6147  0.0842 -2.0892
 8830TIP3    H247906   2.219   6.427  14.953  2.1193  1.2255  1.6373
 8831TIP3   OH247907   4.668   4.618   4.408 -0.7414 -0.5030  0.4714
 8831TIP3    H147908   4.621   4.695   4.377  1.7431  0.2035 -1.8864
 8831TIP3    H247909   4.735   4.652   4.466 -0.2209 -0.9804  0.1564
 8832TIP3   OH247910   6.248   0.111  12.121  0.3599  0.4178 -0.2327
 8832TIP3    H147911   6.215   0.064  12.197 -0.1962  1.6924  0.3400
 8832TIP3    H247912   6.221   0.059  12.046  1.0746 -0.9485  0.4297
 8833TIP3   OH247913   3.100   5.961  14.906  0.5118  0.3955 -0.0051
 8833TIP3    H147914   3.050   6.043  14.904  0.8430  0.5827 -1.9609
 8833TIP3    H247915   3.034   5.892  14.913  0.0950  0.7248 -0.6473
 8834TIP3   OH247916   2.306   1.416   2.528  0.0209 -0.0577  0.4392
 8834TIP3    H147917   2.386   1.397   2.479 -0.2252  2.2017 -0.9723
 8834TIP3    H247918   2.238   1.366   2.484  0.4239 -1.0075  0.8710
 8835TIP3   OH247919   1.443   0.606   5.253 -0.1315 -0.3843  0.4953
 8835TIP3    H147920   1.468   0.669   5.186  1.6383 -1.2111  0.3269
 8835TIP3    H247921   1.414   0.529   5.203 -1.2348 -0.1224  0.7021
 8836TIP3   OH247922   6.459   5.599  16.490 -0.6571 -0.3108  0.2406
 8836TIP3    H147923   6.524   5.547  16.536 -0.6073 -0.3429  0.1361
 8836TIP3    H247924   6.374   5.566  16.521 -0.6458 -1.0285 -0.4333
 8837TIP3   OH247925   5.873   3.849  15.491 -0.1592  0.1940  0.3265
 8837TIP3    H147926   5.871   3.757  15.466 -0.4062 -0.9789  3.9958
 8837TIP3    H247927   5.966   3.869  15.505  0.0180  0.9601 -1.6121
 8838TIP3   OH247928   5.302   2.682  17.310  0.4007  0.1227 -0.4164
 8838TIP3    H147929   5.327   2.719  17.395  1.5138  3.1164 -1.9283
 8838TIP3    H247930   5.381   2.635  17.281  0.7412  0.8530 -0.6868
 8839TIP3   OH247931   1.930   4.149   1.436  0.5430 -0.3073  0.3371
 8839TIP3    H147932   1.923   4.244   1.449  1.5591  0.2359 -2.4333
 8839TIP3    H247933   1.889   4.134   1.351  1.2301 -2.2343  0.3011
 8840TIP3   OH247934   2.422   1.438   5.223  0.1918 -0.5336 -0.3126
 8840TIP3    H147935   2.385   1.407   5.141 -0.3393 -0.0060 -0.2853
 8840TIP3    H247936   2.362   1.507   5.251  1.2352  0.3982 -0.3009
 8841TIP3   OH247937   3.291   0.691   4.444  0.1469 -0.1372 -0.6941
 8841TIP3    H147938   3.329   0.689   4.532  0.2753 -1.2132 -0.7560
 8841TIP3    H247939   3.215   0.748   4.452  0.2300 -0.1191  0.0813
 8842TIP3   OH247940   3.330   2.578  13.873  0.2562  0.3533  0.2891
 8842TIP3    H147941   3.298   2.643  13.811  1.1312  0.6685  0.1515
 8842TIP3    H247942   3.252   2.550  13.921 -0.0309  2.0972  0.9117
 8843TIP3   OH247943   1.725   6.454   3.532 -0.2006 -0.1159  0.6462
 8843TIP3    H147944   1.677   6.406   3.465  1.2254 -1.1546  0.3122
 8843TIP3    H247945   1.695   6.544   3.523 -1.9362 -0.6735  0.3589
 8844TIP3   OH247946   0.005   1.713   2.191 -0.1431  0.6306 -0.3371
 8844TIP3    H147947   0.018   1.686   2.100 -0.6918  0.9928 -0.5253
 8844TIP3    H247948  -0.003   1.630   2.239  0.4267  0.4347 -0.5741
 8845TIP3   OH247949   3.818   5.142  16.142 -0.3933 -0.1390 -0.4724
 8845TIP3    H147950   3.832   5.207  16.210  1.5853 -1.0572  0.0864
 8845TIP3    H247951   3.820   5.192  16.060 -1.6574  0.8236  0.0679
 8846TIP3   OH247952   2.078   3.606  16.735 -0.6744  0.0698  0.1493
 8846TIP3    H147953   2.088   3.627  16.828 -1.1444  0.7140  0.0627
 8846TIP3    H247954   1.988   3.632  16.714  0.0756  1.9554 -0.9901
 8847TIP3   OH247955   2.673   2.442   1.032  0.0268  0.1199  0.1404
 8847TIP3    H147956   2.596   2.406   1.077  1.1842 -3.0731 -0.2238
 8847TIP3    H247957   2.687   2.383   0.958  2.3666  1.0821 -0.2543
 8848TIP3   OH247958   4.238   5.019   3.915  0.3301 -0.0680  0.2449
 8848TIP3    H147959   4.301   5.022   3.843  1.3522 -0.7866  1.0781
 8848TIP3    H247960   4.171   4.957   3.885 -0.3196  1.1272 -0.8821
 8849TIP3   OH247961   1.472   1.935   2.449 -0.6959  0.3687 -0.1299
 8849TIP3    H147962   1.467   2.010   2.390  1.3165  0.0003 -0.8892
 8849TIP3    H247963   1.500   1.971   2.533  1.7550  0.4290 -0.8696
 8850TIP3   OH247964   0.270   5.582   1.238  0.0385 -0.0907 -0.3656
 8850TIP3    H147965   0.328   5.518   1.197 -0.5694  0.1803 -1.6833
 8850TIP3    H247966   0.253   5.546   1.325  0.6450 -1.1300 -0.6642
 8851TIP3   OH247967   0.315   6.337   0.979 -0.0891  0.0579  0.4332
 8851TIP3    H147968   0.393   6.351   1.032 -0.2128  1.4727  0.2868
 8851TIP3    H247969   0.276   6.425   0.971 -0.4934 -0.2614 -1.3382
 8852TIP3   OH247970   2.756   3.731  15.470  0.6204 -0.1568  0.2446
 8852TIP3    H147971   2.683   3.742  15.408  1.5566 -1.7179 -1.2370
 8852TIP3    H247972   2.821   3.794  15.441  0.1008  0.8455  1.2189
 8853TIP3   OH247973   6.351   0.536  13.342  0.3831 -0.5619 -0.4951
 8853TIP3    H147974   6.288   0.469  13.314  0.3300 -0.7082 -0.0253
 8853TIP3    H247975   6.389   0.502  13.423  1.4231 -0.7021 -1.0120
 8854TIP3   OH247976   1.278   5.211   2.620  0.1875 -0.5419 -0.3783
 8854TIP3    H147977   1.236   5.175   2.542 -0.0060  2.2014 -1.6719
 8854TIP3    H247978   1.371   5.215   2.597  0.1649  0.0264 -0.3936
 8855TIP3   OH247979   1.033   2.973  14.389  0.4924 -0.1003 -0.2346
 8855TIP3    H147980   1.103   2.916  14.357  1.1332 -0.1448  1.1684
 8855TIP3    H247981   1.040   3.052  14.335  1.9186  0.0670  0.1338
 8856TIP3   OH247982   0.870   1.994  13.723 -0.1695  0.2795  0.3320
 8856TIP3    H147983   0.844   2.083  13.742  0.7159  0.4431  0.8659
 8856TIP3    H247984   0.842   1.943  13.799 -1.0640  0.0100 -0.1633
 8857TIP3   OH247985   1.213   0.443   4.188  0.3058  0.1201  0.3628
 8857TIP3    H147986   1.159   0.369   4.217 -0.9861  0.6905 -0.4969
 8857TIP3    H247987   1.150   0.509   4.159  1.4662  0.6661 -1.0545
 8858TIP3   OH247988   3.130   6.656  11.138 -0.0964 -0.0481 -0.0283
 8858TIP3    H147989   3.170   6.736  11.171  0.2613 -0.8025  1.4446
 8858TIP3    H247990   3.194   6.619  11.077  0.7495 -0.3833  1.0425
 8859TIP3   OH247991   6.103   4.875  17.397  0.3326 -0.2693  0.3771
 8859TIP3    H147992   6.175   4.899  17.339  1.0664 -1.0627  0.9256
 8859TIP3    H247993   6.104   4.779  17.397 -2.1325 -0.3624 -1.3089
 8860TIP3   OH247994   5.365   4.682  17.022  0.6168  0.6716 -0.1683
 8860TIP3    H147995   5.397   4.644  17.104  1.2032  0.9365 -0.2691
 8860TIP3    H247996   5.295   4.741  17.049  2.4933  2.7556  0.4510
 8861TIP3   OH247997   6.680   3.420   0.840  0.1007  0.2770 -0.3140
 8861TIP3    H147998   6.624   3.495   0.857  1.3606  1.0206  0.7307
 8861TIP3    H247999   6.623   3.344   0.852 -0.4778  0.9717  1.6850
 8862TIP3   OH248000   6.390   6.623   4.536  0.7253  0.7041  0.0532
 8862TIP3    H148001   6.400   6.718   4.538 -0.8700  0.9056  2.1124
 8862TIP3    H248002   6.469   6.589   4.577  1.6040  1.0637 -1.2807
 8863TIP3   OH248003   1.763   1.845   3.216  1.0080  0.7267 -0.2303
 8863TIP3    H148004   1.700   1.773   3.219  0.2823  1.3673  0.0382
 8863TIP3    H248005   1.790   1.857   3.307  1.1745  0.7661 -0.2839
 8864TIP3   OH248006   3.593   1.231  15.957  0.4405 -0.6182  0.2989
 8864TIP3    H148007   3.504   1.242  15.991  1.1359  0.5285  1.8556
 8864TIP3    H248008   3.627   1.154  16.003  1.0333  0.3381  1.5194
 8865TIP3   OH248009   6.128   0.881   5.852  0.0764  0.3381  0.0988
 8865TIP3    H148010   6.171   0.797   5.838  0.0964  0.2305  0.8143
 8865TIP3    H248011   6.065   0.866   5.922 -0.6705  0.6609 -0.4750
 8866TIP3   OH248012   0.085   4.971  16.264  0.0955  0.0010  0.2229
 8866TIP3    H148013   0.061   5.050  16.311  0.7020 -0.7194  1.7847
 8866TIP3    H248014   0.016   4.960  16.198 -0.8485  0.9418  1.0369
 8867TIP3   OH248015   0.736   0.408  16.196 -0.0580  0.2775 -0.2602
 8867TIP3    H148016   0.695   0.480  16.149 -1.2648  0.3199  0.8089
 8867TIP3    H248017   0.739   0.437  16.288 -0.6157 -1.0307  0.1964
 8868TIP3   OH248018   3.831   0.792   4.813 -0.0028 -0.2736  0.3527
 8868TIP3    H148019   3.873   0.718   4.856  0.6240  0.6955  1.4957
 8868TIP3    H248020   3.891   0.865   4.827 -0.8151  0.5611 -0.3379
 8869TIP3   OH248021   0.434   6.484  14.770 -0.3600 -0.6464  0.0807
 8869TIP3    H148022   0.438   6.547  14.698  1.6187 -0.2038  0.5358
 8869TIP3    H248023   0.344   6.451  14.766 -1.0424  1.1367 -1.0633
 8870TIP3   OH248024   5.012   1.003  14.159 -0.0458 -0.0531 -0.5196
 8870TIP3    H148025   5.004   1.074  14.223 -2.6571 -1.0034  0.3298
 8870TIP3    H248026   5.030   0.925  14.211 -1.0854 -0.6474 -1.0187
 8871TIP3   OH248027   6.692   4.610  13.625 -0.7092  0.0758 -0.6438
 8871TIP3    H148028   6.626   4.659  13.577 -0.4961  0.8365 -0.1717
 8871TIP3    H248029   6.773   4.659  13.612 -0.5660  0.0588  0.1387
 8872TIP3   OH248030   4.617   6.145  13.386  0.0696  0.0657 -0.8312
 8872TIP3    H148031   4.684   6.128  13.319  1.4039  1.1642  0.1525
 8872TIP3    H248032   4.644   6.228  13.425 -0.7481 -0.4760  0.9644
 8873TIP3   OH248033   3.653   0.967   5.539 -0.3434  0.3229  0.2413
 8873TIP3    H148034   3.742   1.004   5.539 -0.1477 -0.1038  1.3048
 8873TIP3    H248035   3.663   0.882   5.581 -1.0051 -0.4274 -1.0542
 8874TIP3   OH248036   0.024   0.311   2.942 -0.1816 -0.0150 -0.2246
 8874TIP3    H148037   0.067   0.380   2.891  0.7927 -0.8841 -0.6226
 8874TIP3    H248038   0.063   0.319   3.029  2.4969 -2.1356 -1.1029
 8875TIP3   OH248039   0.334   0.493  12.103 -0.0322  0.0641  0.5118
 8875TIP3    H148040   0.321   0.470  12.011 -1.1974  1.7291  0.2218
 8875TIP3    H248041   0.371   0.413  12.142  0.5327 -0.6771 -1.3783
 8876TIP3   OH248042   0.745   6.697  17.130  0.0688 -0.2112  0.1485
 8876TIP3    H148043   0.655   6.707  17.160  0.2489  0.4833  0.4889
 8876TIP3    H248044   0.794   6.674  17.209  0.1079 -1.1085 -0.1334
 8877TIP3   OH248045   6.682   2.010  16.040 -0.2318 -0.6698 -0.2969
 8877TIP3    H148046   6.678   1.929  15.988 -1.3360 -0.8023 -0.0166
 8877TIP3    H248047   6.597   2.051  16.027  0.1947  0.2778 -0.1483
 8878TIP3   OH248048   6.159   0.002  13.911  0.7773 -0.5440 -0.0433
 8878TIP3    H148049   6.088   0.019  13.974  1.8486 -0.7817  1.2818
 8878TIP3    H248050   6.228   0.063  13.935  0.7021  0.3365 -1.9286
 8879TIP3   OH248051   4.230   3.224  13.945  0.0720  0.1937 -0.2151
 8879TIP3    H148052   4.202   3.284  14.015  0.2993 -0.4909  0.4775
 8879TIP3    H248053   4.284   3.160  13.990 -0.3886 -0.6881 -0.9025
 8880TIP3   OH248054   2.411   1.499   4.939 -0.1957 -0.1614 -0.0437
 8880TIP3    H148055   2.362   1.417   4.939 -0.8120  0.1760  1.3667
 8880TIP3    H248056   2.380   1.546   4.861 -0.9685 -0.6211 -0.0170
 8881TIP3   OH248057   2.901   2.290  14.157 -0.5702 -0.0102  0.3208
 8881TIP3    H148058   2.973   2.236  14.123 -1.7050 -1.3727  0.0155
 8881TIP3    H248059   2.861   2.238  14.226  0.9334  2.2259  3.1098
 8882TIP3   OH248060   5.160   4.713   4.013 -0.1701 -0.1355  0.0985
 8882TIP3    H148061   5.180   4.801   4.045  0.7020 -0.3387  0.1304
 8882TIP3    H248062   5.207   4.654   4.072 -0.3606 -0.6061 -0.2118
 8883TIP3   OH248063   4.872   2.795  14.042 -0.0155 -0.1053 -0.3330
 8883TIP3    H148064   4.815   2.868  14.063 -0.8412  0.2134 -3.2518
 8883TIP3    H248065   4.825   2.718  14.074  0.0994  0.4808  1.3112
 8884TIP3   OH248066   0.985   6.634   0.344 -0.0321  0.3141 -0.2985
 8884TIP3    H148067   0.983   6.584   0.263  2.8906 -2.0533  0.9029
 8884TIP3    H248068   1.061   6.691   0.336  0.6242 -0.3351  0.9018
 8885TIP3   OH248069   0.433   0.726  15.668  0.9459  0.5439  0.1170
 8885TIP3    H148070   0.489   0.777  15.727 -0.7768 -0.3059  2.6488
 8885TIP3    H248071   0.402   0.789  15.604  0.5854  2.2311  1.8705
 8886TIP3   OH248072   6.377   0.422   5.019 -0.1959 -0.0900  0.0596
 8886TIP3    H148073   6.454   0.448   5.068 -1.2151  0.2257  1.5445
 8886TIP3    H248074   6.391   0.459   4.932  0.9193  0.6965  0.5492
 8887TIP3   OH248075   4.522   5.177  16.058  0.6023 -0.3970 -0.2928
 8887TIP3    H148076   4.588   5.164  15.989  1.1396 -3.5790  0.6623
 8887TIP3    H248077   4.466   5.100  16.052 -0.4700  0.1610  1.6711
 8888TIP3   OH248078   2.887   5.310   1.745  0.2410  0.0957  0.1667
 8888TIP3    H148079   2.935   5.392   1.750  0.4920 -0.0955  0.9557
 8888TIP3    H248080   2.805   5.327   1.791  0.0705  0.0548 -0.1166
 8889TIP3   OH248081   1.976   0.575  15.276  0.5324 -0.0783  0.0790
 8889TIP3    H148082   1.975   0.486  15.310 -1.9561 -1.5232 -3.1997
 8889TIP3    H248083   1.894   0.614  15.308  0.7645  0.4177  0.0801
 8890TIP3   OH248084   6.338   0.603   0.485 -0.0989 -0.2439  0.3151
 8890TIP3    H148085   6.284   0.641   0.416  0.2947 -0.9296 -0.3867
 8890TIP3    H248086   6.332   0.665   0.558 -1.8300 -0.3128  0.2645
 8891TIP3   OH248087   3.245   1.206   4.743  0.0533  0.2885 -0.5942
 8891TIP3    H148088   3.162   1.199   4.791 -0.8285 -2.2002 -2.2344
 8891TIP3    H248089   3.308   1.156   4.795  0.1974  1.0709 -0.0048
 8892TIP3   OH248090   3.995   4.027   1.634  0.2835 -0.4438 -0.4634
 8892TIP3    H148091   4.042   3.996   1.711  1.1964 -1.5640 -1.4339
 8892TIP3    H248092   4.054   4.091   1.594  0.4573 -0.9249 -0.9967
 8893TIP3   OH248093   1.348   2.289   4.112  1.0059 -0.2310 -0.2888
 8893TIP3    H148094   1.423   2.236   4.085 -0.2814 -1.3577 -1.8250
 8893TIP3    H248095   1.294   2.230   4.164  1.2496  0.6362  0.9943
 8894TIP3   OH248096   0.871   0.530  12.348 -0.9772  0.3191 -0.4992
 8894TIP3    H148097   0.965   0.518  12.340 -0.8801  0.8298 -0.1388
 8894TIP3    H248098   0.861   0.610  12.399 -1.6053  0.2384 -0.4893
 8895TIP3   OH248099   0.275   0.359  15.416  0.3010  0.4456  0.1738
 8895TIP3    H148100   0.248   0.399  15.499  0.4377  1.2245 -0.1504
 8895TIP3    H248101   0.268   0.265  15.432  0.4432  0.5795  1.1094
 8896TIP3   OH248102   0.279   5.672   3.921  0.4322 -1.0308 -0.7949
 8896TIP3    H148103   0.320   5.758   3.909  1.8043 -1.1843  2.1108
 8896TIP3    H248104   0.186   5.691   3.933  0.5295 -0.1001 -1.3912
 8897TIP3   OH248105   2.747   2.914  16.400 -0.1218 -0.1306  0.2804
 8897TIP3    H148106   2.773   2.909  16.492 -1.1484  0.0273  0.5996
 8897TIP3    H248107   2.652   2.901  16.402 -0.0029 -1.3682 -0.8776
 8898TIP3   OH248108   2.170   6.691  17.213 -0.5188  0.8908 -0.3574
 8898TIP3    H148109   2.189   6.599  17.195  0.3485  1.5392 -3.4761
 8898TIP3    H248110   2.074   6.697  17.208 -0.5492  0.2220 -0.7369
 8899TIP3   OH248111   3.780   5.363   4.967  0.3089  0.6177  0.6558
 8899TIP3    H148112   3.730   5.376   4.887  0.4759 -0.3939  0.3713
 8899TIP3    H248113   3.825   5.446   4.981 -0.0205  0.9289 -0.0842
 8900TIP3   OH248114   3.232   1.104   4.484 -0.7759  0.0147 -0.0344
 8900TIP3    H148115   3.268   1.153   4.558 -0.2556 -0.8372  0.2928
 8900TIP3    H248116   3.141   1.088   4.508 -0.8993  0.6524 -0.0603
 8901TIP3   OH248117   3.201   2.363  13.068 -0.3146 -0.1074  0.2325
 8901TIP3    H148118   3.138   2.365  12.996 -1.6676 -0.0698  1.3697
 8901TIP3    H248119   3.167   2.426  13.132  0.5915 -0.4798  1.1173
 8902TIP3   OH248120   5.395   1.757  11.295  0.0169  0.3783 -0.4585
 8902TIP3    H148121   5.445   1.832  11.327  1.3778 -0.2436 -1.0368
 8902TIP3    H248122   5.322   1.795  11.246  0.0541  1.3123  0.1957
 8903TIP3   OH248123   4.442   1.470   0.920 -0.0089  0.0831  0.1442
 8903TIP3    H148124   4.407   1.411   0.854  2.1001 -1.0902 -0.0144
 8903TIP3    H248125   4.438   1.556   0.880  2.7939 -0.7795 -2.3716
 8904TIP3   OH248126   1.048   3.185  10.554  0.4967  0.1974  0.2627
 8904TIP3    H148127   0.962   3.152  10.581 -0.5044  1.3178 -1.4024
 8904TIP3    H248128   1.076   3.126  10.485  1.3904 -0.5307  1.2161
 8905TIP3   OH248129   5.809   1.862   0.774  0.8632 -0.8078 -0.1435
 8905TIP3    H148130   5.838   1.838   0.686  1.2515 -1.0654  0.0489
 8905TIP3    H248131   5.801   1.957   0.773 -0.7751 -0.9281 -0.9476
 8906TIP3   OH248132   1.157   1.924   3.123  0.5220 -0.1475 -0.1943
 8906TIP3    H148133   1.178   1.911   3.215  0.1656 -1.1743 -0.2461
 8906TIP3    H248134   1.164   2.019   3.110  0.8023 -0.0156  0.8235
 8907TIP3   OH248135   1.840   4.232  15.031 -0.6081 -0.3560  0.1129
 8907TIP3    H148136   1.759   4.247  15.081 -1.0344 -1.9460 -0.0367
 8907TIP3    H248137   1.881   4.157  15.074  0.8704  0.4860  0.2421
 8908TIP3   OH248138   0.745   4.438   4.547 -0.1840  0.5875  0.1055
 8908TIP3    H148139   0.649   4.447   4.541 -0.2411 -0.3931 -0.5616
 8908TIP3    H248140   0.765   4.359   4.498  1.0001  0.8654  0.1196
 8909TIP3   OH248141   1.774   0.458  13.232 -0.1625 -0.5313  0.6843
 8909TIP3    H148142   1.733   0.520  13.293 -0.0705  0.1230  0.1025
 8909TIP3    H248143   1.801   0.513  13.157  0.9613 -1.0902  0.6588
 8910TIP3   OH248144   3.429   2.885  16.884  0.0223  0.1300 -0.5689
 8910TIP3    H148145   3.492   2.957  16.888 -0.3611  0.4257  2.2070
 8910TIP3    H248146   3.475   2.816  16.836  1.7299  0.9958 -0.2580
 8911TIP3   OH248147   5.956   2.822  16.025  0.0993 -0.2623  0.5512
 8911TIP3    H148148   5.870   2.832  15.984  0.8293  1.9524 -0.6008
 8911TIP3    H248149   6.013   2.790  15.955  0.5561 -0.1568  0.8674
 8912TIP3   OH248150   2.287   4.224   1.666  0.1394  0.3721  0.1669
 8912TIP3    H148151   2.341   4.165   1.718  0.0913 -0.0307 -0.2222
 8912TIP3    H248152   2.197   4.198   1.686  0.0914  0.9653  0.7283
 8913TIP3   OH248153   2.517   5.958  10.501 -0.0835 -0.1802 -0.4744
 8913TIP3    H148154   2.439   5.941  10.449  0.3426  0.3335 -1.3045
 8913TIP3    H248155   2.488   6.018  10.570 -0.4369 -0.0481 -0.7370
 8914TIP3   OH248156   5.859   5.826   0.741 -0.5076  0.5034  0.5269
 8914TIP3    H148157   5.823   5.737   0.741 -0.5237  0.5101  0.4167
 8914TIP3    H248158   5.876   5.845   0.649  1.5831 -0.2285  0.7132
 8915TIP3   OH248159   3.823   6.601   3.613 -0.7373 -0.1676  0.0765
 8915TIP3    H148160   3.788   6.587   3.701 -0.1180  0.2324  0.3905
 8915TIP3    H248161   3.773   6.675   3.579 -0.9664 -0.3135  0.0920
 8916TIP3   OH248162   5.877   2.274  16.176  0.5881  0.9563  0.0528
 8916TIP3    H148163   5.828   2.261  16.257 -1.7268 -0.7932 -1.4904
 8916TIP3    H248164   5.938   2.200  16.173  0.4753  0.8613  0.0777
 8917TIP3   OH248165   5.572   5.194  13.920  0.1610  0.3579 -0.0952
 8917TIP3    H148166   5.590   5.257  13.850  0.3031  0.0863 -0.3018
 8917TIP3    H248167   5.522   5.244  13.985  0.8213  0.8570  0.0361
 8918TIP3   OH248168   4.514   5.303   2.670  0.6274  0.1937 -0.6868
 8918TIP3    H148169   4.566   5.261   2.738 -1.0357 -0.3822  0.2790
 8918TIP3    H248170   4.440   5.341   2.717  0.2771  1.1939 -1.9893
 8919TIP3   OH248171   3.963   2.931   1.516  0.7183  0.2683  0.2744
 8919TIP3    H148172   3.957   2.848   1.470  2.9974 -0.2323  0.7782
 8919TIP3    H248173   3.875   2.944   1.553 -0.3163 -0.7618 -1.6661
 8920TIP3   OH248174   4.464   0.561  14.575  0.3214 -0.2214 -0.7993
 8920TIP3    H148175   4.392   0.618  14.546  0.0446 -1.0685 -1.8554
 8920TIP3    H248176   4.521   0.619  14.626 -0.1083  0.9314 -1.5741
 8921TIP3   OH248177   1.669   0.618   2.677  0.1850 -0.2628 -0.1671
 8921TIP3    H148178   1.650   0.637   2.769 -1.6135 -0.8887 -0.3533
 8921TIP3    H248179   1.713   0.533   2.680  0.4813 -0.1018  0.1391
 8922TIP3   OH248180   0.493   5.769   1.848  0.2854  0.9069  0.6295
 8922TIP3    H148181   0.406   5.771   1.809  0.0467 -0.7079  1.0198
 8922TIP3    H248182   0.548   5.816   1.786 -0.3571 -0.3424 -0.9645
 8923TIP3   OH248183   2.115   6.216  13.132  0.2346  0.0274 -0.3020
 8923TIP3    H148184   2.025   6.207  13.099  0.5847 -2.8616 -0.7045
 8923TIP3    H248185   2.168   6.165  13.071  1.4211 -2.4869  2.5867
 8924TIP3   OH248186   0.076   2.880  15.219 -0.3921  0.3005 -0.1084
 8924TIP3    H148187   0.107   2.827  15.146 -0.6729 -0.5082  0.3462
 8924TIP3    H248188   0.146   2.945  15.233 -0.2784  0.3798 -0.9950
 8925TIP3   OH248189   6.227   1.953   4.839  0.0206 -0.0720 -0.7283
 8925TIP3    H148190   6.244   2.042   4.807  0.7836 -0.0556 -0.2977
 8925TIP3    H248191   6.297   1.936   4.902 -0.3978 -0.8017 -0.4465
 8926TIP3   OH248192   0.906   4.976  14.836 -0.4218  0.1529  0.3779
 8926TIP3    H148193   0.983   4.987  14.779 -0.2782 -2.4362 -0.0305
 8926TIP3    H248194   0.921   4.893  14.880 -3.2361 -0.7203 -0.1238
 8927TIP3   OH248195   1.430   4.155   4.510  0.6641  0.2121  0.2533
 8927TIP3    H148196   1.366   4.084   4.513 -0.4570  1.1508 -0.3750
 8927TIP3    H248197   1.420   4.201   4.593  1.2058 -0.1894  0.5497
 8928TIP3   OH248198   5.557   1.641  13.694 -0.2450 -0.1065 -0.8006
 8928TIP3    H148199   5.517   1.586  13.627 -0.4565 -1.3723  0.3156
 8928TIP3    H248200   5.580   1.580  13.764 -3.0733  1.4855  1.7677
 8929TIP3   OH248201   3.918   1.231   1.359 -0.2637 -0.1792 -0.0285
 8929TIP3    H148202   3.899   1.205   1.269 -3.4548  2.1774 -0.1940
 8929TIP3    H248203   3.883   1.160   1.413 -1.9060  0.1726 -0.5974
 8930TIP3   OH248204   6.149   1.248   0.336  0.3464  0.2281  0.4334
 8930TIP3    H148205   6.154   1.183   0.406  0.0352  0.0575  0.2985
 8930TIP3    H248206   6.217   1.312   0.358  3.3286 -2.0346 -1.3635
 8931TIP3   OH248207   4.133   4.647   3.312  0.1612 -0.5145  0.3758
 8931TIP3    H148208   4.194   4.574   3.323 -0.4873 -1.6473 -2.5525
 8931TIP3    H248209   4.052   4.606   3.282 -0.4466  1.3577 -0.7160
 8932TIP3   OH248210   5.633   2.135  12.272 -0.3376  0.2462  0.4581
 8932TIP3    H148211   5.647   2.212  12.217  4.7642  0.0299  0.9782
 8932TIP3    H248212   5.626   2.171  12.361 -1.9987  0.2600  0.3370
 8933TIP3   OH248213   3.297   2.208   5.505  0.0690 -0.0923  0.2153
 8933TIP3    H148214   3.384   2.227   5.540  0.1033  0.8704 -0.3671
 8933TIP3    H248215   3.242   2.279   5.537 -0.0903  0.3217 -0.9337
 8934TIP3   OH248216   0.256   4.152  13.324 -0.1902 -0.0089  0.3467
 8934TIP3    H148217   0.289   4.081  13.269 -2.6234 -0.5983 -0.5150
 8934TIP3    H248218   0.265   4.230  13.269  0.0477 -0.1083  0.2438
 8935TIP3   OH248219   5.777   5.962   2.566 -0.8086 -0.1165 -0.2461
 8935TIP3    H148220   5.757   5.966   2.472  0.3879 -1.1758 -0.5846
 8935TIP3    H248221   5.698   5.994   2.609 -1.9097 -0.9220 -1.5746
 8936TIP3   OH248222   0.382   0.676   2.653  0.0732  0.0517  0.2931
 8936TIP3    H148223   0.413   0.727   2.728 -2.0637  1.4272  0.3294
 8936TIP3    H248224   0.461   0.657   2.603  1.2133  1.6996  1.3368
 8937TIP3   OH248225   1.593   1.499   2.428 -0.0039  0.1952 -0.0161
 8937TIP3    H148226   1.654   1.572   2.415 -1.3002  1.1140 -1.2149
 8937TIP3    H248227   1.521   1.536   2.479 -0.7270 -0.1971 -0.7342
 8938TIP3   OH248228   4.101   5.357  12.742 -0.1824  0.5156 -0.3165
 8938TIP3    H148229   4.055   5.427  12.787 -0.2909 -1.1723  2.4299
 8938TIP3    H248230   4.031   5.301  12.707 -0.2654 -0.6609  1.6022
 8939TIP3   OH248231   3.849   4.148   4.132 -0.2366 -0.2047 -0.0260
 8939TIP3    H148232   3.910   4.126   4.062  0.0066 -0.3002  0.2158
 8939TIP3    H248233   3.799   4.223   4.097 -1.0570 -1.1024 -0.8480
 8940TIP3   OH248234   4.185   1.334   0.843 -0.4743 -0.0123  0.3402
 8940TIP3    H148235   4.090   1.342   0.846 -0.3504  1.8255  0.5124
 8940TIP3    H248236   4.205   1.308   0.753 -1.1422 -0.9099  0.4376
 8941TIP3   OH248237   1.434   0.797  16.237 -0.3658  0.1504 -0.5101
 8941TIP3    H148238   1.351   0.821  16.196 -1.1766 -0.8450  0.4840
 8941TIP3    H248239   1.420   0.809  16.331 -0.0505 -1.8246 -0.1557
 8942TIP3   OH248240   4.550   6.169   0.099  0.3764 -0.0880 -0.4773
 8942TIP3    H148241   4.494   6.122   0.037 -0.4759  1.1889 -0.7090
 8942TIP3    H248242   4.511   6.151   0.184  0.0995  0.1281 -0.5567
 8943TIP3   OH248243   6.315   6.567  16.517 -0.1120 -0.1850 -0.2175
 8943TIP3    H148244   6.355   6.492  16.472 -1.7594 -0.6630 -0.9808
 8943TIP3    H248245   6.318   6.638  16.453 -0.3701 -0.1932 -0.2419
 8944TIP3   OH248246   0.252   5.612   5.543 -0.0252 -0.0547 -0.1583
 8944TIP3    H148247   0.311   5.683   5.517  0.5031 -0.9148 -1.4172
 8944TIP3    H248248   0.307   5.554   5.596 -0.3865  0.3174  0.6434
 8945TIP3   OH248249   4.514   1.662   1.500 -0.0352 -0.2226 -0.1312
 8945TIP3    H148250   4.469   1.661   1.416 -0.8824  0.7987  0.2903
 8945TIP3    H248251   4.594   1.710   1.484  0.6764 -1.5486 -0.7493
 8946TIP3   OH248252   3.448   4.690  16.091 -0.3241 -0.0696 -0.2603
 8946TIP3    H148253   3.414   4.684  16.180  1.3313  0.5933  0.4633
 8946TIP3    H248254   3.509   4.617  16.083  0.0509  0.2672 -0.5885
 8947TIP3   OH248255   1.893   1.641  15.862  0.2517  0.0055  0.0416
 8947TIP3    H148256   1.983   1.660  15.891  0.4128 -0.1743 -0.3269
 8947TIP3    H248257   1.874   1.710  15.798 -0.5737  1.1625  1.4824
 8948TIP3   OH248258   1.638   1.679  12.920 -0.4114  0.0231  0.3759
 8948TIP3    H148259   1.705   1.744  12.942 -1.0769  0.2873  1.6649
 8948TIP3    H248260   1.658   1.656  12.829  0.9029  0.7269  0.4484
 8949TIP3   OH248261   1.828   4.040   1.197  0.2716 -0.4099 -0.2169
 8949TIP3    H148262   1.810   3.949   1.174 -0.5079 -0.3513  0.1250
 8949TIP3    H248263   1.812   4.089   1.115  2.2410 -0.7366 -0.8465
 8950TIP3   OH248264   5.090   1.482   2.532  0.2795 -0.0085 -0.5046
 8950TIP3    H148265   5.038   1.469   2.453 -0.1173 -3.6972  0.1640
 8950TIP3    H248266   5.175   1.443   2.512  0.2210 -0.8728  0.8012
 8951TIP3   OH248267   4.143   6.281  17.089 -0.3166  0.1369 -0.4086
 8951TIP3    H148268   4.158   6.191  17.059  0.5678 -0.2116  0.9525
 8951TIP3    H248269   4.156   6.335  17.011  1.2548 -0.7645 -0.8147
 8952TIP3   OH248270   1.738   2.255  17.106 -0.2142 -0.1169 -0.5707
 8952TIP3    H148271   1.751   2.201  17.184  1.9918 -0.4344 -1.0739
 8952TIP3    H248272   1.776   2.204  17.035 -1.3410  0.5758 -1.7030
 8953TIP3   OH248273   0.763   5.003  16.931 -0.8597 -0.0084  0.1299
 8953TIP3    H148274   0.788   4.978  16.842 -2.2254 -1.6092  0.1330
 8953TIP3    H248275   0.669   5.020  16.925 -1.0276 -0.4436  1.3097
 8954TIP3   OH248276   3.979   3.418   1.637  0.2787 -0.6739 -0.2274
 8954TIP3    H148277   4.050   3.399   1.699  0.1297  1.1238  0.5484
 8954TIP3    H248278   4.022   3.468   1.567 -0.2597  0.8791  0.5025
 8955TIP3   OH248279   2.541   2.260   0.458  0.4308 -0.5889  0.1469
 8955TIP3    H148280   2.572   2.284   0.370 -0.8398 -1.0046 -0.4336
 8955TIP3    H248281   2.534   2.165   0.455 -0.1556 -0.5605  0.5050
 8956TIP3   OH248282   0.093   3.129  15.025 -0.2391  0.3192  0.2641
 8956TIP3    H148283   0.035   3.057  15.000 -0.2498  0.0883  0.9269
 8956TIP3    H248284   0.104   3.180  14.945 -0.7772 -0.0403 -0.0478
 8957TIP3   OH248285   0.099   5.757   2.709 -0.4683 -0.2499 -0.1089
 8957TIP3    H148286   0.019   5.739   2.660 -1.8367 -1.4215  2.3891
 8957TIP3    H248287   0.169   5.727   2.652 -1.7229  0.9014 -2.4249
 8958TIP3   OH248288   2.712   0.615   1.588 -0.7496 -0.0240 -0.1242
 8958TIP3    H148289   2.656   0.693   1.589 -2.6051 -1.2936  0.0790
 8958TIP3    H248290   2.728   0.599   1.495  0.3073  1.0107 -0.1473
 8959TIP3   OH248291   4.429   5.658   2.761 -0.0284 -0.2366  0.3066
 8959TIP3    H148292   4.487   5.643   2.835  1.2787 -0.6056 -0.7560
 8959TIP3    H248293   4.409   5.752   2.764 -1.4012 -0.5350  2.0909
 8960TIP3   OH248294   6.257   3.694  12.658 -0.0439  0.6232 -0.2693
 8960TIP3    H148295   6.224   3.658  12.576  0.2677  0.7772 -0.4647
 8960TIP3    H248296   6.190   3.757  12.685  0.5427  1.7027 -1.1989
 8961TIP3   OH248297   0.850   3.782  13.180 -0.2572  0.9305  0.3652
 8961TIP3    H148298   0.864   3.875  13.161  0.8384  0.6224 -0.4390
 8961TIP3    H248299   0.880   3.737  13.101 -1.6950 -0.0642  0.3506
 8962TIP3   OH248300   3.245   0.060   3.395 -0.5665  0.4954  0.2313
 8962TIP3    H148301   3.282   0.127   3.337  2.2958  0.2641  1.6309
 8962TIP3    H248302   3.168   0.029   3.348 -0.0202  2.3011 -2.0906
 8963TIP3   OH248303   1.876   6.460  17.281 -0.6310 -0.3352 -0.3130
 8963TIP3    H148304   1.927   6.432  17.205 -0.4924  0.1912 -0.4138
 8963TIP3    H248305   1.849   6.550  17.261 -0.2606 -0.0502  0.4314
 8964TIP3   OH248306   5.324   6.089   4.731 -0.6814 -0.1753 -0.2587
 8964TIP3    H148307   5.301   6.051   4.646  0.0881 -1.1935 -0.0381
 8964TIP3    H248308   5.398   6.146   4.713 -0.4068 -0.5253 -0.2536
 8965TIP3   OH248309   6.082   1.514  12.391 -0.0229 -0.7669  0.0707
 8965TIP3    H148310   6.099   1.465  12.310  0.8067 -2.6336  1.3062
 8965TIP3    H248311   6.097   1.450  12.461 -0.1651  0.9485  1.7337
 8966TIP3   OH248312   1.695   6.702  13.845 -0.5892  0.1905  0.1873
 8966TIP3    H148313   1.718   6.710  13.752 -0.7131 -1.6046 -0.0271
 8966TIP3    H248314   1.601   6.718  13.848 -0.8958 -1.4159 -0.2641
 8967TIP3   OH248315   1.826   2.741   2.441 -0.0644 -0.5724 -0.0766
 8967TIP3    H148316   1.775   2.821   2.450  0.8370  0.3311 -2.3177
 8967TIP3    H248317   1.763   2.675   2.413 -0.5767 -0.3513  0.5201
 8968TIP3   OH248318   1.208   4.459   5.125  0.2255  0.5027  0.5724
 8968TIP3    H148319   1.208   4.477   5.219  0.7391  0.0812  0.6545
 8968TIP3    H248320   1.290   4.496   5.093  0.7841 -0.6960  0.5601
 8969TIP3   OH248321   3.656   0.087  11.254  0.7889  0.3550  0.2148
 8969TIP3    H148322   3.617   0.106  11.168  1.2776 -0.9205 -0.3060
 8969TIP3    H248323   3.731   0.146  11.260  2.4342 -1.4430 -1.4844
 8970TIP3   OH248324   5.653   6.619  14.050 -0.3752  0.3328  0.0902
 8970TIP3    H148325   5.724   6.558  14.066  0.8951  1.4659 -0.9907
 8970TIP3    H248326   5.673   6.695  14.104 -0.2785  1.0137 -0.8830
 8971TIP3   OH248327   4.987   3.448   2.781  0.8076 -0.2297  0.5758
 8971TIP3    H148328   5.065   3.503   2.785  0.9286 -0.4654  1.8179
 8971TIP3    H248329   4.988   3.412   2.692  0.7998  1.6405 -0.2391
 8972TIP3   OH248330   1.362   4.091   2.470 -0.0368  0.4783 -0.1812
 8972TIP3    H148331   1.367   3.998   2.449 -0.0769  0.5330 -0.4487
 8972TIP3    H248332   1.390   4.135   2.389  1.3747  0.6766  0.3688
 8973TIP3   OH248333   3.643   2.432   0.265  0.4735  1.0914 -0.6022
 8973TIP3    H148334   3.735   2.416   0.245  0.2928 -0.0978 -0.5139
 8973TIP3    H248335   3.640   2.446   0.359  0.8120  3.0876 -0.8366
 8974TIP3   OH248336   2.365   2.240   5.541  0.0702  0.2029  0.2205
 8974TIP3    H148337   2.387   2.321   5.496 -0.0457  0.4069  0.5282
 8974TIP3    H248338   2.285   2.261   5.590 -0.3946 -0.3156 -0.3041
 8975TIP3   OH248339   6.453   1.566  16.001  0.3552  0.2884 -0.2684
 8975TIP3    H148340   6.502   1.483  16.001 -0.8013 -0.4325 -2.1561
 8975TIP3    H248341   6.392   1.558  15.929  1.2605  3.4432 -1.5315
 8976TIP3   OH248342   0.206   1.595  12.436  0.0197  0.0139  0.4405
 8976TIP3    H148343   0.234   1.685  12.450 -1.1885  0.7667 -1.6153
 8976TIP3    H248344   0.111   1.599  12.433 -0.0149 -0.9732 -1.5331
 8977TIP3   OH248345   1.320   0.055   5.826  0.1146  0.2407  0.3638
 8977TIP3    H148346   1.324   0.054   5.730 -1.5999 -0.3932  0.2571
 8977TIP3    H248347   1.357  -0.029   5.852 -1.7653 -0.7282  0.0738
 8978TIP3   OH248348   2.830   1.913   4.042  0.2922 -0.2489 -0.0980
 8978TIP3    H148349   2.864   1.895   3.955 -0.9202 -1.0409 -0.4388
 8978TIP3    H248350   2.838   2.008   4.052  1.0283 -0.2316 -0.8059
 8979TIP3   OH248351   4.264   5.420   1.094 -0.3125  0.1688  0.0596
 8979TIP3    H148352   4.181   5.448   1.133  0.7553  1.5381  1.4798
 8979TIP3    H248353   4.324   5.413   1.168  0.8276 -0.8700 -0.9363
 8980TIP3   OH248354   6.331   2.930  13.647  0.4479 -0.0942  0.1183
 8980TIP3    H148355   6.251   2.879  13.658  0.8938 -0.6007  1.1763
 8980TIP3    H248356   6.349   2.927  13.553  0.1491 -1.4319  0.0877
 8981TIP3   OH248357   5.899   4.575   0.130 -0.0505  0.2505 -0.7314
 8981TIP3    H148358   5.855   4.507   0.181 -2.5701  1.9308 -0.4933
 8981TIP3    H248359   5.871   4.558   0.040 -2.1139  1.8609 -0.4681
 8982TIP3   OH248360   3.591   3.524   4.439  0.1439  0.0795  0.3340
 8982TIP3    H148361   3.566   3.454   4.378  0.0124  0.2990  0.1359
 8982TIP3    H248362   3.561   3.493   4.524 -0.8969  0.3747  0.0903
 8983TIP3   OH248363   0.044   0.189  11.891  0.1277  0.4544  0.0835
 8983TIP3    H148364   0.047   0.182  11.986  0.8492 -1.9250 -0.0755
 8983TIP3    H248365  -0.047   0.170  11.868  0.2776 -0.4275  0.2116
 8984TIP3   OH248366   1.043   4.123   2.866  0.1062  0.3078 -0.0436
 8984TIP3    H148367   1.129   4.089   2.893 -0.6554 -0.8368  1.0790
 8984TIP3    H248368   0.992   4.126   2.947 -0.7688  1.4426 -0.6093
 8985TIP3   OH248369   5.429   2.240  13.591  0.1703  0.2998 -0.5371
 8985TIP3    H148370   5.512   2.241  13.544  0.4083  2.9611 -0.2577
 8985TIP3    H248371   5.365   2.268  13.526  0.0573  1.3513  0.0008
 8986TIP3   OH248372   1.548   1.161   5.092 -0.2182  0.0611  0.1364
 8986TIP3    H148373   1.592   1.242   5.066 -1.2556  0.4526 -0.4876
 8986TIP3    H248374   1.455   1.182   5.085 -0.5214 -0.6673  1.6334
 8987TIP3   OH248375   1.050   6.575  15.593  0.3176 -0.6420 -0.6032
 8987TIP3    H148376   0.997   6.552  15.670  0.6332 -4.3087 -1.2907
 8987TIP3    H248377   1.033   6.668  15.580 -1.4559 -0.3436  2.5717
 8988TIP3   OH248378   1.004   6.216  13.685  0.2172 -0.0178 -0.6249
 8988TIP3    H148379   0.978   6.130  13.720 -0.9866 -0.6330 -2.8238
 8988TIP3    H248380   0.947   6.229  13.610  2.2932  1.4511 -2.0439
 8989TIP3   OH248381   0.795   4.784  15.799  0.2653  0.0413 -0.0958
 8989TIP3    H148382   0.743   4.864  15.790  0.9117  0.5354  0.4674
 8989TIP3    H248383   0.767   4.729  15.725  0.4567  1.1442 -1.0217
 8990TIP3   OH248384   2.257   1.305   4.375 -0.2357  0.2938  0.1916
 8990TIP3    H148385   2.294   1.332   4.459  0.2892  1.0619 -0.2750
 8990TIP3    H248386   2.165   1.288   4.394 -0.5479  2.2050  0.5751
 8991TIP3   OH248387   4.982   4.620  14.107  0.5740 -0.4883 -0.1107
 8991TIP3    H148388   5.005   4.620  14.014  0.1563 -1.8417 -0.2352
 8991TIP3    H248389   5.018   4.537  14.141 -0.3195 -0.5762  0.6582
 8992TIP3   OH248390   3.631   6.021   6.519 -0.5902  0.1106  0.1159
 8992TIP3    H148391   3.585   5.958   6.575 -0.5268 -0.3086 -0.2896
 8992TIP3    H248392   3.686   5.966   6.462  0.0594  0.5739  0.2827
 8993TIP3   OH248393   0.767   6.731   3.806 -0.1949  0.4725 -0.1964
 8993TIP3    H148394   0.840   6.721   3.745 -0.2496  0.4561 -0.2591
 8993TIP3    H248395   0.739   6.822   3.795  0.7775  0.9345  0.9028
 8994TIP3   OH248396   6.339   0.670   3.470  0.6342 -1.0893  0.1403
 8994TIP3    H148397   6.263   0.712   3.510 -0.0484 -0.7945 -1.4055
 8994TIP3    H248398   6.303   0.591   3.429  1.1812 -0.9906 -0.5263
 8995TIP3   OH248399   3.481   4.474  12.060  0.0436  0.4406 -0.3051
 8995TIP3    H148400   3.417   4.470  12.131  0.9845 -1.3317  0.5059
 8995TIP3    H248401   3.442   4.423  11.990 -0.5112  1.4827 -0.7777
 8996TIP3   OH248402   0.325   4.371   5.011  0.1274 -0.1746  0.4084
 8996TIP3    H148403   0.239   4.376   5.052 -0.0506  0.8374 -0.0530
 8996TIP3    H248404   0.385   4.347   5.082 -0.3475  0.3975  1.0095
 8997TIP3   OH248405   6.746   6.081  15.691  0.5639  0.5651  0.0340
 8997TIP3    H148406   6.731   6.112  15.602 -1.8848 -0.3900  0.0231
 8997TIP3    H248407   6.803   6.005  15.681 -0.9987 -0.5408 -0.9579
 8998TIP3   OH248408   0.200   3.056   2.207 -0.2491 -0.0863 -0.0991
 8998TIP3    H148409   0.143   2.982   2.185 -0.3960  0.1931 -0.6969
 8998TIP3    H248410   0.287   3.018   2.217 -0.6234 -0.6008  1.3658
 8999TIP3   OH248411   1.146   3.552  12.232 -0.7741  0.0461 -0.4073
 8999TIP3    H148412   1.107   3.561  12.318 -0.1987 -2.0423  0.1483
 8999TIP3    H248413   1.072   3.539  12.172 -1.1497  1.1015 -0.1893
 9000TIP3   OH248414   5.046   3.508   5.490 -0.2263 -0.3559  0.9635
 9000TIP3    H148415   5.046   3.578   5.555  0.6349  0.8410 -0.2542
 9000TIP3    H248416   5.005   3.548   5.413  0.1527 -1.2323  0.2945
 9001TIP3   OH248417   0.789   5.046   6.015 -0.3423  0.4669 -0.4669
 9001TIP3    H148418   0.881   5.032   5.992 -0.6577 -3.1709 -0.1704
 9001TIP3    H248419   0.781   5.011   6.103 -2.0244  0.7303 -0.4883
 9002TIP3   OH248420   4.472   2.328   4.274  0.0467  0.4178 -0.0738
 9002TIP3    H148421   4.486   2.286   4.189  3.0122 -0.1460  0.5768
 9002TIP3    H248422   4.469   2.421   4.255  1.0970  0.3231 -0.7918
 9003TIP3   OH248423   6.489   5.517   3.496  0.1216 -0.3148 -0.9433
 9003TIP3    H148424   6.531   5.563   3.569 -1.1087  0.7100 -0.8419
 9003TIP3    H248425   6.396   5.530   3.510 -0.1736 -0.9386 -2.1789
 9004TIP3   OH248426   2.341   2.041  14.330  0.2812  0.4890  0.0829
 9004TIP3    H148427   2.432   2.068  14.339 -0.0144  1.4236  0.4407
 9004TIP3    H248428   2.322   1.992  14.409  0.9214 -1.1111 -0.7235
 9005TIP3   OH248429   4.872   2.934  12.705  0.1033 -0.1882 -0.1376
 9005TIP3    H148430   4.928   2.991  12.757  3.5957 -1.9911 -1.5754
 9005TIP3    H248431   4.917   2.925  12.621 -2.5151 -1.6500 -1.5272
 9006TIP3   OH248432   2.974   1.543   4.659 -0.0456  0.1276 -0.0678
 9006TIP3    H148433   2.909   1.546   4.729  0.0077  2.0865 -0.0656
 9006TIP3    H248434   3.012   1.631   4.658  2.8362 -1.0020  0.1508
 9007TIP3   OH248435   4.860   1.709   1.788  0.8168  0.0156  0.8804
 9007TIP3    H148436   4.788   1.647   1.779  0.2544  0.8768 -1.1797
 9007TIP3    H248437   4.832   1.767   1.859  0.2776 -0.6690  1.2493
 9008TIP3   OH248438   0.023   3.419  13.521 -0.2629 -0.0752  1.1622
 9008TIP3    H148439  -0.049   3.378  13.474  0.8137 -0.7865  0.0931
 9008TIP3    H248440  -0.020   3.482  13.580 -1.6646  1.1589 -1.0248
 9009TIP3   OH248441   1.639   4.465   1.204 -0.2737  0.5368  0.2222
 9009TIP3    H148442   1.704   4.406   1.165 -0.0696  0.8158  0.1396
 9009TIP3    H248443   1.618   4.527   1.134  0.1963  1.1268  0.5937
 9010TIP3   OH248444   2.790   0.401   0.382  0.0184 -0.4956  0.2268
 9010TIP3    H148445   2.761   0.335   0.320  0.5131 -0.4085 -0.1012
 9010TIP3    H248446   2.884   0.386   0.392  0.3909  0.9390 -0.8206
 9011TIP3   OH248447   1.732   4.079  11.562  0.4786 -0.1559  0.0211
 9011TIP3    H148448   1.793   4.012  11.593  0.7410  0.4274  0.8073
 9011TIP3    H248449   1.714   4.132  11.640 -0.9546 -0.2507 -0.2184
 9012TIP3   OH248450   4.785   6.277  14.544 -0.3334 -0.3357 -0.1407
 9012TIP3    H148451   4.802   6.369  14.524 -0.6389  0.0958  1.4446
 9012TIP3    H248452   4.861   6.230  14.509  0.6975  0.7376  0.5708
 9013TIP3   OH248453   3.503   5.393   4.545 -0.0899  0.4324 -0.3172
 9013TIP3    H148454   3.575   5.333   4.565 -0.6139 -0.2804 -0.5458
 9013TIP3    H248455   3.427   5.356   4.589 -0.4919  0.7461 -0.7362
 9014TIP3   OH248456   3.355   2.870  13.955 -0.5294  1.0734  0.3758
 9014TIP3    H148457   3.283   2.883  13.893 -0.8502 -0.6728  0.3426
 9014TIP3    H248458   3.320   2.812  14.022  0.5596  0.9802  0.8993
 9015TIP3   OH248459   3.661   3.960  16.613  0.7076 -0.2216 -0.0286
 9015TIP3    H148460   3.608   4.019  16.558  1.0302 -1.4138 -1.6701
 9015TIP3    H248461   3.617   3.875  16.607  1.5442 -0.6992  0.4441
 9016TIP3   OH248462   3.936   1.033   5.459  0.5242 -0.7964 -0.1594
 9016TIP3    H148463   3.955   1.038   5.365 -2.4962 -0.5350 -0.8370
 9016TIP3    H248464   3.899   1.118   5.481 -1.3720 -1.7703  0.6136
 9017TIP3   OH248465   6.521   0.163   1.347 -0.1204 -0.0872  0.4505
 9017TIP3    H148466   6.444   0.178   1.291 -1.2840 -0.5588  1.8631
 9017TIP3    H248467   6.582   0.233   1.323 -0.2692 -0.6602 -1.8706
 9018TIP3   OH248468   1.759   1.336   3.866 -0.7405 -0.0185  0.2436
 9018TIP3    H148469   1.678   1.313   3.820  0.3039 -1.2656 -1.0884
 9018TIP3    H248470   1.736   1.333   3.959 -2.1597 -0.5742 -0.0982
 9019TIP3   OH248471   1.248   3.766   1.766 -0.7410 -0.0412 -0.7741
 9019TIP3    H148472   1.189   3.826   1.721 -0.4736  0.1819 -0.8272
 9019TIP3    H248473   1.274   3.702   1.700 -0.2768  0.3383 -0.9669
 9020TIP3   OH248474   2.270   4.724  13.856 -0.2904  0.4219 -0.0034
 9020TIP3    H148475   2.186   4.763  13.828 -0.4312  0.1914  0.0972
 9020TIP3    H248476   2.245   4.659  13.922  0.1031  1.5172  1.2737
 9021TIP3   OH248477   6.533   2.943   3.873  0.0928 -0.5521  0.1718
 9021TIP3    H148478   6.532   2.988   3.958  0.0477 -1.4750  0.6819
 9021TIP3    H248479   6.602   2.986   3.823  1.4949 -1.2723  1.4128
 9022TIP3   OH248480   1.549   4.552   6.679  0.1031  0.3080  0.0530
 9022TIP3    H148481   1.589   4.467   6.699  2.0737  1.1918  0.1486
 9022TIP3    H248482   1.587   4.576   6.594  1.0891  1.9116  0.8994
 9023TIP3   OH248483   0.463   2.253   4.499  0.0371  0.8285 -0.1561
 9023TIP3    H148484   0.399   2.208   4.555 -0.7543  0.6631 -1.1623
 9023TIP3    H248485   0.424   2.339   4.483 -0.0734  0.6280 -0.9996
 9024TIP3   OH248486   1.567   4.479  16.649 -0.0795 -0.2802  0.1480
 9024TIP3    H148487   1.536   4.553  16.702  0.1373 -1.3650  1.8502
 9024TIP3    H248488   1.658   4.466  16.677  0.0898 -0.8128 -0.6105
 9025TIP3   OH248489   2.498   5.442  12.538  0.2826  0.9886  0.3747
 9025TIP3    H148490   2.414   5.440  12.585  0.2730 -1.2388  0.3616
 9025TIP3    H248491   2.557   5.489  12.596 -0.3989  0.5578  1.4485
 9026TIP3   OH248492   3.429   3.281  14.515 -0.0629 -0.3015 -0.0195
 9026TIP3    H148493   3.511   3.257  14.560  1.0754  0.2158 -1.7117
 9026TIP3    H248494   3.383   3.336  14.578  1.2652  0.0274  0.7119
 9027TIP3   OH248495   5.175   5.402  14.969  0.5249 -0.3785 -0.0179
 9027TIP3    H148496   5.267   5.407  14.943  0.3432  1.2035 -0.4385
 9027TIP3    H248497   5.176   5.362  15.056  1.6303 -0.0927  0.1052
 9028TIP3   OH248498   1.396   2.506  14.658  0.0544  0.5911  0.1281
 9028TIP3    H148499   1.395   2.524  14.564 -1.4529  0.0041 -0.0034
 9028TIP3    H248500   1.414   2.591  14.699  0.1794  0.9568 -0.6742
 9029TIP3   OH248501   4.336   4.447   3.577 -0.3859 -0.1256 -0.0508
 9029TIP3    H148502   4.412   4.399   3.609 -0.4600 -0.9893 -1.1249
 9029TIP3    H248503   4.338   4.436   3.482 -1.9685 -0.3626 -0.0842
 9030TIP3   OH248504   0.798   5.318   4.606 -0.1321  0.4339 -0.5993
 9030TIP3    H148505   0.828   5.348   4.520  1.3283  0.8925  0.0298
 9030TIP3    H248506   0.869   5.343   4.665 -1.9627  1.9272  1.0813
 9031TIP3   OH248507   2.633   3.091   4.236 -0.2322  0.1946  0.4563
 9031TIP3    H148508   2.617   3.013   4.289 -0.2100  0.6192  1.1084
 9031TIP3    H248509   2.726   3.108   4.245 -0.2410  0.3109  0.3344
 9032TIP3   OH248510   4.169   5.763  12.497  0.9256  0.5777 -0.2137
 9032TIP3    H148511   4.081   5.754  12.535  1.1761  2.0936  0.7779
 9032TIP3    H248512   4.157   5.825  12.425  1.2464  1.1390  0.2073
 9033TIP3   OH248513   4.564   3.378   3.859  0.5088  0.7621  0.0181
 9033TIP3    H148514   4.534   3.336   3.779  0.7208 -1.8538  1.1865
 9033TIP3    H248515   4.630   3.317   3.895 -0.8331  0.8780  3.0220
 9034TIP3   OH248516   4.999   0.395   2.625 -0.1197  0.0691  0.0563
 9034TIP3    H148517   4.943   0.320   2.608 -1.2178  1.1162 -1.1769
 9034TIP3    H248518   5.036   0.417   2.540 -0.1707  1.1812  0.3086
 9035TIP3   OH248519   6.078   0.179   2.087  0.4742  0.1589  0.2492
 9035TIP3    H148520   6.100   0.098   2.133 -2.3913  0.0563  1.6543
 9035TIP3    H248521   6.098   0.249   2.149  0.4337  0.3224  0.0829
 9036TIP3   OH248522   3.364   2.735   1.066  0.3030 -0.2986 -0.9359
 9036TIP3    H148523   3.341   2.700   1.153 -0.0674  1.0735 -0.4563
 9036TIP3    H248524   3.457   2.715   1.057 -0.2752 -3.1162 -1.5440
 9037TIP3   OH248525   4.904   6.440   2.830 -0.1721 -0.3721 -0.5217
 9037TIP3    H148526   4.853   6.443   2.911  1.2906 -0.2912  0.4517
 9037TIP3    H248527   4.881   6.356   2.790 -1.5549 -0.0326 -0.4791
 9038TIP3   OH248528   1.264   2.785  16.232 -0.0918  0.0951  0.4937
 9038TIP3    H148529   1.231   2.874  16.219  0.6765  0.2251 -0.7561
 9038TIP3    H248530   1.218   2.753  16.309 -3.5812  0.0788 -1.3626
 9039TIP3   OH248531   0.550   1.010  16.541 -0.1998  0.0554  0.0902
 9039TIP3    H148532   0.455   1.018  16.537 -0.2489  0.0869  1.0931
 9039TIP3    H248533   0.579   1.091  16.583  0.2268 -0.1958  0.2802
 9040TIP3   OH248534   0.271   0.960  11.837 -0.1103  0.1589 -0.0816
 9040TIP3    H148535   0.182   0.937  11.866 -0.1598 -0.7134 -0.8436
 9040TIP3    H248536   0.258   1.001  11.752  0.2460 -0.5158 -0.4711
 9041TIP3   OH248537   2.605   3.160   0.565  0.2001 -0.4008  0.7317
 9041TIP3    H148538   2.678   3.148   0.626 -1.4074  1.6548  3.2876
 9041TIP3    H248539   2.573   3.248   0.584 -0.7010  0.2144 -2.8962
 9042TIP3   OH248540   1.363   1.865   2.820  0.0970 -0.1096  0.3188
 9042TIP3    H148541   1.309   1.876   2.741  0.7060 -1.0486 -0.2419
 9042TIP3    H248542   1.450   1.893   2.793  0.6327 -1.7775  0.2131
 9043TIP3   OH248543   3.178   4.150   0.406  0.6780 -0.0712 -0.1290
 9043TIP3    H148544   3.094   4.186   0.432 -1.6463 -4.0818 -1.1426
 9043TIP3    H248545   3.213   4.110   0.486  1.3525  1.0280  0.1440
 9044TIP3   OH248546   5.182   3.491  11.382  0.8310  0.8442  0.4329
 9044TIP3    H148547   5.260   3.444  11.411  0.9856  0.0662 -1.1348
 9044TIP3    H248548   5.126   3.422  11.345 -0.2657  1.4994  0.8274
 9045TIP3   OH248549   3.933   4.699   2.935 -0.0754  0.5328  0.7567
 9045TIP3    H148550   3.856   4.696   2.879  0.2746 -2.6491  0.2580
 9045TIP3    H248551   3.899   4.681   3.023  0.1453 -2.9950  0.2614
 9046TIP3   OH248552   3.527   2.199   5.658  0.3334  0.0965  0.4160
 9046TIP3    H148553   3.575   2.263   5.712 -1.0628  1.7757 -0.2257
 9046TIP3    H248554   3.455   2.170   5.713  1.0045 -1.0361  0.7295
 9047TIP3   OH248555   6.595   0.224  12.875 -0.1102  0.6198  0.2497
 9047TIP3    H148556   6.674   0.187  12.914 -0.5327 -0.2540  0.2900
 9047TIP3    H248557   6.525   0.203  12.937 -0.5246  0.5783 -0.2241
 9048TIP3   OH248558   2.329   4.019   0.335  0.0700  0.1037 -0.1403
 9048TIP3    H148559   2.348   3.928   0.357 -0.9609 -0.3665 -1.0918
 9048TIP3    H248560   2.321   4.063   0.420 -2.3001 -1.3353  0.4788
 9049TIP3   OH248561   4.189   4.075  12.689 -0.2455  0.2369  0.0578
 9049TIP3    H148562   4.131   4.149  12.705 -1.8031 -1.0256  0.5875
 9049TIP3    H248563   4.277   4.111  12.695 -0.9332  1.7899  1.5634
 9050TIP3   OH248564   4.896   5.467  11.770 -0.8378  0.3018  0.5579
 9050TIP3    H148565   4.822   5.509  11.814 -1.2662 -1.3276  1.4613
 9050TIP3    H248566   4.970   5.525  11.789 -1.1747  0.0976  2.7748
 9051TIP3   OH248567   5.007   0.909  11.259  0.0797  0.1261 -0.1951
 9051TIP3    H148568   5.039   0.958  11.184  0.4595 -1.8931 -1.4476
 9051TIP3    H248569   5.066   0.932  11.330 -0.3733  2.1818 -0.4211
 9052TIP3   OH248570   4.980   2.498  14.672 -0.8125 -0.1741 -0.0216
 9052TIP3    H148571   4.989   2.579  14.722 -2.2586 -0.6518  1.0715
 9052TIP3    H248572   4.970   2.527  14.581  0.1790  0.7887  0.1544
 9053TIP3   OH248573   3.917   3.061   6.274 -0.2328 -0.1102  0.6834
 9053TIP3    H148574   4.006   3.027   6.275  0.4031  1.3988 -0.2133
 9053TIP3    H248575   3.870   3.002   6.215  0.6419  0.0847 -0.2487
 9054TIP3   OH248576   6.267   1.083   0.899 -0.0858 -0.3805  0.6735
 9054TIP3    H148577   6.214   1.138   0.956  0.0210  1.2545 -0.6846
 9054TIP3    H248578   6.272   1.133   0.817  2.7638 -0.8829  0.4477
 9055TIP3   OH248579   2.493   0.750  16.839  0.4856 -0.0387  0.8180
 9055TIP3    H148580   2.462   0.662  16.861  1.2861 -0.1633  1.5076
 9055TIP3    H248581   2.588   0.740  16.829  0.5731  0.7320  0.8393
 9056TIP3   OH248582   6.401   3.893   3.104  0.2417 -0.2110 -0.5144
 9056TIP3    H148583   6.447   3.914   3.186 -1.3035  0.3059  0.2503
 9056TIP3    H248584   6.383   3.978   3.065  0.2881 -0.4268 -1.0107
 9057TIP3   OH248585   0.842   4.184   4.025  0.8402 -0.2376 -0.1775
 9057TIP3    H148586   0.805   4.265   3.991 -0.4126 -1.6022 -2.3909
 9057TIP3    H248587   0.935   4.189   4.002  0.2959 -0.4889 -2.8100
 9058TIP3   OH248588   3.433   1.745  16.586  0.0930  0.5156 -0.4298
 9058TIP3    H148589   3.498   1.794  16.536 -0.7090  1.4012 -0.6582
 9058TIP3    H248590   3.477   1.665  16.613  0.8452  0.4527 -1.7589
 9059TIP3   OH248591   5.191   5.779  15.655  0.1792 -0.5991 -0.2037
 9059TIP3    H148592   5.249   5.756  15.728 -0.6841 -1.0062  0.3756
 9059TIP3    H248593   5.250   5.805  15.585  1.0475 -0.5868  0.5096
 9060TIP3   OH248594   4.638   0.793  15.399 -0.3472  0.2399  0.2747
 9060TIP3    H148595   4.624   0.724  15.463 -0.1465  0.4534  0.5497
 9060TIP3    H248596   4.642   0.873  15.450 -0.0517  0.3961  0.0110
 9061TIP3   OH248597   5.781   2.930  17.156  0.5576 -0.2619 -0.1465
 9061TIP3    H148598   5.845   2.975  17.211 -2.4142  2.8966  1.1052
 9061TIP3    H248599   5.770   2.988  17.080 -2.0206  0.3449  0.5890
 9062TIP3   OH248600   6.446   2.352   4.061  0.0873  0.1261 -0.2519
 9062TIP3    H148601   6.513   2.407   4.101 -0.2632 -0.1020  0.6846
 9062TIP3    H248602   6.472   2.345   3.969  0.9151  0.6733 -0.0710
 9063TIP3   OH248603   0.101   5.313  13.050  0.0154  0.0623 -0.0311
 9063TIP3    H148604   0.061   5.390  13.010 -0.7733 -0.4144 -0.1786
 9063TIP3    H248605   0.033   5.246  13.046  0.7170 -0.6659  0.0256
 9064TIP3   OH248606   2.639   2.170  16.398  0.5846  0.0371  0.7504
 9064TIP3    H148607   2.585   2.224  16.455  0.4994  0.3733  0.3522
 9064TIP3    H248608   2.632   2.082  16.435 -1.2965 -0.1973 -0.0573
 9065TIP3   OH248609   3.401   0.179  17.135 -0.2587  0.0894 -0.5211
 9065TIP3    H148610   3.432   0.152  17.049  1.7202 -0.5570  0.3194
 9065TIP3    H248611   3.346   0.107  17.165 -2.3377  1.0481 -1.8669
 9066TIP3   OH248612   3.458   5.563   2.300  0.4520 -0.5272  0.5486
 9066TIP3    H148613   3.497   5.598   2.380  1.1495 -1.1517  0.4873
 9066TIP3    H248614   3.530   5.555   2.239 -0.1854  0.5326 -0.3720
 9067TIP3   OH248615   6.736   0.924  14.759  0.2509 -0.3120 -0.4736
 9067TIP3    H148616   6.708   0.845  14.805  0.1110  0.5718  1.0463
 9067TIP3    H248617   6.823   0.904  14.726  0.7427 -0.6848  0.9940
 9068TIP3   OH248618   2.420   3.707  14.880 -0.3786 -0.0478  0.3769
 9068TIP3    H148619   2.372   3.750  14.951 -3.1829 -2.4937  0.1496
 9068TIP3    H248620   2.381   3.741  14.800 -0.6524 -0.8514  0.1545
 9069TIP3   OH248621   5.724   5.815   2.893  0.5096 -0.0929 -0.2250
 9069TIP3    H148622   5.680   5.783   2.972 -0.7564  0.7644 -0.5568
 9069TIP3    H248623   5.726   5.910   2.904 -0.4550  0.1092 -1.6088
 9070TIP3   OH248624   3.969   2.779  12.430 -0.4032  0.2879 -0.4419
 9070TIP3    H148625   4.064   2.789  12.433 -0.4627  0.8104 -0.2394
 9070TIP3    H248626   3.935   2.853  12.481 -0.8746 -0.6930  0.7098
 9071TIP3   OH248627   4.919   6.092   1.260 -0.0709 -0.2868  0.1097
 9071TIP3    H148628   4.960   6.076   1.345  0.6094 -0.4808 -0.2506
 9071TIP3    H248629   4.839   6.038   1.262 -0.4260  0.2487  0.8887
 9072TIP3   OH248630   6.676   2.211  15.078  0.2873 -0.8696  0.2364
 9072TIP3    H148631   6.676   2.214  15.173 -1.2194  0.0766  0.2471
 9072TIP3    H248632   6.754   2.259  15.052 -1.3716  2.6009  1.0387
 9073TIP3   OH248633   0.783   6.666   3.212  0.8227 -0.0482  0.1986
 9073TIP3    H148634   0.747   6.577   3.217  0.1366  0.2649  1.3871
 9073TIP3    H248635   0.794   6.683   3.119 -1.8862 -0.2926 -0.2442
 9074TIP3   OH248636   0.093   3.098  16.809 -0.2649 -0.5435  0.1727
 9074TIP3    H148637   0.165   3.075  16.868 -0.2407 -0.3932  0.2018
 9074TIP3    H248638   0.066   3.015  16.771 -0.3786 -0.6615  0.5070
 9075TIP3   OH248639   5.851   5.126   3.308 -0.3408 -0.4810 -0.7244
 9075TIP3    H148640   5.905   5.128   3.229  0.4794  0.2871 -0.1574
 9075TIP3    H248641   5.834   5.033   3.323  0.5845 -0.7108 -1.0707
 9076TIP3   OH248642   5.551   4.332  15.432 -0.2946 -0.2701  0.3003
 9076TIP3    H148643   5.587   4.357  15.517 -1.2436 -1.1058  0.9777
 9076TIP3    H248644   5.531   4.415  15.389  0.0278  0.1669  0.9724
 9077TIP3   OH248645   5.592   0.111   0.459  0.1989  0.0935  0.1660
 9077TIP3    H148646   5.573   0.102   0.366  0.5495  0.5676  0.0432
 9077TIP3    H248647   5.678   0.154   0.462  0.1410  0.1843  0.7046
 9078TIP3   OH248648   2.938   1.118  11.649 -0.5418 -0.5605 -0.4348
 9078TIP3    H148649   2.974   1.187  11.594 -0.5124 -1.3211 -1.4095
 9078TIP3    H248650   2.857   1.154  11.685 -0.0292  0.3182 -0.1261
 9079TIP3   OH248651   1.805   2.552  12.851 -0.3929  0.0047  0.3698
 9079TIP3    H148652   1.764   2.633  12.819  0.5053  0.4282  0.2459
 9079TIP3    H248653   1.781   2.547  12.943 -0.7307  0.2389  0.2960
 9080TIP3   OH248654   3.898   6.051   1.767  0.0491  0.2918 -0.1409
 9080TIP3    H148655   3.922   6.028   1.677 -0.6658 -0.1762 -0.2197
 9080TIP3    H248656   3.807   6.081   1.760 -0.3623 -0.7341  0.5692
 9081TIP3   OH248657   0.049   2.634   4.421  0.2413  0.4725 -0.2102
 9081TIP3    H148658   0.021   2.666   4.335  1.8876  1.4334 -0.4189
 9081TIP3    H248659   0.053   2.713   4.476 -0.0442 -0.0270  0.5433
 9082TIP3   OH248660   3.391   5.147   1.593  0.4492 -0.6000 -0.2070
 9082TIP3    H148661   3.309   5.139   1.544  0.3432  0.7250 -0.2950
 9082TIP3    H248662   3.456   5.170   1.527  0.8103 -1.1897 -0.0664
 9083TIP3   OH248663   2.024   4.551   6.092  0.2302 -0.8872 -0.3080
 9083TIP3    H148664   1.972   4.615   6.141  0.9633  0.0139 -0.6749
 9083TIP3    H248665   2.109   4.551   6.136  0.2476 -1.5987 -0.3324
 9084TIP3   OH248666   6.497   0.059  13.690  0.0129 -0.2030  0.4247
 9084TIP3    H148667   6.416   0.099  13.656 -1.2531  0.0064  3.3704
 9084TIP3    H248668   6.561   0.130  13.691 -0.2299  0.0393 -0.4614
 9085TIP3   OH248669   2.426   0.522   3.447  0.7056 -0.0559 -0.6182
 9085TIP3    H148670   2.333   0.505   3.460  0.6243  1.3613  0.9661
 9085TIP3    H248671   2.464   0.436   3.428 -0.6357 -0.9303  0.5293
 9086TIP3   OH248672   4.007   0.540   1.402  0.1120 -0.2944 -0.6200
 9086TIP3    H148673   4.044   0.540   1.314  0.8451 -0.7690 -0.3272
 9086TIP3    H248674   3.912   0.546   1.389  0.2002 -0.6211 -1.4449
 9087TIP3   OH248675   1.283   4.888  12.014 -0.0142 -0.0792  0.1181
 9087TIP3    H148676   1.236   4.808  11.994  0.6532 -0.4100 -0.1794
 9087TIP3    H248677   1.269   4.944  11.938  1.1747 -0.7053 -0.5950
 9088TIP3   OH248678   6.055   4.149  12.667  0.4421  0.5920 -1.1760
 9088TIP3    H148679   6.055   4.162  12.762 -0.0618 -2.5628 -0.6552
 9088TIP3    H248680   5.962   4.140  12.644  0.4925  2.2370 -2.1715
 9089TIP3   OH248681   0.400   4.737   5.528 -0.1899  0.0756 -0.4434
 9089TIP3    H148682   0.420   4.663   5.585  1.0399  0.4028 -0.4280
 9089TIP3    H248683   0.429   4.709   5.441 -1.8190 -0.3219 -0.9076
 9090TIP3   OH248684   5.060   3.401   2.378 -0.1935  0.3333  0.6210
 9090TIP3    H148685   4.996   3.346   2.422 -0.7925  1.4111  1.1451
 9090TIP3    H248686   5.119   3.430   2.448  0.2371  0.1945  0.3185
 9091TIP3   OH248687   3.617   0.855  16.362  0.2114 -0.1902 -0.0747
 9091TIP3    H148688   3.564   0.779  16.384  2.4187 -1.2072  2.2163
 9091TIP3    H248689   3.619   0.856  16.266 -1.9649 -1.4418 -0.1995
 9092TIP3   OH248690   1.173   3.946   6.508 -0.1143 -0.1245  0.2385
 9092TIP3    H148691   1.223   3.865   6.504  0.6407  0.3377  0.1943
 9092TIP3    H248692   1.222   4.003   6.567 -0.0568  0.6841 -0.5657
 9093TIP3   OH248693   6.100   0.769   1.198  0.1067  0.3725  0.0575
 9093TIP3    H148694   6.082   0.675   1.209  0.4377  0.0593 -1.7213
 9093TIP3    H248695   6.016   0.806   1.172  0.2427  0.3310 -0.4579
 9094TIP3   OH248696   1.214   4.469  16.467  0.1897 -0.4264 -0.3162
 9094TIP3    H148697   1.235   4.472  16.561  4.1785 -2.5234 -0.9452
 9094TIP3    H248698   1.223   4.560  16.438 -0.5095  0.1547  1.1450
 9095TIP3   OH248699   5.742   5.364   3.373  0.0740 -0.2096  0.3125
 9095TIP3    H148700   5.812   5.417   3.335  0.1647 -0.4895  0.0904
 9095TIP3    H248701   5.771   5.274   3.362  0.3352 -0.2760  1.5078
 9096TIP3   OH248702   3.434   4.250   2.983 -0.8971  0.2233  0.2594
 9096TIP3    H148703   3.357   4.281   3.031 -0.1700  0.2978  1.4189
 9096TIP3    H248704   3.466   4.175   3.035 -0.2261  0.1597 -0.2347
 9097TIP3   OH248705   1.191   2.994   6.257 -0.1738  0.2567 -0.1442
 9097TIP3    H148706   1.138   2.993   6.336  0.1842 -0.0473  0.0895
 9097TIP3    H248707   1.132   3.028   6.189 -1.0228 -1.1474 -0.1404
 9098TIP3   OH248708   5.557   3.936  16.583 -0.3345 -0.6283 -0.3102
 9098TIP3    H148709   5.562   4.002  16.514 -3.5639 -0.5205 -0.5957
 9098TIP3    H248710   5.482   3.881  16.559 -1.4434 -0.7468  2.9266
 9099TIP3   OH248711   5.774   5.568  12.842 -0.0412 -0.0265 -0.3570
 9099TIP3    H148712   5.870   5.571  12.838  0.0361 -1.2966 -0.0474
 9099TIP3    H248713   5.748   5.523  12.762 -0.4554  1.0888 -0.8666
 9100TIP3   OH248714   0.839   1.505  12.175 -0.2236 -0.2281 -0.1634
 9100TIP3    H148715   0.895   1.428  12.181 -0.4873 -0.4447 -0.4934
 9100TIP3    H248716   0.845   1.546  12.262  0.5629 -0.1673 -0.2408
 9101TIP3   OH248717   0.500   4.914  12.469  0.1902  0.0995 -0.0349
 9101TIP3    H148718   0.548   4.914  12.552 -0.0844  0.5591  0.1284
 9101TIP3    H248719   0.434   4.983  12.480  0.7798  0.8499 -0.9921
 9102TIP3   OH248720   1.037   0.365   1.804  0.5776 -0.2615  0.2351
 9102TIP3    H148721   1.047   0.458   1.780 -1.4393  0.1559  0.8312
 9102TIP3    H248722   1.109   0.349   1.866  1.5585  0.6097 -0.6472
 9103TIP3   OH248723   1.478   4.752   6.881  0.2256  0.4407  0.0938
 9103TIP3    H148724   1.510   4.669   6.845  0.4331  0.0772  1.0869
 9103TIP3    H248725   1.536   4.819   6.843 -0.4537  0.2329 -1.3527
 9104TIP3   OH248726   4.669   0.534  16.077 -0.0381 -0.0079 -1.1413
 9104TIP3    H148727   4.581   0.497  16.085 -0.1785  0.6845  0.9694
 9104TIP3    H248728   4.655   0.629  16.074  0.6869  0.2057  0.9747
 9105TIP3   OH248729   5.189   5.648   5.858  0.0556 -0.0520 -0.4680
 9105TIP3    H148730   5.232   5.640   5.772  0.0591 -0.0221 -0.4691
 9105TIP3    H248731   5.261   5.659   5.919  0.0336  0.2980 -0.5063
 9106TIP3   OH248732   1.549   4.665   0.559 -0.1435 -0.6749 -0.3092
 9106TIP3    H148733   1.622   4.607   0.581 -0.9921 -1.7906 -0.3845
 9106TIP3    H248734   1.508   4.624   0.482 -0.3615  0.3816 -0.7704
 9107TIP3   OH248735   6.515   1.843   3.982 -0.1199 -0.7369  0.1131
 9107TIP3    H148736   6.598   1.834   3.936  0.1404  0.1058  0.4052
 9107TIP3    H248737   6.495   1.937   3.978 -1.7396 -1.0808 -1.1320
 9108TIP3   OH248738   0.906   3.489   1.541 -0.2492  0.4343 -0.1373
 9108TIP3    H148739   0.893   3.566   1.486 -1.7216 -0.2806 -0.8472
 9108TIP3    H248740   1.000   3.472   1.537  0.1120  2.1512  0.0155
 9109TIP3   OH248741   0.362   4.233  14.212 -0.0984  0.3656 -0.2211
 9109TIP3    H148742   0.449   4.204  14.184  0.2195  1.5535 -0.5292
 9109TIP3    H248743   0.302   4.199  14.146 -0.0911 -1.7252  0.7635
 9110TIP3   OH248744   0.358   1.666   2.211 -0.2309  0.0451 -0.4638
 9110TIP3    H148745   0.438   1.641   2.165 -0.6319 -0.0587 -1.1094
 9110TIP3    H248746   0.292   1.604   2.180 -0.6633  0.4022 -0.2626
 9111TIP3   OH248747   2.532   1.347   1.491 -0.0743 -0.9533  0.9335
 9111TIP3    H148748   2.438   1.329   1.488 -0.4661  0.9445  0.2323
 9111TIP3    H248749   2.556   1.365   1.400  0.6738 -0.0668  1.2873
 9112TIP3   OH248750   3.767   3.068  11.823  0.0349 -0.1481 -0.0278
 9112TIP3    H148751   3.735   3.156  11.837  0.9333  0.1633  0.1117
 9112TIP3    H248752   3.741   3.047  11.733  1.0096  0.7980 -0.5593
 9113TIP3   OH248753   0.579   4.668  13.706 -0.5859 -0.2900  0.3434
 9113TIP3    H148754   0.502   4.672  13.762 -0.2658 -1.9634  0.9612
 9113TIP3    H248755   0.644   4.621  13.759  0.0519 -1.0350 -1.0690
 9114TIP3   OH248756   4.852   0.936   6.016  0.9874 -0.1229 -0.2354
 9114TIP3    H148757   4.798   0.858   6.006  2.2397 -1.1311  0.6313
 9114TIP3    H248758   4.830   0.970   6.103  1.8470 -0.6296  0.1874
 9115TIP3   OH248759   3.947   0.267   0.674  0.5070  0.4408  0.1232
 9115TIP3    H148760   4.009   0.200   0.701  1.9115  0.5375 -2.5199
 9115TIP3    H248761   3.935   0.252   0.580 -2.3514  1.3814  0.2342
 9116TIP3   OH248762   4.629   2.802  12.002 -0.0766  0.1512 -0.3364
 9116TIP3    H148763   4.713   2.762  11.983 -0.0450 -0.6963  1.3812
 9116TIP3    H248764   4.569   2.764  11.938  0.3370 -1.2427  0.0767
 9117TIP3   OH248765   4.794   3.433  16.554  0.1934  0.4374 -0.4878
 9117TIP3    H148766   4.872   3.451  16.606  0.3504 -0.1538 -0.5171
 9117TIP3    H248767   4.817   3.466  16.467  0.5106  0.0366 -0.5614
 9118TIP3   OH248768   2.463   3.910   1.239  0.3121  1.0583 -0.1082
 9118TIP3    H148769   2.393   3.851   1.268  0.1615  0.7923 -0.9779
 9118TIP3    H248770   2.444   3.993   1.282 -1.1492  1.2859 -1.1357
 9119TIP3   OH248771   6.451   1.882   5.707 -0.5839 -0.2598  0.3278
 9119TIP3    H148772   6.436   1.848   5.619  0.5748  1.6838 -0.6765
 9119TIP3    H248773   6.536   1.924   5.703 -1.8357  2.6662  1.4438
 9120TIP3   OH248774   0.436   6.270   5.797  0.3861 -0.5189 -0.1316
 9120TIP3    H148775   0.440   6.287   5.703  0.5184 -0.6634 -0.1527
 9120TIP3    H248776   0.524   6.291   5.829 -0.5426  2.8398  0.5319
 9121TIP3   OH248777   1.327   4.921   1.603  0.2293 -0.5375 -0.0302
 9121TIP3    H148778   1.282   4.945   1.684 -0.4554  0.2449 -0.6252
 9121TIP3    H248779   1.417   4.903   1.630  0.6676  2.1287  0.5900
 9122TIP3   OH248780   6.502   3.690   1.500 -0.0746 -0.0978 -0.4983
 9122TIP3    H148781   6.426   3.692   1.558  0.9496 -1.2321  0.9480
 9122TIP3    H248782   6.569   3.740   1.546  0.0610  0.9918 -1.8177
 9123TIP3   OH248783   5.402   2.317   1.535  0.1247 -0.0232  0.5195
 9123TIP3    H148784   5.370   2.230   1.558 -0.8441 -0.1463 -1.0651
 9123TIP3    H248785   5.348   2.377   1.586 -0.1420 -0.3258  0.5953
 9124TIP3   OH248786   1.013   3.206  13.060 -0.4546  0.2927  0.0592
 9124TIP3    H148787   1.008   3.215  12.965 -1.1003  1.7068  0.2056
 9124TIP3    H248788   0.999   3.113  13.076  1.1916 -0.2312 -1.3066
 9125TIP3   OH248789   4.150   1.573  16.021  0.0604  0.2413 -0.3206
 9125TIP3    H148790   4.133   1.659  16.059 -3.0236  0.1221 -1.1717
 9125TIP3    H248791   4.109   1.511  16.081 -1.6667 -0.2260 -1.9000
 9126TIP3   OH248792   6.303   4.254   5.924 -0.5572  0.5613  0.0830
 9126TIP3    H148793   6.339   4.186   5.868  0.3102  0.7454  0.4110
 9126TIP3    H248794   6.209   4.252   5.907 -0.4345 -0.1547 -0.5220
 9127TIP3   OH248795   0.181   3.201  11.499 -1.0753  0.3958 -1.0008
 9127TIP3    H148796   0.235   3.186  11.422  0.5965 -1.3781  0.4338
 9127TIP3    H248797   0.138   3.117  11.515  0.6439 -0.0920  1.4505
 9128TIP3   OH248798   6.312   6.515   4.301  0.3815 -0.3284  0.2363
 9128TIP3    H148799   6.326   6.556   4.386  2.3694 -0.0898 -0.1594
 9128TIP3    H248800   6.344   6.425   4.312  0.9922 -0.1915 -0.3413
 9129TIP3   OH248801   5.348   5.753   0.655 -0.1944  0.1191  0.0235
 9129TIP3    H148802   5.285   5.755   0.583  1.2576  1.0346 -1.2695
 9129TIP3    H248803   5.316   5.817   0.718 -1.6721 -0.9454  0.4108
 9130TIP3   OH248804   1.208   6.639   3.221 -0.3600  0.7316  0.0174
 9130TIP3    H148805   1.149   6.584   3.171  0.8708 -1.3090  0.7110
 9130TIP3    H248806   1.253   6.579   3.280  1.3598  2.4198  0.5225
 9131TIP3   OH248807   1.238   5.966  15.146  0.1788  0.0268 -0.1479
 9131TIP3    H148808   1.308   6.020  15.182 -0.8338  0.0461  1.9146
 9131TIP3    H248809   1.179   6.028  15.103  0.1467  0.3225  0.3151
 9132TIP3   OH248810   4.026   6.617  16.833  0.1018  0.2187 -0.3451
 9132TIP3    H148811   4.097   6.553  16.824 -0.6649 -0.6582 -0.3973
 9132TIP3    H248812   3.991   6.625  16.744  0.5707  1.1805 -0.4551
 9133TIP3   OH248813   4.350   4.124  15.244 -0.6444  0.5889 -0.1380
 9133TIP3    H148814   4.272   4.127  15.299  0.0307  2.3157  0.8309
 9133TIP3    H248815   4.326   4.174  15.166 -0.3589  1.6902  0.4468
 9134TIP3   OH248816   4.484   1.892   2.637  0.3736 -0.3188 -0.0886
 9134TIP3    H148817   4.509   1.952   2.707  2.6703 -1.2508 -0.0202
 9134TIP3    H248818   4.560   1.890   2.579 -0.0290 -2.3418 -0.6289
 9135TIP3   OH248819   3.593   4.450  16.377  0.0726  0.7561  0.2571
 9135TIP3    H148820   3.545   4.524  16.415  0.2378  1.0768 -0.1565
 9135TIP3    H248821   3.533   4.376  16.385 -0.0910  0.9311  0.6802
 9136TIP3   OH248822   1.698   0.807  10.902  0.3235 -0.2052 -0.1382
 9136TIP3    H148823   1.685   0.799  10.807 -1.4822  0.4591  0.0096
 9136TIP3    H248824   1.650   0.733  10.939  1.6129 -0.8737  0.2563
 9137TIP3   OH248825   2.916   4.319   4.657 -0.4434  0.0151  0.0710
 9137TIP3    H148826   2.985   4.357   4.604 -1.2143  1.3114 -0.0606
 9137TIP3    H248827   2.961   4.263   4.720  0.7189  0.7870 -0.0509
 9138TIP3   OH248828   4.595   1.789  12.066  0.3666  0.6979 -0.0724
 9138TIP3    H148829   4.533   1.829  12.127 -0.1806  0.6874 -0.6165
 9138TIP3    H248830   4.556   1.705  12.044  1.6855 -0.3627  1.3635
 9139TIP3   OH248831   5.290   4.842  12.322 -0.0008  0.3061 -0.6268
 9139TIP3    H148832   5.269   4.889  12.242  0.3553 -0.5103 -1.2150
 9139TIP3    H248833   5.241   4.760  12.316 -0.6599  0.6132  0.4082
 9140TIP3   OH248834   4.694   0.168  16.234 -0.4793 -0.1079 -0.7157
 9140TIP3    H148835   4.768   0.215  16.273 -0.6638  0.1177 -0.6340
 9140TIP3    H248836   4.650   0.126  16.308  0.6907 -1.8860 -0.9630
 9141TIP3   OH248837   4.684   5.223  13.231  0.0017  0.4772  0.2165
 9141TIP3    H148838   4.649   5.264  13.152  0.2647  1.2658  0.4953
 9141TIP3    H248839   4.770   5.263  13.242  0.3070 -0.2320  0.4520
 9142TIP3   OH248840   4.281   4.968  12.802  0.0859  0.2234  0.2093
 9142TIP3    H148841   4.315   5.056  12.816 -0.8857  0.2667  2.7241
 9142TIP3    H248842   4.202   4.964  12.855 -1.8221 -1.1077 -2.4591
 9143TIP3   OH248843   1.982   4.539   3.203 -0.5484  0.2454 -0.6046
 9143TIP3    H148844   2.067   4.552   3.161 -1.0638 -0.4949 -1.9377
 9143TIP3    H248845   2.004   4.511   3.292  0.6066  0.2151 -0.8799
 9144TIP3   OH248846   0.885   1.104  12.423 -0.3123 -0.2105  0.2199
 9144TIP3    H148847   0.858   1.060  12.503 -0.2050 -2.3245 -0.8261
 9144TIP3    H248848   0.953   1.047  12.386  0.7975  1.5333 -0.5805
 9145TIP3   OH248849   3.722   5.180   3.297  0.1164  0.0423  0.2619
 9145TIP3    H148850   3.788   5.218   3.355 -0.7203 -0.3084  1.4913
 9145TIP3    H248851   3.672   5.256   3.267 -0.2219  0.1297  1.0117
 9146TIP3   OH248852   0.656   4.155   4.682 -0.0469  0.5448  0.1254
 9146TIP3    H148853   0.729   4.176   4.624  0.7330 -1.9077  0.1037
 9146TIP3    H248854   0.696   4.143   4.768 -0.5164 -0.1529  0.2563
 9147TIP3   OH248855   3.813   1.736  12.054 -0.5314 -0.4974  0.3957
 9147TIP3    H148856   3.897   1.777  12.035 -0.3328 -0.7112  0.8013
 9147TIP3    H248857   3.782   1.704  11.969  0.8548 -2.4169  0.5591
 9148TIP3   OH248858   5.271   4.794   0.059 -0.4157 -0.1851 -0.5495
 9148TIP3    H148859   5.181   4.803   0.090 -0.2664  0.5318 -0.2955
 9148TIP3    H248860   5.312   4.877   0.082  1.2868 -1.6927  2.4681
 9149TIP3   OH248861   4.635   2.146   0.856 -0.0283  0.3877  0.3777
 9149TIP3    H148862   4.701   2.100   0.804 -2.0111  0.2171 -2.1691
 9149TIP3    H248863   4.593   2.206   0.795  0.6204  3.7863  2.9523
 9150TIP3   OH248864   6.241   1.189  13.969  0.3817 -0.5757  0.1493
 9150TIP3    H148865   6.226   1.226  14.056 -0.4839 -0.6639  0.0448
 9150TIP3    H248866   6.200   1.103  13.972  1.0934 -0.9260 -0.0799
 9151TIP3   OH248867   5.326   3.047   5.365  0.1449  0.0197 -0.2829
 9151TIP3    H148868   5.358   3.115   5.424  1.3854 -1.0435  0.3204
 9151TIP3    H248869   5.236   3.032   5.393  1.2289 -1.7262  2.6355
 9152TIP3   OH248870   1.470   1.348  11.012  0.3122  0.5063  0.0110
 9152TIP3    H148871   1.410   1.280  11.043  1.5067 -1.1535 -1.1522
 9152TIP3    H248872   1.451   1.424  11.067 -2.2181 -0.2287  0.2638
 9153TIP3   OH248873   2.754   4.267   3.790  0.2905 -0.6474 -0.5526
 9153TIP3    H148874   2.802   4.201   3.841  0.6184  1.1719  1.6540
 9153TIP3    H248875   2.778   4.351   3.830 -1.3075  0.7145 -2.2500
 9154TIP3   OH248876   2.359   3.501  14.585 -0.2689 -0.8807 -0.0038
 9154TIP3    H148877   2.401   3.585  14.603  0.8592 -1.7502  1.6224
 9154TIP3    H248878   2.265   3.520  14.586 -0.0192  0.6998 -1.6157
 9155TIP3   OH248879   1.388   2.851  11.336  0.3492 -0.2494 -0.5297
 9155TIP3    H148880   1.400   2.798  11.415  0.5258 -1.2961 -1.2429
 9155TIP3    H248881   1.333   2.925  11.365  0.3170 -0.6714  0.5361
 9156TIP3   OH248882   4.402   1.171  11.466  0.2545 -0.6666 -0.0911
 9156TIP3    H148883   4.364   1.203  11.548 -0.9548 -1.5425 -0.2926
 9156TIP3    H248884   4.464   1.240  11.440 -0.3905  0.2828  0.8187
 9157TIP3   OH248885   0.109   2.572  15.186 -0.4057 -0.1825 -0.2051
 9157TIP3    H148886   0.169   2.511  15.142 -1.9226 -0.7717 -1.5538
 9157TIP3    H248887   0.150   2.587  15.271  1.4031 -0.9287 -0.8754
 9158TIP3   OH248888   1.845   4.037  15.734 -0.1329  0.2522 -0.5890
 9158TIP3    H148889   1.869   3.960  15.683 -0.3922 -1.5382  1.8093
 9158TIP3    H248890   1.911   4.103  15.711  0.1084 -0.6360 -2.6931
 9159TIP3   OH248891   6.287   4.311  11.610 -0.8180 -0.2950  0.1807
 9159TIP3    H148892   6.320   4.398  11.631 -1.8401 -0.1342  1.2236
 9159TIP3    H248893   6.261   4.316  11.518 -0.5828  0.3929  0.1486
 9160TIP3   OH248894   0.887   6.135   4.472 -0.7838 -0.3343  0.0300
 9160TIP3    H148895   0.825   6.097   4.410 -1.3362  0.4828  0.0627
 9160TIP3    H248896   0.839   6.208   4.511 -0.6517 -1.1373  1.7990
 9161TIP3   OH248897   5.584   2.841  17.391  0.4164  0.2372  0.2789
 9161TIP3    H148898   5.532   2.809  17.464 -1.0468  0.4653 -0.6125
 9161TIP3    H248899   5.554   2.790  17.316  1.6644  0.2189 -0.2286
 9162TIP3   OH248900   5.326   4.790   0.709  0.0580  0.6569 -0.1985
 9162TIP3    H148901   5.354   4.833   0.629 -0.5984 -0.8938 -1.2991
 9162TIP3    H248902   5.231   4.798   0.710 -0.0919 -0.8435 -0.5015
 9163TIP3   OH248903   2.065   2.018   4.624 -0.3740 -0.4987  0.0641
 9163TIP3    H148904   2.131   2.086   4.636 -0.0628 -0.9244  0.7965
 9163TIP3    H248905   2.101   1.941   4.668  0.0011 -1.6275 -2.0571
 9164TIP3   OH248906   2.672   0.386   4.202 -0.5416  0.1199  0.2871
 9164TIP3    H148907   2.672   0.329   4.125  3.7153  1.1875 -0.7730
 9164TIP3    H248908   2.692   0.327   4.275 -0.2244 -0.3107 -0.1396
 9165TIP3   OH248909   2.261   1.539   6.022  0.1199  0.5893  0.1964
 9165TIP3    H148910   2.255   1.622   6.070  0.3441  1.0622 -0.5735
 9165TIP3    H248911   2.221   1.475   6.080  0.3039  1.1675  0.9719
 9166TIP3   OH248912   3.144   5.872  15.396 -0.6869  0.4426  0.5204
 9166TIP3    H148913   3.161   5.917  15.313 -0.6908 -0.5066 -0.0016
 9166TIP3    H248914   3.230   5.867  15.438  0.0733 -2.4093 -1.1425
 9167TIP3   OH248915   4.952   6.451   4.016  0.0418  0.2201  0.2335
 9167TIP3    H148916   4.994   6.366   4.003 -2.7810 -1.0944 -1.1439
 9167TIP3    H248917   5.007   6.513   3.967  1.0695 -1.1498 -0.4028
 9168TIP3   OH248918   5.759   2.562  17.067  0.1267  0.2853  0.2843
 9168TIP3    H148919   5.705   2.486  17.090 -0.3043  0.5982  0.3188
 9168TIP3    H248920   5.705   2.638  17.090 -0.3850  0.6246 -1.8517
 9169TIP3   OH248921   2.894   5.902   1.111  0.3474 -0.3109 -0.4636
 9169TIP3    H148922   2.990   5.903   1.113  0.3710 -1.5671 -0.4112
 9169TIP3    H248923   2.871   5.845   1.038 -0.3610 -0.6660  0.0234
 9170TIP3   OH248924   1.377   1.018   1.073  0.9634 -0.9533 -0.4941
 9170TIP3    H148925   1.376   1.109   1.042 -0.8396  0.5712  3.3743
 9170TIP3    H248926   1.328   0.970   1.006 -0.1029  1.3888 -1.5398
 9171TIP3   OH248927   4.928   2.787  11.083 -0.5260 -0.6512  0.3455
 9171TIP3    H148928   4.912   2.831  11.166 -0.8597 -2.1162  1.0828
 9171TIP3    H248929   4.865   2.827  11.022 -0.7073 -0.0081  0.9447
 9172TIP3   OH248930   1.714   1.765   2.451 -0.1334 -0.1976 -0.3742
 9172TIP3    H148931   1.770   1.842   2.443  1.6402 -1.2494  1.3284
 9172TIP3    H248932   1.626   1.801   2.464  0.7987  1.5975  1.4811
 9173TIP3   OH248933   4.003   6.379   5.904  0.0442  0.7687  0.0302
 9173TIP3    H148934   4.003   6.333   5.820  1.3599  1.2344 -0.2579
 9173TIP3    H248935   4.009   6.310   5.970 -0.5286  0.4214 -0.2847
 9174TIP3   OH248936   5.268   0.653  12.517  0.1777  0.1095  0.4425
 9174TIP3    H148937   5.324   0.609  12.454 -1.0884  0.3628 -0.9209
 9174TIP3    H248938   5.236   0.583  12.575 -0.4840 -0.5424 -0.6619
 9175TIP3   OH248939   3.125   5.120   3.884  0.6789 -0.3311 -0.3126
 9175TIP3    H148940   3.190   5.056   3.854  0.8516  0.3372 -1.4195
 9175TIP3    H248941   3.159   5.204   3.854 -1.5713 -0.1155 -2.6229
 9176TIP3   OH248942   2.561   4.086  12.667 -0.1001 -0.1588 -0.2141
 9176TIP3    H148943   2.612   4.166  12.679 -1.6631  1.0218 -1.1138
 9176TIP3    H248944   2.613   4.034  12.606  0.9725  0.1000  0.4418
 9177TIP3   OH248945   5.391   2.674  10.746 -0.1320  0.5580  0.5777
 9177TIP3    H148946   5.440   2.593  10.729 -1.2466  0.4863 -3.4032
 9177TIP3    H248947   5.459   2.741  10.754  0.7428 -0.3636  1.0570
 9178TIP3   OH248948   3.507   0.299  12.364 -0.0957 -0.0610  0.1308
 9178TIP3    H148949   3.601   0.302  12.384 -0.0654  1.8068 -0.1305
 9178TIP3    H248950   3.465   0.347  12.435 -1.0007 -1.6899  0.7568
 9179TIP3   OH248951   1.380   3.357   6.394  0.5878  0.3691 -0.1944
 9179TIP3    H148952   1.462   3.399   6.369  1.4903 -0.6964  0.8163
 9179TIP3    H248953   1.404   3.265   6.405 -0.7663  0.0368  0.0944
 9180TIP3   OH248954   2.964   2.431   0.287  0.1852  0.0213  0.0372
 9180TIP3    H148955   2.997   2.434   0.198  0.2544  2.4938  0.0854
 9180TIP3    H248956   3.034   2.390   0.337  0.3291 -0.9724 -0.9338
 9181TIP3   OH248957   2.769   0.195   5.069 -0.7497  0.4090 -0.1741
 9181TIP3    H148958   2.826   0.125   5.100 -2.7198 -0.4420  1.7994
 9181TIP3    H248959   2.801   0.274   5.113 -1.5154 -0.2016  1.5357
 9182TIP3   OH248960   3.498   2.755  16.483  0.3696 -0.2606 -0.0181
 9182TIP3    H148961   3.458   2.669  16.471  2.0785 -0.9266 -1.3908
 9182TIP3    H248962   3.441   2.800  16.546 -0.7962 -2.2212  0.3942
 9183TIP3   OH248963   6.480   5.721   2.034  0.0833  0.2627  0.2115
 9183TIP3    H148964   6.425   5.727   2.112 -2.2896 -1.8124 -1.1317
 9183TIP3    H248965   6.543   5.651   2.055 -1.2281 -1.0374 -0.0422
 9184TIP3   OH248966   2.565   4.151  15.208  0.2331  0.0751 -0.2114
 9184TIP3    H148967   2.642   4.158  15.265  0.6841  0.7920 -0.8991
 9184TIP3    H248968   2.598   4.165  15.120 -0.6933  0.4192 -0.5215
 9185TIP3   OH248969   4.718   0.408  15.247  0.3272  0.0593  0.1086
 9185TIP3    H148970   4.778   0.457  15.190 -0.1139  1.1467  0.5717
 9185TIP3    H248971   4.631   0.428  15.214  0.1187 -0.0966  0.5564
 9186TIP3   OH248972   6.332   4.580  11.670  0.1271 -0.1008  0.3271
 9186TIP3    H148973   6.332   4.615  11.759  0.0497 -0.8614  0.6298
 9186TIP3    H248974   6.312   4.656  11.615 -0.0767  0.3272  0.9755
 9187TIP3   OH248975   2.122   0.390  16.037  0.2654  0.4767  0.9358
 9187TIP3    H148976   2.070   0.416  16.113  1.2741  1.5914  1.2782
 9187TIP3    H248977   2.151   0.472  15.998  1.2072 -0.1051  0.3706
 9188TIP3   OH248978   4.952   4.857   4.556  0.2042 -0.0976 -0.5851
 9188TIP3    H148979   5.014   4.819   4.618  0.4150  0.9849 -0.1134
 9188TIP3    H248980   4.951   4.951   4.577 -0.1756  0.1943 -1.8260
 9189TIP3   OH248981   3.083   4.359   3.646  0.5492  0.1778 -0.5971
 9189TIP3    H148982   3.012   4.311   3.603  0.2170  0.7518 -0.7019
 9189TIP3    H248983   3.090   4.441   3.596 -0.0331  0.9774  0.5866
 9190TIP3   OH248984   2.763   3.500  12.187 -0.2779  0.3873  0.3305
 9190TIP3    H148985   2.724   3.532  12.105  0.8635 -2.4775 -1.4973
 9190TIP3    H248986   2.856   3.520  12.178 -0.0167 -0.6815  0.4860
 9191TIP3   OH248987   6.732   4.644   0.887 -0.1687  0.2596  0.1304
 9191TIP3    H148988   6.639   4.663   0.900 -0.3630 -1.1921  1.1982
 9191TIP3    H248989   6.746   4.653   0.793 -1.8578 -1.2968 -0.3218
 9192TIP3   OH248990   5.380   0.980  13.495 -0.3053 -0.0569 -0.1733
 9192TIP3    H148991   5.362   0.923  13.420  1.1034 -0.1336 -0.4819
 9192TIP3    H248992   5.443   0.931  13.547 -2.7193 -0.9116  2.1972
 9193TIP3   OH248993   1.090   3.799  16.354  0.4040 -0.4566 -0.0918
 9193TIP3    H148994   1.102   3.871  16.293  0.2206 -0.4757 -0.1534
 9193TIP3    H248995   1.097   3.840  16.441  1.1814 -0.5222 -0.1246
 9194TIP3   OH248996   3.985   3.286  15.800  0.2576 -0.4770  0.2276
 9194TIP3    H148997   3.905   3.260  15.846 -0.8064  0.6253 -0.9270
 9194TIP3    H248998   3.993   3.224  15.728 -2.3270  2.1003 -2.5781
 9195TIP3   OH248999   2.580   5.511  17.038 -0.9222 -0.2268  0.2159
 9195TIP3    H149000   2.647   5.501  17.107 -1.1610 -0.3245  0.4351
 9195TIP3    H249001   2.566   5.422  17.006  0.9990  0.0841 -1.6997
 9196TIP3   OH249002   1.308   2.066  14.930  0.4603  0.0696  0.1774
 9196TIP3    H149003   1.301   2.158  14.903  0.7232 -0.2258 -0.9434
 9196TIP3    H249004   1.392   2.037  14.895 -0.7643 -1.3271 -1.8188
 9197TIP3   OH249005   0.454   4.453  16.588 -0.8265  0.2537  0.1227
 9197TIP3    H149006   0.444   4.505  16.509 -1.9558  1.6453  1.1413
 9197TIP3    H249007   0.367   4.450  16.627  0.1164  1.6511  2.5392
 9198TIP3   OH249008   2.860   3.793  11.988 -0.1903  0.6006 -0.5262
 9198TIP3    H149009   2.816   3.712  11.962 -0.1597 -0.3136  1.9854
 9198TIP3    H249010   2.952   3.767  11.999 -0.7149 -0.1612  3.8956
 9199TIP3   OH249011   3.638   4.575   1.686  0.4294 -0.5980 -0.8482
 9199TIP3    H149012   3.643   4.652   1.628  3.0985 -1.5526 -2.0745
 9199TIP3    H249013   3.636   4.612   1.774  0.7200  0.8898 -1.4281
 9200TIP3   OH249014   3.252   5.438  13.998 -0.4430  0.1213 -0.0892
 9200TIP3    H149015   3.296   5.520  14.022  0.9248  0.1571 -2.4101
 9200TIP3    H249016   3.306   5.370  14.038  0.0179  0.2757 -0.4397
 9201TIP3   OH249017   4.853   5.643   6.168 -0.2267  0.2299 -0.2965
 9201TIP3    H149018   4.855   5.667   6.075  2.8668 -1.3292 -0.7654
 9201TIP3    H249019   4.908   5.708   6.211  0.0359 -0.2381  0.0846
 9202TIP3   OH249020   6.460   5.980   3.704 -0.0784 -0.5894 -0.2614
 9202TIP3    H149021   6.532   6.041   3.687 -0.1760 -0.3251  0.2628
 9202TIP3    H249022   6.384   6.019   3.661  0.1022 -0.9120 -0.8907
 9203TIP3   OH249023   3.566   6.316   3.942  0.5619  0.1060  0.0609
 9203TIP3    H149024   3.576   6.224   3.917 -0.4987 -0.4087  1.4380
 9203TIP3    H249025   3.585   6.319   4.035 -0.7587  1.0292  0.3331
 9204TIP3   OH249026   3.740   3.481   1.330  0.1589 -0.8940  0.1139
 9204TIP3    H149027   3.763   3.570   1.303  1.2481 -1.6690 -1.7648
 9204TIP3    H249028   3.779   3.471   1.416  4.4955 -1.0613 -1.6131
 9205TIP3   OH249029   1.120   4.203   5.944  0.2786 -0.0054 -0.5932
 9205TIP3    H149030   1.148   4.258   5.871 -0.4186  1.5864  0.2888
 9205TIP3    H249031   1.035   4.169   5.918  0.0063  0.6044 -0.5141
 9206TIP3   OH249032   1.461   2.479   0.663  0.0694  0.7534  0.5119
 9206TIP3    H149033   1.386   2.505   0.716 -1.6480 -2.7018  0.0333
 9206TIP3    H249034   1.432   2.490   0.572  0.0568 -0.6660  0.3207
 9207TIP3   OH249035   3.857   0.865   0.213  0.2642  0.2239 -0.7428
 9207TIP3    H149036   3.847   0.810   0.136  1.1216 -0.8224 -0.1313
 9207TIP3    H249037   3.944   0.843   0.248  0.5544  1.8207 -0.3637
 9208TIP3   OH249038   5.461   4.818   2.213  0.7036 -0.5152  0.4811
 9208TIP3    H149039   5.531   4.755   2.193  0.3612 -0.9456  0.6145
 9208TIP3    H249040   5.469   4.835   2.307  1.6956  0.7537  0.1906
 9209TIP3   OH249041   5.409   1.716  13.325  1.0542  0.4158 -0.0519
 9209TIP3    H149042   5.451   1.725  13.240  0.0125 -0.9479 -0.7452
 9209TIP3    H249043   5.415   1.622  13.345 -0.7859  0.3281  0.2551
 9210TIP3   OH249044   6.649   1.743  15.921 -1.3682 -0.6413 -0.4544
 9210TIP3    H149045   6.579   1.682  15.944 -2.3241  1.1900  1.9482
 9210TIP3    H249046   6.730   1.693  15.934 -2.1189 -1.5607  1.0433
 9211TIP3   OH249047   0.140   3.459  13.890 -0.1757  0.3873  0.1672
 9211TIP3    H149048   0.063   3.506  13.858  0.0900  0.5153 -0.2982
 9211TIP3    H249049   0.214   3.514  13.865  0.1704 -0.4772 -0.8030
 9212TIP3   OH249050   0.866   3.521  14.244 -0.2780 -0.1424  0.5141
 9212TIP3    H149051   0.827   3.567  14.318  1.3714 -0.8382  1.8725
 9212TIP3    H249052   0.857   3.583  14.171 -1.4469  0.7813  1.3883
 9213TIP3   OH249053   2.967   2.171   4.336 -0.1376  0.1603  0.4808
 9213TIP3    H149054   3.051   2.216   4.325  0.5385 -1.1987 -0.2164
 9213TIP3    H249055   2.918   2.192   4.257 -0.1431  0.2985  0.5200
 9214TIP3   OH249056   2.160   4.743  15.161  0.1043 -0.1751 -0.2240
 9214TIP3    H149057   2.181   4.836  15.172 -0.6758  0.0472 -0.5009
 9214TIP3    H249058   2.245   4.700  15.150  0.4225  0.7059 -1.5321
 9215TIP3   OH249059   6.479   2.620   1.445 -0.0712 -0.3356 -0.6149
 9215TIP3    H149060   6.566   2.583   1.457 -0.6020 -1.5392 -0.3828
 9215TIP3    H249061   6.438   2.565   1.379 -1.0679 -0.5053  0.1346
 9216TIP3   OH249062   0.174   5.148  15.014  0.2641 -0.5199 -0.4861
 9216TIP3    H149063   0.121   5.208  14.961 -0.1909 -0.3325  0.1643
 9216TIP3    H249064   0.201   5.079  14.953 -2.9191 -2.0640 -0.3175
 9217TIP3   OH249065   2.018   2.398  15.112  0.2279  0.2343  0.0495
 9217TIP3    H149066   1.964   2.471  15.082  0.5517  0.1076 -0.8697
 9217TIP3    H249067   2.104   2.413  15.073  0.2184 -0.7927 -0.4120
 9218TIP3   OH249068   3.436   6.720  15.911 -0.1161 -0.6021 -0.2787
 9218TIP3    H149069   3.419   6.672  15.992 -0.2023 -1.2771 -0.6891
 9218TIP3    H249070   3.531   6.729  15.907 -0.1200 -0.4555 -0.0404
 9219TIP3   OH249071   1.153   6.716   4.101 -0.1075  0.4485 -0.4699
 9219TIP3    H149072   1.108   6.658   4.039  0.1949  1.5333 -1.7335
 9219TIP3    H249073   1.225   6.662   4.135  0.6950  0.3157 -2.2789
 9220TIP3   OH249074   4.426   3.470  16.025 -0.1250  0.8427 -0.3633
 9220TIP3    H149075   4.342   3.453  15.984 -0.3126 -0.7454  0.6135
 9220TIP3    H249076   4.443   3.393  16.079  3.1038 -0.0396 -2.3754
 9221TIP3   OH249077   4.439   0.930   2.096 -0.6947 -0.6356  0.0185
 9221TIP3    H149078   4.391   0.962   2.020 -0.8767 -0.3265  0.2595
 9221TIP3    H249079   4.379   0.944   2.170 -1.3243 -2.7643 -0.0318
 9222TIP3   OH249080   1.197   0.610  15.187  0.6527 -0.0445  0.0689
 9222TIP3    H149081   1.187   0.705  15.185 -1.4810 -0.1583  1.8376
 9222TIP3    H249082   1.170   0.581  15.100 -1.6195  0.8022  0.4409
 9223TIP3   OH249083   1.295   3.984   4.776  0.0963 -0.4287 -0.0792
 9223TIP3    H149084   1.263   4.066   4.814 -0.4568 -0.4606 -0.4525
 9223TIP3    H249085   1.342   3.941   4.847 -1.4596 -0.7812  0.7859
 9224TIP3   OH249086   6.580   4.550   5.145 -0.1031 -0.4640  0.1885
 9224TIP3    H149087   6.517   4.528   5.212  1.2435 -0.3732  1.5358
 9224TIP3    H249088   6.529   4.594   5.077 -1.4021  0.0055  1.4306
 9225TIP3   OH249089   3.783   1.454   3.543  0.1170  0.6409 -0.4474
 9225TIP3    H149090   3.743   1.418   3.622 -0.3860 -0.0238 -0.9884
 9225TIP3    H249091   3.711   1.460   3.480  0.6389  0.5244 -1.0676
 9226TIP3   OH249092   6.724   6.638  13.362  0.3587 -0.3935  0.1624
 9226TIP3    H149093   6.709   6.723  13.322  0.6723 -0.7273 -0.6990
 9226TIP3    H249094   6.649   6.624  13.420 -1.4526 -0.9554 -2.1584
 9227TIP3   OH249095   5.328   0.991  15.087 -0.1244  0.3230 -0.2745
 9227TIP3    H149096   5.400   0.949  15.040 -0.7661 -0.9613 -0.1327
 9227TIP3    H249097   5.355   0.991  15.179  0.4110  1.3555 -0.4182
 9228TIP3   OH249098   1.718   0.624   4.910 -0.4371  0.0694  0.0971
 9228TIP3    H149099   1.791   0.564   4.898 -0.3567 -0.2689  1.9897
 9228TIP3    H249100   1.757   0.703   4.946 -1.0166 -0.2597  1.5088
 9229TIP3   OH249101   4.338   3.878   1.394  0.4943 -0.1116 -0.2117
 9229TIP3    H149102   4.383   3.794   1.379 -0.1485 -0.4940 -0.0031
 9229TIP3    H249103   4.337   3.920   1.307  0.4651 -0.4906 -0.3951
 9230TIP3   OH249104   1.072   2.617  12.778 -0.1883 -0.6313  0.0547
 9230TIP3    H149105   1.133   2.606  12.705 -0.4540  2.0744 -0.6767
 9230TIP3    H249106   0.997   2.562  12.755  0.7088 -1.6729 -0.4932
 9231TIP3   OH249107   1.192   4.551  12.408  0.3746 -0.1426  0.3175
 9231TIP3    H149108   1.171   4.460  12.390 -1.9441  0.6444 -1.6076
 9231TIP3    H249109   1.249   4.578  12.336  0.8616 -0.0106  0.7494
 9232TIP3   OH249110   4.714   4.903  15.443  0.7628  0.1859 -0.2363
 9232TIP3    H149111   4.660   4.928  15.518  0.6522  0.3265 -0.3599
 9232TIP3    H249112   4.803   4.926  15.469  0.6980  0.4391 -0.2317
 9233TIP3   OH249113   0.229   3.131   6.190 -0.6242 -0.0154  0.1754
 9233TIP3    H149114   0.134   3.134   6.195 -0.6388  0.1027 -0.1517
 9233TIP3    H249115   0.258   3.132   6.281 -1.0158 -2.3884  0.4045
 9234TIP3   OH249116   4.846   2.717  14.733  0.2811 -0.3888  1.1997
 9234TIP3    H149117   4.928   2.755  14.702  0.3460 -0.2720  1.5188
 9234TIP3    H249118   4.801   2.691  14.652 -0.0458  0.9279  0.9224
 9235TIP3   OH249119   4.465   4.983   0.565 -0.0038 -0.2701  0.2237
 9235TIP3    H149120   4.536   4.960   0.626  0.3843 -2.1661 -0.8453
 9235TIP3    H249121   4.416   4.901   0.555 -0.1656  0.0335 -1.8395
 9236TIP3   OH249122   6.638   2.333   1.237  0.2496 -0.5382  0.1098
 9236TIP3    H149123   6.557   2.371   1.272 -1.8221 -4.3186 -0.0870
 9236TIP3    H249124   6.622   2.326   1.143  1.9136  0.9006 -0.3323
 9237TIP3   OH249125   4.676   5.166   1.557 -0.4181  0.3002  0.3770
 9237TIP3    H149126   4.679   5.251   1.512 -1.7125 -0.2609 -0.8377
 9237TIP3    H249127   4.597   5.124   1.524  1.0313 -2.0749 -0.3356
 9238TIP3   OH249128   0.862   2.977  15.726  0.8104 -0.5933 -0.0947
 9238TIP3    H149129   0.798   2.909  15.702  1.5350 -1.3264  0.0192
 9238TIP3    H249130   0.812   3.039  15.780 -0.6787  0.6890 -2.7441
 9239TIP3   OH249131   6.054   0.782   2.792  0.1093  0.2164 -0.1344
 9239TIP3    H149132   6.084   0.870   2.769  0.4560  0.1937  0.2178
 9239TIP3    H249133   6.096   0.724   2.728  0.6809  0.2044  0.2447
 9240TIP3   OH249134   1.388   4.400   1.367 -0.6322  0.4827 -0.0967
 9240TIP3    H149135   1.466   4.419   1.315 -1.1812  0.6653 -0.8706
 9240TIP3    H249136   1.369   4.483   1.411 -1.1072  0.8022 -0.8864
 9241TIP3   OH249137   4.187   3.524  10.553  0.1430 -0.3036  0.0791
 9241TIP3    H149138   4.255   3.472  10.596 -0.7566 -1.6193 -0.0529
 9241TIP3    H249139   4.178   3.602  10.608 -0.1429 -1.3810  1.6159
 9242TIP3   OH249140   2.001   2.859   2.002  0.3816  0.1669  0.0032
 9242TIP3    H149141   1.983   2.798   1.930  0.7273  0.3221 -0.2212
 9242TIP3    H249142   2.097   2.864   2.004  0.3796  2.7974 -1.7867
 9243TIP3   OH249143   4.606   4.018   0.938  0.1793 -0.0845 -0.5799
 9243TIP3    H149144   4.701   4.025   0.939  0.3527 -1.9458  0.3663
 9243TIP3    H249145   4.588   3.935   0.894 -1.0062  0.3239 -0.8925
 9244TIP3   OH249146   3.628   5.113   4.968 -0.2240 -0.2986 -0.1455
 9244TIP3    H149147   3.700   5.163   4.929 -0.6778  1.0763  0.7044
 9244TIP3    H249148   3.550   5.147   4.926 -0.4250 -1.7843 -1.0565
 9245TIP3   OH249149   1.000   5.803  12.216 -0.1589  0.3756  0.6062
 9245TIP3    H149150   1.066   5.836  12.278  0.4496  2.7823 -1.1473
 9245TIP3    H249151   1.050   5.785  12.136 -1.0698 -1.7251  0.4571
 9246TIP3   OH249152   1.561   1.523  11.199  0.2923 -0.7285 -0.2086
 9246TIP3    H149153   1.593   1.534  11.288 -0.9766  1.0323  0.0585
 9246TIP3    H249154   1.619   1.579  11.146 -1.1225  1.0575  0.0390
 9247TIP3   OH249155   0.751   1.349   1.101 -0.5850  0.0554  0.0941
 9247TIP3    H149156   0.737   1.268   1.151 -0.4114 -0.6754 -0.9992
 9247TIP3    H249157   0.665   1.391   1.099 -0.9272 -0.6437 -0.2329
 9248TIP3   OH249158   4.243   4.429  12.998  0.2933 -0.2144  0.1295
 9248TIP3    H149159   4.246   4.398  13.089  0.7742  0.8394  0.4837
 9248TIP3    H249160   4.156   4.403  12.967 -1.5707  2.9621  2.1985
 9249TIP3   OH249161   4.923   1.765  17.359  0.7094  0.2387 -0.2565
 9249TIP3    H149162   4.881   1.755  17.444  0.9357  0.3960 -0.1258
 9249TIP3    H249163   4.920   1.678  17.320  0.5467  0.1812 -0.1173
 9250TIP3   OH249164   6.148   6.015   3.513 -0.2327  0.5786  0.1752
 9250TIP3    H149165   6.087   5.948   3.482 -0.8158  0.9826  0.4168
 9250TIP3    H249166   6.126   6.027   3.605  0.7535  0.1711  0.4782
 9251TIP3   OH249167   6.667   1.093  11.108 -0.0686  0.6011 -0.5314
 9251TIP3    H149168   6.626   1.128  11.187  2.5299  0.8260  0.8163
 9251TIP3    H249169   6.595   1.081  11.047 -1.8608  2.6605  1.0363
 9252TIP3   OH249170   5.246   5.632  11.587  0.0466 -0.1047  0.0190
 9252TIP3    H149171   5.184   5.646  11.515 -0.3663 -0.6483  0.2636
 9252TIP3    H249172   5.332   5.648  11.548 -0.2491  0.7680 -0.2941
 9253TIP3   OH249173   2.713   1.523  14.180 -0.0090 -0.1084 -0.2165
 9253TIP3    H149174   2.773   1.458  14.143  0.6044  1.1786 -1.6467
 9253TIP3    H249175   2.742   1.606  14.141 -0.2835  1.1543  2.0881
 9254TIP3   OH249176   5.493   6.327   5.467 -0.0286 -0.1867  0.2408
 9254TIP3    H149177   5.399   6.310   5.455  0.0150  0.0427 -0.5319
 9254TIP3    H249178   5.517   6.378   5.389  0.3007  1.5254  1.4150
 9255TIP3   OH249179   1.131   3.214   0.903  0.2668  0.0519  0.1405
 9255TIP3    H149180   1.198   3.149   0.880  2.1158  1.6248  0.7794
 9255TIP3    H249181   1.068   3.209   0.831  0.2095 -2.5372  0.2632
 9256TIP3   OH249182   1.059   5.424  11.800  0.3552 -0.1657 -0.0460
 9256TIP3    H149183   1.039   5.363  11.729  1.1740 -0.5977  0.0832
 9256TIP3    H249184   1.142   5.465  11.774 -0.3419  1.1391 -0.2837
 9257TIP3   OH249185   3.463   4.095   3.286  0.0608 -0.1098 -0.7756
 9257TIP3    H149186   3.539   4.125   3.337 -0.0056 -0.1775 -0.6354
 9257TIP3    H249187   3.439   4.011   3.326 -0.7406  0.4076 -0.1381
 9258TIP3   OH249188   3.563   1.990  11.284  0.5589 -0.6688  0.2781
 9258TIP3    H149189   3.547   2.084  11.274  2.2918 -0.3330  0.3833
 9258TIP3    H249190   3.477   1.950  11.268 -0.7022  1.0293  2.2397
 9259TIP3   OH249191   6.233   4.451   0.899  0.1469 -0.6658  0.1496
 9259TIP3    H149192   6.320   4.491   0.898 -0.4391  0.7786  1.5303
 9259TIP3    H249193   6.227   4.404   0.816  2.0098 -0.3090 -0.2353
 9260TIP3   OH249194   4.622   4.301   6.137  0.1412  0.1582 -0.1019
 9260TIP3    H149195   4.624   4.208   6.162 -1.8208 -0.4327 -1.8152
 9260TIP3    H249196   4.599   4.347   6.218 -2.2502 -1.2475  0.1011
 9261TIP3   OH249197   2.816   0.333   4.660  0.0148  1.0853 -0.0422
 9261TIP3    H149198   2.799   0.401   4.724 -0.4502  1.3306 -0.4166
 9261TIP3    H249199   2.905   0.303   4.679 -0.3001  0.7806  1.0487
 9262TIP3   OH249200   1.910   5.807  15.979 -0.1494  0.2755 -0.2098
 9262TIP3    H149201   1.956   5.841  16.056 -1.5678  0.3154  0.6568
 9262TIP3    H249202   1.935   5.867  15.909 -0.9475  1.8869  0.8292
 9263TIP3   OH249203   2.308   1.263   3.693  0.1664  0.4584  0.1696
 9263TIP3    H149204   2.395   1.281   3.658  0.5435 -2.4268 -0.6474
 9263TIP3    H249205   2.322   1.252   3.787  0.1474  2.6341  0.4756
 9264TIP3   OH249206   4.142   2.933  16.853 -0.5322  0.1688  0.1573
 9264TIP3    H149207   4.218   2.974  16.895 -0.1928 -0.3758  0.0933
 9264TIP3    H249208   4.178   2.890  16.775 -1.2159  1.5044 -0.9397
 9265TIP3   OH249209   1.142   2.803   4.006 -0.0495  0.1662  0.0689
 9265TIP3    H149210   1.183   2.818   4.091  0.3394 -0.8953  0.0810
 9265TIP3    H249211   1.215   2.778   3.949 -0.2267  1.3970 -0.7238
 9266TIP3   OH249212   0.645   5.194   3.295 -0.4736 -0.2467  0.4894
 9266TIP3    H149213   0.572   5.201   3.233 -0.4929  0.2153  0.5564
 9266TIP3    H249214   0.616   5.245   3.371  0.2606  0.6588  0.1803
 9267TIP3   OH249215   2.373   1.669   2.657  0.0360  0.2975  0.4369
 9267TIP3    H149216   2.327   1.685   2.575  1.1318 -0.2622 -0.3145
 9267TIP3    H249217   2.365   1.575   2.672  0.9826  0.1809  0.2553
 9268TIP3   OH249218   0.747   5.381  16.945  0.4868  0.6953  0.2883
 9268TIP3    H149219   0.725   5.291  16.967 -2.7802  1.1959 -0.3883
 9268TIP3    H249220   0.736   5.429  17.027  2.3220  0.5167  0.6714
 9269TIP3   OH249221   2.886   3.824   1.639 -0.4424  0.8145  0.3365
 9269TIP3    H149222   2.922   3.912   1.647  0.4817  0.4682  0.1278
 9269TIP3    H249223   2.794   3.833   1.665 -0.3641  1.8365  0.2903
 9270TIP3   OH249224   5.319   2.289   0.146 -1.0012 -0.3317 -0.5274
 9270TIP3    H149225   5.235   2.275   0.103 -1.1184 -0.3151 -0.3002
 9270TIP3    H249226   5.376   2.323   0.076 -1.1473 -0.4553 -0.7082
 9271TIP3   OH249227   2.275   3.708   2.180  0.0632 -0.4866  0.3730
 9271TIP3    H149228   2.342   3.763   2.139  1.1675 -0.7425  1.7487
 9271TIP3    H249229   2.302   3.618   2.160  0.8313 -0.6306  1.8851
 9272TIP3   OH249230   0.338   3.331   2.444  0.1202 -0.0827  0.1979
 9272TIP3    H149231   0.321   3.420   2.414 -0.6431  0.1994  1.3871
 9272TIP3    H249232   0.433   3.323   2.442  0.1834  0.6801 -0.1431
 9273TIP3   OH249233   0.216   1.274  17.059  0.3617  0.4274  0.3591
 9273TIP3    H149234   0.154   1.202  17.046  0.2905  0.2684  1.4360
 9273TIP3    H249235   0.298   1.242  17.021 -0.2423  0.7000 -1.2076
 9274TIP3   OH249236   4.186   1.791   5.693  0.1767  0.2519  0.5026
 9274TIP3    H149237   4.178   1.707   5.648  1.6909  0.7611 -0.8032
 9274TIP3    H249238   4.187   1.856   5.623 -1.0718  1.3978  1.4932
 9275TIP3   OH249239   5.996   1.160  14.543 -0.0381 -0.1243 -0.5240
 9275TIP3    H149240   6.044   1.118  14.614 -1.3592 -1.1034 -0.1689
 9275TIP3    H249241   5.981   1.090  14.479  0.0420  0.4496 -1.1818
 9276TIP3   OH249242   5.165   2.006   5.529 -1.1478  0.6346  0.1700
 9276TIP3    H149243   5.137   2.095   5.506 -1.8864  0.5399  0.6686
 9276TIP3    H249244   5.246   2.019   5.579 -0.4670  0.9307 -0.9686
 9277TIP3   OH249245   3.453   3.283   0.404  0.1710  0.2026  1.0225
 9277TIP3    H149246   3.519   3.331   0.354 -0.7117  0.5803  0.1918
 9277TIP3    H249247   3.434   3.342   0.478 -1.5465  1.6225 -0.4576
 9278TIP3   OH249248   0.629   4.539   2.850 -0.3293 -0.3279 -0.0940
 9278TIP3    H149249   0.570   4.575   2.783  1.2112  1.1081 -0.7438
 9278TIP3    H249250   0.594   4.574   2.933 -0.2447  0.7670 -0.4989
 9279TIP3   OH249251   3.680   1.536  12.894 -0.6134 -0.0313  0.2048
 9279TIP3    H149252   3.724   1.452  12.890 -2.0244 -0.7700 -0.7631
 9279TIP3    H249253   3.591   1.516  12.923 -0.1411  1.5369  3.2051
 9280TIP3   OH249254   6.692   3.277  11.264 -0.3597 -0.0573 -0.1704
 9280TIP3    H149255   6.782   3.309  11.270 -0.2897 -0.2571 -0.1539
 9280TIP3    H249256   6.689   3.228  11.182 -0.8623  1.2103 -0.9400
 9281TIP3   OH249257   1.963   3.408   3.099  0.2642  0.0663 -0.2227
 9281TIP3    H149258   2.023   3.365   3.160  0.0796  0.1449  0.0209
 9281TIP3    H249259   1.978   3.502   3.114 -0.9099  0.1068  0.8638
 9282TIP3   OH249260   2.157   2.421   3.496  0.3165 -0.1019  0.0512
 9282TIP3    H149261   2.069   2.457   3.501  0.6785  0.9147 -0.6367
 9282TIP3    H249262   2.146   2.335   3.454 -0.0337  1.4041 -3.2016
 9283TIP3   OH249263   5.003   5.117   4.695 -0.3819  0.4645  0.1631
 9283TIP3    H149264   5.078   5.058   4.700  0.1635  1.0702 -0.5835
 9283TIP3    H249265   4.942   5.083   4.760  0.2696 -0.4149  0.3451
 9284TIP3   OH249266   5.920   3.813   6.178 -0.0082  0.4147 -0.1469
 9284TIP3    H149267   5.945   3.753   6.248 -0.6083 -0.9192 -1.0333
 9284TIP3    H249268   5.830   3.838   6.197  1.1871  3.7207  2.0059
 9285TIP3   OH249269   5.648   3.749   3.876  0.3309  0.7152  0.3382
 9285TIP3    H149270   5.625   3.677   3.935  1.6755  0.5027  0.6313
 9285TIP3    H249271   5.615   3.721   3.790 -1.0048  0.7032  0.8270
 9286TIP3   OH249272   4.240   0.279   0.021  0.3287 -0.5114 -0.2506
 9286TIP3    H149273   4.174   0.343  -0.006  0.9845  0.4438  0.3227
 9286TIP3    H249274   4.246   0.217  -0.052 -0.7258 -0.2448 -0.5779
 9287TIP3   OH249275   4.501   4.507  14.042 -0.1107 -0.2746  0.3831
 9287TIP3    H149276   4.549   4.578  14.000  0.6464 -0.3893  1.0294
 9287TIP3    H249277   4.552   4.428  14.022  0.1626 -0.3568  1.3420
 9288TIP3   OH249278   2.131   4.039  16.160  0.2360  0.1222 -0.1903
 9288TIP3    H149279   2.057   3.998  16.116  0.8515 -0.0816 -1.0630
 9288TIP3    H249280   2.139   3.990  16.242 -1.7105  1.3310  0.7908
 9289TIP3   OH249281   6.751   0.838   6.246  0.3783 -0.4637 -0.6417
 9289TIP3    H149282   6.828   0.885   6.279 -0.5818  0.6396  0.1151
 9289TIP3    H249283   6.745   0.759   6.299  0.9679 -0.5405 -0.6879
 9290TIP3   OH249284   2.775   0.706  12.283  0.2476 -0.1080  0.1897
 9290TIP3    H149285   2.731   0.777  12.235 -1.8530 -2.2783 -1.3051
 9290TIP3    H249286   2.867   0.717  12.262  0.1862  2.8652  1.0030
 9291TIP3   OH249287   6.705   6.101   2.130 -0.0096 -0.1004  0.7345
 9291TIP3    H149288   6.638   6.149   2.179  0.3951 -0.9113  2.1322
 9291TIP3    H249289   6.785   6.154   2.140  0.0193 -0.1456  0.7452
 9292TIP3   OH249290   2.094   2.733  13.831 -0.2744  0.3636 -0.1783
 9292TIP3    H149291   2.015   2.696  13.791  0.0289  0.7039 -1.1264
 9292TIP3    H249292   2.113   2.674  13.905 -0.7374 -0.4071 -0.6536
 9293TIP3   OH249293   2.212   3.848   4.417  0.5855  0.1903 -0.1129
 9293TIP3    H149294   2.208   3.827   4.511  1.4656  1.0433  0.1369
 9293TIP3    H249295   2.150   3.788   4.376 -0.8855  0.7558  1.1808
 9294TIP3   OH249296   0.117   4.816  17.363 -0.7484  0.1377  0.3520
 9294TIP3    H149297   0.171   4.895  17.359 -0.9134  0.3118  1.4481
 9294TIP3    H249298   0.160   4.761  17.428 -1.6428  0.0834  0.9063
 9295TIP3   OH249299   4.131   4.762  13.338 -0.2415  0.2463  0.0002
 9295TIP3    H149300   4.071   4.763  13.413 -0.0442 -2.4037  0.2924
 9295TIP3    H249301   4.214   4.795  13.372 -0.5744  0.5505  0.5240
 9296TIP3   OH249302   1.194   4.317   2.479 -0.0587 -0.1713  0.3116
 9296TIP3    H149303   1.127   4.279   2.536 -1.4549 -0.0610 -1.1865
 9296TIP3    H249304   1.247   4.242   2.452 -0.4715 -0.4895  0.3620
 9297TIP3   OH249305   4.993   3.236   3.868 -0.2690 -0.0172 -0.1828
 9297TIP3    H149306   5.003   3.244   3.963 -0.9296 -0.1275 -0.0969
 9297TIP3    H249307   5.047   3.161   3.845 -0.8935 -0.6200  0.2625
 9298TIP3   OH249308   2.849   2.893  13.340 -0.1190 -0.5389  0.7725
 9298TIP3    H149309   2.851   2.881  13.245  0.2811 -1.0263  0.8361
 9298TIP3    H249310   2.851   2.804  13.375  1.1036 -0.3427  1.2575
 9299TIP3   OH249311   5.246   0.310  12.059  0.7196  0.1244  0.0231
 9299TIP3    H149312   5.152   0.303  12.045  0.8368 -1.6519 -0.1228
 9299TIP3    H249313   5.280   0.351  11.979  0.0682  1.0138  0.1859
 9300TIP3   OH249314   3.625   4.720   5.205 -0.4066  0.2072 -0.1160
 9300TIP3    H149315   3.682   4.796   5.190  0.5619 -0.7193 -1.4688
 9300TIP3    H249316   3.687   4.648   5.220 -1.2829 -0.4745  0.2590
 9301TIP3   OH249317   0.436   1.485  14.850 -0.9901 -0.2680 -0.3964
 9301TIP3    H149318   0.516   1.450  14.890 -0.6863 -0.6844 -1.3473
 9301TIP3    H249319   0.385   1.517  14.924  0.7160  1.4071  0.1603
 9302TIP3   OH249320   0.499   1.043   0.583  0.1499 -0.1345 -0.5356
 9302TIP3    H149321   0.497   0.954   0.546  1.6680  0.0121 -1.0605
 9302TIP3    H249322   0.418   1.083   0.552 -0.0003 -0.9628 -1.2819
 9303TIP3   OH249323   5.978   1.752  15.717 -0.6070  0.5265 -0.2766
 9303TIP3    H149324   5.981   1.657  15.729  1.7970  0.5526 -0.0981
 9303TIP3    H249325   5.925   1.784  15.790 -0.4577 -0.5888  0.3408
 9304TIP3   OH249326   4.637   6.265  12.721  0.0861 -0.5729  0.2343
 9304TIP3    H149327   4.655   6.354  12.692 -2.8169 -0.1290 -0.5076
 9304TIP3    H249328   4.542   6.261  12.730  0.1417 -3.5129  0.5622
 9305TIP3   OH249329   4.714   4.457   5.380  0.0023 -0.5235 -0.3162
 9305TIP3    H149330   4.632   4.424   5.343  0.0044  0.7569 -1.5294
 9305TIP3    H249331   4.773   4.382   5.376 -0.5961 -0.9766 -1.0690
 9306TIP3   OH249332   2.252   1.004  13.675  0.0853  0.1293 -0.0183
 9306TIP3    H149333   2.301   1.013  13.593  0.5126 -0.1365  0.2052
 9306TIP3    H249334   2.318   1.011  13.744 -0.0240 -1.2229  0.2656
 9307TIP3   OH249335   3.349   3.856   4.227 -0.0013 -0.0418 -0.1906
 9307TIP3    H149336   3.280   3.844   4.293  0.0229  0.6989 -0.0168
 9307TIP3    H249337   3.430   3.832   4.272  0.0324  0.5969  0.1043
 9308TIP3   OH249338   3.283   1.204  13.613 -0.0455  0.1856  0.3481
 9308TIP3    H149339   3.257   1.294  13.629 -0.4371 -0.0790  1.2439
 9308TIP3    H249340   3.212   1.168  13.559 -0.5749  0.0358  1.1248
 9309TIP3   OH249341   0.872   2.882   4.821 -0.1659  0.4501  0.5059
 9309TIP3    H149342   0.802   2.878   4.756  0.1252  1.0368  0.1425
 9309TIP3    H249343   0.828   2.903   4.903 -0.3099  2.0828  0.0492
 9310TIP3   OH249344   0.248   1.684   3.408 -0.1949  0.4258 -0.0661
 9310TIP3    H149345   0.339   1.674   3.381 -0.5125  0.3910 -1.2073
 9310TIP3    H249346   0.218   1.595   3.428  0.3234  0.5659  1.4012
 9311TIP3   OH249347   1.989   3.068   6.793  0.3416  0.0105  0.8429
 9311TIP3    H149348   2.073   3.030   6.818  0.6579 -0.4216 -0.7467
 9311TIP3    H249349   2.012   3.143   6.738 -0.2644 -1.2391 -1.2175
 9312TIP3   OH249350   5.780   3.295  11.871 -0.0417  0.0958  0.2333
 9312TIP3    H149351   5.706   3.308  11.929 -0.4266  0.4484 -0.3253
 9312TIP3    H249352   5.828   3.378  11.873  0.1920 -0.0438  0.3966
 9313TIP3   OH249353   1.561   3.400   2.484  0.0437 -0.0527 -0.5067
 9313TIP3    H149354   1.633   3.449   2.525  1.8263 -1.7566 -1.4116
 9313TIP3    H249355   1.499   3.467   2.456 -0.7072  1.3203  3.6900
 9314TIP3   OH249356   2.153   1.006  10.254 -0.1240 -0.0816  0.1536
 9314TIP3    H149357   2.242   1.023  10.285  0.2842 -3.2307  1.0448
 9314TIP3    H249358   2.134   0.916  10.281 -2.1997 -0.8572 -3.2071
 9315TIP3   OH249359   3.186   6.740   5.342  0.4543  0.0078 -0.9903
 9315TIP3    H149360   3.253   6.785   5.393  0.3761  0.7978 -1.5489
 9315TIP3    H249361   3.233   6.671   5.296  0.4748 -0.9056  0.3474
 9316TIP3   OH249362   4.008   3.638   4.741 -0.3807 -0.3911 -0.2132
 9316TIP3    H149363   4.014   3.699   4.668  0.4427 -0.7860 -0.4979
 9316TIP3    H249364   4.064   3.676   4.809  2.7676 -2.2585 -1.5034
 9317TIP3   OH249365   4.081   6.629  13.578  0.6414  0.4918 -0.8234
 9317TIP3    H149366   4.065   6.724  13.577  0.1905  0.4420  0.1642
 9317TIP3    H249367   4.157   6.618  13.634 -0.2537  0.1684  0.3764
 9318TIP3   OH249368   1.824   6.141   1.731 -0.2818  0.4433  0.1005
 9318TIP3    H149369   1.730   6.158   1.723 -1.2068 -3.6390  0.5091
 9318TIP3    H249370   1.848   6.104   1.646  0.8091  0.7343  0.2713
 9319TIP3   OH249371   4.909   5.429  13.104 -0.3945  0.5900  0.0561
 9319TIP3    H149372   4.973   5.468  13.045  0.1896 -0.2978  0.0826
 9319TIP3    H249373   4.948   5.438  13.191 -0.0595 -0.3665  0.0263
 9320TIP3   OH249374   0.607   2.308  15.797  0.1938  0.0485 -0.1198
 9320TIP3    H149375   0.624   2.365  15.872  0.9551 -1.1971  0.6984
 9320TIP3    H249376   0.564   2.365  15.733  1.9928  1.8502  0.1622
 9321TIP3   OH249377   0.347   0.297   3.098  0.7440  0.2473  0.5169
 9321TIP3    H149378   0.366   0.243   3.022 -0.2740  0.7131 -0.0851
 9321TIP3    H249379   0.389   0.251   3.171  0.1145 -1.2286 -0.0105
 9322TIP3   OH249380   5.416   0.587  15.814  0.0322  0.3964 -0.5362
 9322TIP3    H149381   5.346   0.523  15.798  1.0031 -0.5503 -1.1305
 9322TIP3    H249382   5.380   0.670  15.783 -0.6392 -0.1743 -1.3261
 9323TIP3   OH249383   3.698   0.035  13.071  0.0427 -0.1212 -0.0837
 9323TIP3    H149384   3.649   0.112  13.044 -1.0990 -1.0305 -0.7413
 9323TIP3    H249385   3.750   0.064  13.145  1.3595  1.8481 -1.6764
 9324TIP3   OH249386   3.008   6.022   0.011 -0.1919 -0.2916  0.3608
 9324TIP3    H149387   3.086   6.072   0.037 -0.7496  0.9280 -0.2418
 9324TIP3    H249388   3.027   5.933   0.039  1.0396  0.1566  1.0476
 9325TIP3   OH249389   6.035   3.801  12.831  0.1777 -0.2119  1.0630
 9325TIP3    H149390   5.982   3.878  12.809 -0.0897 -0.7703 -0.3444
 9325TIP3    H249391   6.095   3.832  12.898 -0.1086  1.1626  0.7201
 9326TIP3   OH249392   0.635   1.016   3.343 -0.3254  0.7565 -0.8634
 9326TIP3    H149393   0.550   1.060   3.334 -2.1455 -2.0001  1.0137
 9326TIP3    H249394   0.638   0.990   3.435  2.1179 -0.1441 -1.1311
 9327TIP3   OH249395   2.899   6.723   4.326 -0.0531  0.0691 -0.4157
 9327TIP3    H149396   2.895   6.818   4.314 -0.5563  0.3106  1.3828
 9327TIP3    H249397   2.848   6.688   4.252  2.5925  0.9685 -2.8652
 9328TIP3   OH249398   2.340   0.650   4.046 -0.0528 -0.3203  0.0175
 9328TIP3    H149399   2.361   0.604   4.127 -0.3259  3.3999  2.4104
 9328TIP3    H249400   2.267   0.707   4.069 -0.6343  0.3835 -3.1127
 9329TIP3   OH249401   6.307   1.803  17.239 -0.1046 -0.1899  0.0071
 9329TIP3    H149402   6.259   1.787  17.157 -0.0857 -0.5241  0.0612
 9329TIP3    H249403   6.357   1.882  17.222 -0.0458 -0.2970 -0.3318
 9330TIP3   OH249404   0.473   5.646   3.478 -0.6095  0.0212  0.7177
 9330TIP3    H149405   0.385   5.642   3.513 -0.6743  0.6607  0.6250
 9330TIP3    H249406   0.503   5.735   3.495  0.0077 -0.1799  0.7236
 9331TIP3   OH249407   1.391   0.841   4.754 -0.0477  0.6138  0.1656
 9331TIP3    H149408   1.306   0.826   4.713 -0.1017  1.2254  0.0434
 9331TIP3    H249409   1.444   0.765   4.729 -0.6201  0.1329  0.4145
 9332TIP3   OH249410   4.356   3.576  11.504 -0.1780  0.6017  0.1466
 9332TIP3    H149411   4.297   3.629  11.451  0.3629 -0.3866 -1.5358
 9332TIP3    H249412   4.438   3.625  11.507  0.1756  0.1071 -1.0115
 9333TIP3   OH249413   0.664   3.532  12.477 -0.2016 -0.2519 -0.8431
 9333TIP3    H149414   0.630   3.443  12.484 -1.0835  0.1228 -0.0981
 9333TIP3    H249415   0.756   3.521  12.454  0.1042 -1.4135  0.7532
 9334TIP3   OH249416   2.241   6.243  12.326  0.1148 -0.1780 -0.2741
 9334TIP3    H149417   2.281   6.306  12.266  0.5212 -0.8075 -0.6651
 9334TIP3    H249418   2.303   6.236  12.399  0.0810 -0.1571 -0.2427
 9335TIP3   OH249419   1.750   1.024  11.689  0.0909  0.5400 -0.0858
 9335TIP3    H149420   1.706   1.104  11.659 -0.5325  0.0850 -0.3983
 9335TIP3    H249421   1.788   0.987  11.609  1.3261  1.0813  0.2179
 9336TIP3   OH249422   0.769   5.776   3.405  0.5081 -0.0369 -0.0597
 9336TIP3    H149423   0.723   5.699   3.371  2.0108 -1.3961  0.8402
 9336TIP3    H249424   0.721   5.850   3.368 -0.2918 -1.3801 -1.9275
 9337TIP3   OH249425   1.237   5.235   3.758 -0.6716 -0.1556 -0.4947
 9337TIP3    H149426   1.157   5.255   3.807 -1.6126 -3.7831 -0.2553
 9337TIP3    H249427   1.305   5.228   3.825 -0.8250 -0.0760 -0.3272
 9338TIP3   OH249428   4.756   1.465   3.758 -0.5223 -0.2126  0.1120
 9338TIP3    H149429   4.804   1.407   3.818  0.8193 -0.3519 -1.0419
 9338TIP3    H249430   4.798   1.551   3.770 -0.8107 -0.0525 -0.0160
 9339TIP3   OH249431   6.312   3.786   5.630  0.1148 -0.2411 -0.7468
 9339TIP3    H149432   6.306   3.813   5.722  1.8685 -1.6353 -0.1678
 9339TIP3    H249433   6.242   3.722   5.619  0.8910 -1.2699  0.1082
 9340TIP3   OH249434   6.551   2.767  11.407  0.0591 -0.4090 -0.2150
 9340TIP3    H149435   6.626   2.711  11.390 -1.0848 -2.8377  2.0517
 9340TIP3    H249436   6.580   2.854  11.379  4.1874 -0.9285  1.7059
 9341TIP3   OH249437   0.794   2.972  12.490 -0.3298 -0.4251 -0.0330
 9341TIP3    H149438   0.723   2.963  12.426  0.3912 -0.0449 -0.9022
 9341TIP3    H249439   0.857   2.904  12.466  0.5902  0.6008 -0.5973
 9342TIP3   OH249440   3.579   1.397  15.113 -0.2214  0.5358  0.0525
 9342TIP3    H149441   3.659   1.439  15.144  0.1671 -0.7992  0.9403
 9342TIP3    H249442   3.511   1.432  15.171 -0.0835  0.7765  0.0717
 9343TIP3   OH249443   0.129   5.024   3.449 -0.4211  0.4331  0.1903
 9343TIP3    H149444   0.201   5.010   3.389 -1.9370 -1.1949 -1.3978
 9343TIP3    H249445   0.095   5.110   3.428  0.1905  0.6246 -0.0112
 9344TIP3   OH249446   2.129   5.098  14.627  0.4479 -0.7992 -0.0591
 9344TIP3    H149447   2.118   5.110  14.533 -2.0071  1.1264  0.3644
 9344TIP3    H249448   2.154   5.185  14.659  1.8448 -1.5649  1.0300
 9345TIP3   OH249449   3.974   4.424   2.247  0.3577 -0.2413 -0.2810
 9345TIP3    H149450   3.934   4.508   2.270  2.7472  0.5349  1.3875
 9345TIP3    H249451   4.019   4.396   2.327 -1.6357 -3.9738 -0.2403
 9346TIP3   OH249452   6.549   5.189  13.515 -0.2777  0.7696  0.1947
 9346TIP3    H149453   6.596   5.186  13.432  0.4403  0.5342  0.5993
 9346TIP3    H249454   6.461   5.220  13.492 -0.2106  0.3253 -0.7005
 9347TIP3   OH249455   4.747   3.137   5.428  0.1200  0.1242  0.0507
 9347TIP3    H149456   4.766   3.172   5.514 -0.7566  1.3820 -0.2392
 9347TIP3    H249457   4.755   3.042   5.438 -0.7168  0.1979  1.7040
 9348TIP3   OH249458   1.851   4.897  13.533  0.1948 -0.2260 -0.4354
 9348TIP3    H149459   1.768   4.869  13.572  0.3249 -0.1685 -0.1076
 9348TIP3    H249460   1.871   4.980  13.576 -0.0940  0.2826 -1.2687
 9349TIP3   OH249461   1.733   2.303  10.491 -0.0760  0.5480  0.0870
 9349TIP3    H149462   1.646   2.339  10.506 -0.0673  0.1031  1.2820
 9349TIP3    H249463   1.759   2.339  10.406 -0.9921  1.5285  0.1977
 9350TIP3   OH249464   5.552   4.379   3.295  0.1482  0.5536  0.5840
 9350TIP3    H149465   5.457   4.365   3.291 -0.1245  2.2174  0.3359
 9350TIP3    H249466   5.590   4.293   3.281 -1.2843  0.3123 -2.5071
 9351TIP3   OH249467   2.947   4.771  15.799  0.2075 -0.2383 -0.0195
 9351TIP3    H149468   2.893   4.696  15.773 -1.5402  0.6756  0.7530
 9351TIP3    H249469   2.974   4.812  15.717  1.1478 -1.6517 -0.4485
 9352TIP3   OH249470   3.190   1.943  15.499 -0.0408  0.0048  0.2769
 9352TIP3    H149471   3.097   1.921  15.495 -0.1073  0.4538 -2.0154
 9352TIP3    H249472   3.194   2.023  15.552 -0.8586 -0.3593  0.9033
 9353TIP3   OH249473   5.664   5.634   0.405  0.6786  0.4665  0.1038
 9353TIP3    H149474   5.618   5.575   0.344  0.9820  1.7183 -1.3935
 9353TIP3    H249475   5.608   5.637   0.482  0.7373 -1.9056  0.3084
 9354TIP3   OH249476   5.582   0.129  11.129 -0.8218  0.5732 -0.1102
 9354TIP3    H149477   5.528   0.173  11.064 -0.8331 -0.8031 -1.0665
 9354TIP3    H249478   5.557   0.036  11.123 -0.9532  0.4085  1.9769
 9355TIP3   OH249479   2.502   1.793  16.262  0.3868  0.2318  0.4097
 9355TIP3    H149480   2.411   1.769  16.248  0.6466 -0.4807 -0.1244
 9355TIP3    H249481   2.526   1.844  16.185  0.4268  0.4432  0.5634
 9356TIP3   OH249482   1.733   5.917   3.352  0.2085 -0.4873  0.0424
 9356TIP3    H149483   1.826   5.917   3.373  0.3423 -0.2620 -0.5340
 9356TIP3    H249484   1.730   5.909   3.257 -0.3633 -0.4827  0.0553
 9357TIP3   OH249485   0.590   2.465  14.393 -0.4350 -0.4442  0.1429
 9357TIP3    H149486   0.657   2.493  14.330  0.9436 -1.6080  1.0341
 9357TIP3    H249487   0.613   2.375  14.414  0.1118  0.3406  3.4949
 9358TIP3   OH249488   4.449   6.122  11.462 -0.1731  0.0280 -0.8650
 9358TIP3    H149489   4.543   6.123  11.446 -0.1596 -3.0323 -1.6420
 9358TIP3    H249490   4.410   6.147  11.379 -0.0017 -1.6136 -1.4802
 9359TIP3   OH249491   2.505   0.452  15.741  0.1330  0.0699  0.8506
 9359TIP3    H149492   2.428   0.509  15.740 -0.2023 -0.3722  1.2558
 9359TIP3    H249493   2.561   0.489  15.809  1.4612  1.9121 -1.1194
 9360TIP3   OH249494   5.874   2.838   3.834  0.1639  0.5679  0.5781
 9360TIP3    H149495   5.788   2.870   3.863 -0.2194  0.7715 -0.7522
 9360TIP3    H249496   5.869   2.743   3.845 -0.2758  0.5663  0.3865
 9361TIP3   OH249497   6.271   1.713   6.535 -0.0195 -0.2514 -0.2508
 9361TIP3    H149498   6.239   1.640   6.481 -0.4542  0.4516 -0.9744
 9361TIP3    H249499   6.344   1.676   6.584 -1.2782 -1.6201  0.6605
 9362TIP3   OH249500   0.898   1.607  12.849 -0.3160  0.2926  0.3068
 9362TIP3    H149501   0.950   1.534  12.816 -1.9242 -0.7334 -0.0483
 9362TIP3    H249502   0.928   1.619  12.939 -1.2649 -2.0756  1.0206
 9363TIP3   OH249503   0.221   0.842  13.524  0.8569 -0.3380  0.6708
 9363TIP3    H149504   0.128   0.820  13.521  1.0387 -1.0688  0.1191
 9363TIP3    H249505   0.252   0.805  13.606  0.6978 -0.2475  0.7712
 9364TIP3   OH249506   4.195   0.539   3.840 -0.6056 -0.2820  0.2550
 9364TIP3    H149507   4.177   0.449   3.812  2.0895 -0.7379 -0.2685
 9364TIP3    H249508   4.257   0.529   3.913 -2.0523  1.1343  1.7769
 9365TIP3   OH249509   2.144   3.785   5.688 -0.1303  0.0247 -0.3052
 9365TIP3    H149510   2.161   3.798   5.595 -0.5351  1.4312 -0.2061
 9365TIP3    H249511   2.057   3.746   5.692  0.3519 -1.1353 -0.5352
 9366TIP3   OH249512   1.168   5.541   5.420  0.6362 -0.7020  0.1156
 9366TIP3    H149513   1.232   5.582   5.362  0.6256 -0.4400  0.2882
 9366TIP3    H249514   1.095   5.517   5.362 -0.4615  1.7601  0.3669
 9367TIP3   OH249515   4.602   0.552  12.283 -0.4134  0.3105 -0.0570
 9367TIP3    H149516   4.570   0.529  12.371  0.8228 -1.4296 -0.0156
 9367TIP3    H249517   4.522   0.564  12.232 -1.3660 -3.6497  0.0964
 9368TIP3   OH249518   3.094   4.328  15.262 -0.5050  0.2544  0.4188
 9368TIP3    H149519   3.088   4.267  15.188 -1.2019  0.8340 -0.0179
 9368TIP3    H249520   3.112   4.272  15.338 -0.2421 -0.3965 -0.1175
 9369TIP3   OH249521   0.970   2.597  14.385 -0.1231 -0.0386 -0.1166
 9369TIP3    H149522   1.057   2.627  14.409  0.2995 -1.2083 -0.1431
 9369TIP3    H249523   0.982   2.506  14.358 -1.4336 -0.3875  0.3850
 9370TIP3   OH249524   0.157   5.710   0.346 -0.1187  0.1744  0.1215
 9370TIP3    H149525   0.210   5.698   0.425  0.6817  0.4528 -0.3649
 9370TIP3    H249526   0.214   5.682   0.274 -1.7066 -2.5214 -0.2007
 9371TIP3   OH249527   3.715   6.522   3.838 -0.0090  0.1571 -0.0318
 9371TIP3    H149528   3.673   6.602   3.871  1.5845  0.7475  0.6746
 9371TIP3    H249529   3.662   6.451   3.874  0.0921  0.8511  1.6071
 9372TIP3   OH249530   2.353   6.278  16.344  0.1633 -0.2433  0.2546
 9372TIP3    H149531   2.276   6.238  16.383  1.0171 -1.7497  0.4604
 9372TIP3    H249532   2.402   6.313  16.419  1.0339 -1.7644  0.4325
 9373TIP3   OH249533   4.780   0.037  11.948 -0.0437 -0.4984 -1.0863
 9373TIP3    H149534   4.773   0.080  11.864 -2.7915 -0.0053 -0.6834
 9373TIP3    H249535   4.777   0.108  12.012  0.4983 -0.9743 -0.5129
 9374TIP3   OH249536   5.257   6.117   5.462  0.0339 -0.0330  0.1523
 9374TIP3    H149537   5.217   6.044   5.509  0.8977 -0.2054  0.6335
 9374TIP3    H249538   5.188   6.183   5.456 -1.0022 -1.1541 -0.9384
 9375TIP3   OH249539   2.616   2.159   3.932 -0.5560 -0.0712 -0.6023
 9375TIP3    H149540   2.609   2.070   3.898  1.0641 -0.3397 -0.3101
 9375TIP3    H249541   2.703   2.163   3.971 -0.8816  1.4268  0.0382
 9376TIP3   OH249542   3.871   3.036  12.504 -0.1261  0.4302 -0.2980
 9376TIP3    H149543   3.849   3.019  12.596 -0.2907 -0.2051 -0.4507
 9376TIP3    H249544   3.786   3.048  12.461 -0.0459  0.8067 -0.3532
 9377TIP3   OH249545   2.785   0.159  12.762  0.2382  0.2073  0.6712
 9377TIP3    H149546   2.868   0.112  12.772  0.9497  0.7001 -2.0373
 9377TIP3    H249547   2.731   0.102  12.707  0.9397  2.1679 -2.2792
 9378TIP3   OH249548   6.310   3.543  14.946 -0.1851 -0.0282 -0.1883
 9378TIP3    H149549   6.252   3.473  14.975  1.5125 -1.2909  0.3081
 9378TIP3    H249550   6.382   3.543  15.010 -0.3091  2.4278  0.0447
 9379TIP3   OH249551   6.684   4.853  11.431 -0.4866 -0.2549 -0.1060
 9379TIP3    H149552   6.604   4.811  11.400  0.0066 -0.9246 -0.4771
 9379TIP3    H249553   6.718   4.899  11.355  0.7764 -1.9773 -0.6334
 9380TIP3   OH249554   5.204   3.725   5.294  0.0054 -0.9945 -0.1781
 9380TIP3    H149555   5.219   3.815   5.323 -1.4873 -1.1023  1.0556
 9380TIP3    H249556   5.214   3.673   5.373 -0.7670 -1.7074 -0.5349
 9381TIP3   OH249557   4.464   6.735   3.109  0.1063 -0.5173 -0.3821
 9381TIP3    H149558   4.487   6.820   3.147  0.8600 -0.3667 -1.1454
 9381TIP3    H249559   4.368   6.735   3.109  0.0894  0.5066 -0.7290
 9382TIP3   OH249560   2.390   2.244  14.633 -0.0532 -0.4966  0.2797
 9382TIP3    H149561   2.296   2.243  14.614  0.3701  0.8576 -2.5125
 9382TIP3    H249562   2.420   2.328  14.598  2.3505 -1.3071  0.2109
 9383TIP3   OH249563   3.322   0.631  14.434 -0.3142 -0.5967  0.3567
 9383TIP3    H149564   3.321   0.558  14.371  0.5843 -1.7923  1.6473
 9383TIP3    H249565   3.415   0.654  14.441 -0.4383 -0.2847  1.0228
 9384TIP3   OH249566   5.564   6.580   5.298 -1.1038 -0.3415 -0.1746
 9384TIP3    H149567   5.586   6.673   5.307 -1.8118 -0.2198  0.4170
 9384TIP3    H249568   5.559   6.566   5.204 -0.9188  0.2116 -0.2742
 9385TIP3   OH249569   4.577   6.467   4.022 -0.3865 -0.0095 -0.3079
 9385TIP3    H149570   4.613   6.431   3.941  2.7844  1.8697  0.0594
 9385TIP3    H249571   4.554   6.557   4.000  1.2825  0.7895  0.9630
 9386TIP3   OH249572   2.012   1.123  17.080  0.0999 -0.1036 -0.0568
 9386TIP3    H149573   2.082   1.061  17.101 -0.1177  0.6085  3.2605
 9386TIP3    H249574   2.058   1.205  17.060  0.2714 -0.3945 -0.8908
 9387TIP3   OH249575   4.724   6.499   0.996 -0.2846  0.1919  0.7948
 9387TIP3    H149576   4.728   6.594   0.985  1.1494  0.0188 -0.4666
 9387TIP3    H249577   4.648   6.472   0.944  0.4312  0.4777 -0.4364
 9388TIP3   OH249578   3.423   3.556   2.353  0.4442 -0.2782  0.2711
 9388TIP3    H149579   3.461   3.570   2.266  1.0124  0.8680  0.6792
 9388TIP3    H249580   3.499   3.551   2.411  0.0332  0.3776  0.8836
 9389TIP3   OH249581   5.276   4.424   3.648  0.1186  0.0644 -0.1485
 9389TIP3    H149582   5.292   4.472   3.567  1.1383  1.4175  0.7984
 9389TIP3    H249583   5.363   4.396   3.677 -0.3103 -1.0115  0.1322
 9390TIP3   OH249584   1.082   5.045  15.170  0.1121 -0.4168  0.2320
 9390TIP3    H149585   1.011   5.106  15.152  1.3614  1.5787  1.6518
 9390TIP3    H249586   1.047   4.986  15.238 -0.2952  0.3522  0.7026
 9391TIP3   OH249587   5.717   6.565   4.038 -0.0035  0.2086 -0.0694
 9391TIP3    H149588   5.796   6.616   4.020 -1.0619  2.2298  0.7450
 9391TIP3    H249589   5.701   6.516   3.956  1.4445  0.6013 -0.6234
 9392TIP3   OH249590   1.030   2.359   0.361  0.0735 -0.0665  0.2130
 9392TIP3    H149591   1.004   2.436   0.310  0.0142  0.0003  0.3436
 9392TIP3    H249592   1.121   2.375   0.384 -0.1974  0.3885  1.0060
 9393TIP3   OH249593   3.985   5.531   5.489  0.0331 -0.1372  0.0318
 9393TIP3    H149594   3.990   5.435   5.493  1.8090 -0.1599 -1.2757
 9393TIP3    H249595   3.914   5.554   5.549  0.4023 -2.1824  1.3611
 9394TIP3   OH249596   5.979   6.093  12.993 -0.0328  0.0035  0.4592
 9394TIP3    H149597   6.047   6.123  12.934  0.2984  0.1729  0.9162
 9394TIP3    H249598   5.968   6.165  13.055  0.5797 -0.6955  1.4111
 9395TIP3   OH249599   4.905   3.916   3.604  0.0080  0.2078  0.2012
 9395TIP3    H149600   4.949   3.860   3.669  1.2159 -1.5155 -1.9363
 9395TIP3    H249601   4.961   3.909   3.526 -1.9398  1.2851 -1.3672
 9396TIP3   OH249602   3.492   1.119  13.428  0.5285 -0.1828 -0.0553
 9396TIP3    H149603   3.417   1.147  13.481  0.8232  1.2695 -0.3486
 9396TIP3    H249604   3.511   1.030  13.457 -1.0453 -0.4256  0.3177
 9397TIP3   OH249605   2.396   3.051  12.108 -0.3278  0.0623 -0.4703
 9397TIP3    H149606   2.475   3.040  12.055  0.2003  2.0944 -0.1786
 9397TIP3    H249607   2.332   2.993  12.068  1.1087 -1.1497 -1.1116
 9398TIP3   OH249608   2.780   6.380   4.271  0.3731 -0.2180 -0.0204
 9398TIP3    H149609   2.729   6.369   4.190  0.8936  1.3843 -0.5949
 9398TIP3    H249610   2.754   6.466   4.304  0.3811 -0.7268  1.3969
 9399TIP3   OH249611   6.106   4.147  16.336  0.0940  0.2961 -0.1486
 9399TIP3    H149612   6.084   4.173  16.246  1.1718 -1.1077 -0.8600
 9399TIP3    H249613   6.201   4.136  16.335  0.2679  1.2766  1.4821
 9400TIP3   OH249614   4.269   4.911  15.594 -0.7809 -0.1856  0.1240
 9400TIP3    H149615   4.203   4.978  15.613  0.1684  1.7861 -2.8821
 9400TIP3    H249616   4.226   4.851  15.534 -0.3275  0.3158 -0.7278
 9401TIP3   OH249617   1.073   3.716   2.785 -0.5808 -0.0490 -0.1046
 9401TIP3    H149618   1.054   3.631   2.824 -1.7264  0.2893  0.1060
 9401TIP3    H249619   1.014   3.777   2.829 -0.7071  0.6396 -1.1742
 9402TIP3   OH249620   4.653   0.046   1.538 -0.0772 -0.1292 -0.0750
 9402TIP3    H149621   4.602   0.051   1.458  0.8385  0.4918 -0.6368
 9402TIP3    H249622   4.704   0.127   1.539  1.5897 -1.1425 -0.0150
 9403TIP3   OH249623   2.269   2.641   4.444 -0.3212  0.1297  0.3212
 9403TIP3    H149624   2.272   2.615   4.352 -2.7312  2.0825 -0.3925
 9403TIP3    H249625   2.196   2.591   4.480  0.1761 -0.1047  1.0167
 9404TIP3   OH249626   4.416   4.302  17.383  0.1215  0.1451 -0.1024
 9404TIP3    H149627   4.414   4.208  17.365 -1.4978 -0.3832  2.3979
 9404TIP3    H249628   4.436   4.309  17.476 -2.3503  2.1118  0.4004
 9405TIP3   OH249629   1.437   2.366  11.525 -0.4475 -0.5051 -0.1386
 9405TIP3    H149630   1.517   2.338  11.482 -0.3752  0.2129 -0.4803
 9405TIP3    H249631   1.464   2.387  11.615 -0.4052 -1.0053 -0.0318
 9406TIP3   OH249632   4.989   0.688   3.716  0.2202 -0.1587  0.2647
 9406TIP3    H149633   5.027   0.662   3.632 -1.2843  0.5180 -0.6784
 9406TIP3    H249634   4.908   0.637   3.723  0.0575  0.1835  1.0401
 9407TIP3   OH249635   5.590   6.408   1.924  0.1253 -0.6666 -0.8137
 9407TIP3    H149636   5.633   6.477   1.875  1.0672  0.2259  1.1761
 9407TIP3    H249637   5.658   6.343   1.939  1.0437  0.8794  2.5862
 9408TIP3   OH249638   6.089   5.661   2.059  0.3155  0.6918 -0.4340
 9408TIP3    H149639   6.042   5.581   2.084  2.5829  0.1033  2.4848
 9408TIP3    H249640   6.053   5.729   2.115  0.5852  0.9830 -0.6152
 9409TIP3   OH249641   4.123   2.636  10.899  0.2899  0.0209  0.2913
 9409TIP3    H149642   4.144   2.717  10.946  0.6447 -0.7272  1.4862
 9409TIP3    H249643   4.034   2.649  10.867  0.3847  0.9273  0.3720
 9410TIP3   OH249644   1.294   6.520   0.043  0.2925  0.1631  0.4552
 9410TIP3    H149645   1.372   6.537  -0.010  0.1447  1.9687  0.7600
 9410TIP3    H249646   1.239   6.597   0.030 -1.0056 -0.6269  1.0511
 9411TIP3   OH249647   0.097   6.269   2.902 -0.0615  0.1488 -0.4571
 9411TIP3    H149648   0.120   6.182   2.934  4.0699  0.6328 -1.4999
 9411TIP3    H249649   0.070   6.317   2.981  1.5324 -1.0120  0.8772
 9412TIP3   OH249650   0.539   4.296   4.256 -0.6009 -0.3081 -0.6451
 9412TIP3    H149651   0.622   4.249   4.261 -0.0366  0.6471 -0.8347
 9412TIP3    H249652   0.493   4.272   4.337  0.8063  0.8640  0.5617
 9413TIP3   OH249653   4.583   4.925  16.303  0.0868 -0.0056 -0.0719
 9413TIP3    H149654   4.530   4.941  16.225 -1.0158  1.0083  0.8257
 9413TIP3    H249655   4.574   4.832  16.320 -1.5720  0.1667  0.1349
 9414TIP3   OH249656   3.272   3.438  13.221  0.6703  0.1017  0.3870
 9414TIP3    H149657   3.183   3.403  13.225 -0.1102  1.6009 -1.7578
 9414TIP3    H249658   3.302   3.416  13.133  1.3324  1.9940  0.1018
 9415TIP3   OH249659   3.734   0.063   6.488  0.0584  0.3100  0.5068
 9415TIP3    H149660   3.712  -0.023   6.523 -1.1281  0.9144  1.2735
 9415TIP3    H249661   3.708   0.058   6.396 -2.3409  0.6161  1.1057
 9416TIP3   OH249662   5.873   5.172   5.150  0.4790  0.1862  0.4743
 9416TIP3    H149663   5.878   5.214   5.236  1.1089  0.2267  0.4190
 9416TIP3    H249664   5.944   5.108   5.151 -0.0220 -0.3817  0.2873
 9417TIP3   OH249665   3.124   3.520  14.086  0.7904 -0.1864 -0.1912
 9417TIP3    H149666   3.163   3.528  13.998  0.7601  0.8315 -0.1185
 9417TIP3    H249667   3.159   3.437  14.119  0.3496 -0.8742 -1.3820
 9418TIP3   OH249668   6.004   5.623   5.193  0.1213  0.6870  0.1359
 9418TIP3    H149669   6.033   5.694   5.135  0.4237  0.9407  0.5906
 9418TIP3    H249670   5.965   5.558   5.134 -0.5395  1.4145 -0.2553
 9419TIP3   OH249671   5.582   2.412   4.516  0.9684  0.2259  0.4289
 9419TIP3    H149672   5.603   2.435   4.607  1.7070 -0.1534  0.3653
 9419TIP3    H249673   5.520   2.479   4.488 -1.4651 -1.1903  2.0687
 9420TIP3   OH249674   5.681   4.079  14.250 -0.0176  0.1948 -0.1142
 9420TIP3    H149675   5.766   4.069  14.207 -0.2281  0.6033 -0.6366
 9420TIP3    H249676   5.657   4.171  14.235 -1.9950 -0.6136 -2.7466
 9421TIP3   OH249677   2.811   2.266  11.223  0.0871 -0.5392  0.0736
 9421TIP3    H149678   2.770   2.348  11.250 -0.8546 -1.2329  0.8296
 9421TIP3    H249679   2.860   2.289  11.144 -0.3152  0.7038  0.1602
 9422TIP3   OH249680   0.902   0.653   0.993  0.0311 -0.5426  0.5430
 9422TIP3    H149681   0.869   0.729   0.945  2.2197  0.0685 -0.0949
 9422TIP3    H249682   0.922   0.589   0.925  1.8854 -0.1697  0.6714
 9423TIP3   OH249683   3.121   2.446   6.358 -0.2040  0.7521  0.3120
 9423TIP3    H149684   3.070   2.512   6.406  1.8641  1.3331  1.8572
 9423TIP3    H249685   3.207   2.486   6.346  0.1402 -0.4620 -1.5714
 9424TIP3   OH249686   1.549   3.452   5.996 -0.0881 -0.4629 -0.2934
 9424TIP3    H149687   1.507   3.366   6.001 -0.0806 -0.6082 -1.9581
 9424TIP3    H249688   1.642   3.432   5.982 -0.0258 -0.1890 -0.2649
 9425TIP3   OH249689   4.436   3.930   4.895 -0.7819 -0.4829 -0.4072
 9425TIP3    H149690   4.423   4.024   4.883  0.7914 -0.4565 -2.4921
 9425TIP3    H249691   4.384   3.890   4.825 -0.2619 -1.0759 -0.4621
 9426TIP3   OH249692   0.602   1.308   3.723 -0.2610 -0.1818  0.1139
 9426TIP3    H149693   0.527   1.338   3.775 -0.0203  1.5750 -0.5021
 9426TIP3    H249694   0.648   1.388   3.698  1.8562 -1.2115  0.4697
 9427TIP3   OH249695   1.458   3.392   1.543 -0.6571 -0.6095  0.1222
 9427TIP3    H149696   1.421   3.404   1.455  0.3029  0.9229 -0.1055
 9427TIP3    H249697   1.499   3.306   1.540 -0.3887 -0.4516 -1.0305
 9428TIP3   OH249698   3.514   2.937   2.012 -0.3580  0.1912  0.1072
 9428TIP3    H149699   3.467   2.905   1.934 -0.1967  1.2238 -0.4253
 9428TIP3    H249700   3.566   2.862   2.041  0.6556  0.1860 -1.6138
 9429TIP3   OH249701   3.063   0.663  11.004 -0.3840  0.3942 -0.4407
 9429TIP3    H149702   3.046   0.592  11.066 -0.5878  1.2444  0.5081
 9429TIP3    H249703   3.152   0.691  11.023  0.0227 -0.1699 -1.4207
 9430TIP3   OH249704   0.169   6.013  15.196  0.2451 -0.4464  0.1384
 9430TIP3    H149705   0.127   6.036  15.113  1.7997 -0.6034 -0.7430
 9430TIP3    H249706   0.107   5.954  15.239 -0.8786  0.1531 -0.5933
 9431TIP3   OH249707   3.069   1.118  14.304 -0.2903 -0.0667  0.6692
 9431TIP3    H149708   3.098   1.036  14.264  0.3984 -0.7788  2.5008
 9431TIP3    H249709   3.090   1.186  14.240  2.3171 -0.9361  0.5027
 9432TIP3   OH249710   5.489   0.726  11.177 -0.1963 -0.0700 -0.0083
 9432TIP3    H149711   5.457   0.810  11.211  2.3945  0.3542  1.6508
 9432TIP3    H249712   5.500   0.742  11.083  3.0919  2.6179  0.6325
 9433TIP3   OH249713   1.910   5.648  13.485  0.7840 -0.5951 -0.2163
 9433TIP3    H149714   1.996   5.672  13.450  0.6304 -0.4559 -0.5041
 9433TIP3    H249715   1.925   5.634  13.579  1.1939 -0.9386 -0.3286
 9434TIP3   OH249716   1.075   5.058   0.652  0.4001  0.6741 -0.2186
 9434TIP3    H149717   1.110   4.999   0.585 -0.9850 -0.3301 -0.0900
 9434TIP3    H249718   1.153   5.095   0.694  1.3306 -1.2297 -0.1665
 9435TIP3   OH249719   4.877   4.791   3.624  0.1373  0.1466  0.0486
 9435TIP3    H149720   4.798   4.760   3.580 -0.3056  0.9698  0.2474
 9435TIP3    H249721   4.876   4.746   3.708  1.1499 -1.6680 -0.8629
 9436TIP3   OH249722   2.990   1.346  15.219  0.1108 -0.1390 -0.7902
 9436TIP3    H149723   2.909   1.312  15.256 -0.1811 -0.1150 -1.3981
 9436TIP3    H249724   2.964   1.386  15.136  0.0548  3.6652  0.8569
 9437TIP3   OH249725   3.845   6.735  14.663 -0.4335 -0.4102  0.3513
 9437TIP3    H149726   3.800   6.714  14.581  2.2489 -1.3211 -1.0028
 9437TIP3    H249727   3.787   6.703  14.731 -1.7412 -1.6722 -1.2843
 9438TIP3   OH249728   3.373   0.437  13.572 -0.3997  0.3294 -0.0107
 9438TIP3    H149729   3.381   0.529  13.594 -1.8937  0.5525 -0.3060
 9438TIP3    H249730   3.340   0.436  13.482 -0.2975 -0.4990 -0.0501
 9439TIP3   OH249731   5.648   1.371   2.753 -0.0791 -0.1273  0.1133
 9439TIP3    H149732   5.636   1.422   2.833 -1.1532  1.3646 -0.9601
 9439TIP3    H249733   5.738   1.391   2.726  0.4114 -0.9032  1.0823
 9440TIP3   OH249734   3.796   2.185  11.079  0.0286  0.4343  0.3041
 9440TIP3    H149735   3.789   2.144  10.992 -1.6399  0.8890  0.1738
 9440TIP3    H249736   3.706   2.214  11.098  0.3296  0.1833  2.2677
 9441TIP3   OH249737   3.168   3.980   3.115  0.2168 -0.8445 -0.2255
 9441TIP3    H149738   3.105   3.982   3.043 -0.1017 -0.8848  0.0562
 9441TIP3    H249739   3.185   4.072   3.135  0.2528 -0.8343 -0.2989
 9442TIP3   OH249740   0.149   0.991  11.184  0.0655 -0.1456 -1.1437
 9442TIP3    H149741   0.059   1.013  11.159  0.3965  0.4709 -1.8444
 9442TIP3    H249742   0.175   0.925  11.120  0.5284  0.6032 -1.7498
 9443TIP3   OH249743   2.659   2.850  15.385 -0.1401 -0.3852  0.5192
 9443TIP3    H149744   2.663   2.824  15.477 -0.3180 -1.8522  0.1507
 9443TIP3    H249745   2.627   2.772  15.340  0.8698 -0.0234 -0.9126
 9444TIP3   OH249746   0.996   5.793   1.635  0.2979 -0.3653 -0.1470
 9444TIP3    H149747   0.913   5.796   1.587  0.1788  1.2501  0.0877
 9444TIP3    H249748   1.043   5.871   1.606  1.4409 -0.8697  0.2709
 9445TIP3   OH249749   4.595   4.032   0.558  0.2480  0.3355  0.7964
 9445TIP3    H149750   4.625   4.116   0.594  0.4458  1.1639 -1.1871
 9445TIP3    H249751   4.560   3.985   0.634  0.3417  2.1055  1.9979
 9446TIP3   OH249752   4.194   0.360  16.557  0.1311  0.0183 -0.3261
 9446TIP3    H149753   4.115   0.385  16.604  1.3800  0.9631  1.3914
 9446TIP3    H249754   4.187   0.265  16.546 -1.0447  0.0328  0.1727
 9447TIP3   OH249755   0.512   6.288  11.752  0.8677  0.3299  0.6568
 9447TIP3    H149756   0.507   6.354  11.683 -1.4562  0.1431  0.5726
 9447TIP3    H249757   0.573   6.326  11.816  1.5626  1.3698 -0.5590
 9448TIP3   OH249758   3.708   3.116   0.325  0.0425  0.4678 -0.3829
 9448TIP3    H149759   3.728   3.051   0.393 -2.0258  1.3454  1.1741
 9448TIP3    H249760   3.735   3.200   0.362 -2.4221  1.1494  0.0702
 9449TIP3   OH249761   4.949   4.685   1.174  0.3109 -0.3307  0.0183
 9449TIP3    H149762   5.022   4.632   1.142 -0.5781 -0.8786 -1.2103
 9449TIP3    H249763   4.967   4.698   1.267  2.3663  0.2427 -0.4091
 9450TIP3   OH249764   4.680   5.894   6.283 -0.2953  1.1649 -0.5667
 9450TIP3    H149765   4.759   5.908   6.335  0.4199  0.1828 -1.3275
 9450TIP3    H249766   4.704   5.923   6.195 -1.0951  1.7029 -0.6193
 9451TIP3   OH249767   0.673   2.726  16.589 -0.4470  0.3405  0.8739
 9451TIP3    H149768   0.726   2.672  16.648  0.5750  0.5878  0.2030
 9451TIP3    H249769   0.673   2.812  16.631 -0.2460  0.3613  0.8325
 9452TIP3   OH249770   0.906   0.561  14.848 -0.1633 -0.3526 -0.9425
 9452TIP3    H149771   0.869   0.643  14.817  0.3813 -0.5733 -2.2459
 9452TIP3    H249772   0.946   0.583  14.932  0.1170  0.7628 -1.3466
 9453TIP3   OH249773   2.809   6.215  13.940 -1.0160 -0.1422 -0.4198
 9453TIP3    H149774   2.867   6.142  13.961 -0.5400  0.3269 -0.0901
 9453TIP3    H249775   2.867   6.284  13.909 -1.6372 -0.5875 -2.7173
 9454TIP3   OH249776   0.855   0.695  11.302  0.2942 -0.3645 -0.4073
 9454TIP3    H149777   0.816   0.641  11.370 -1.7158  0.7143 -0.6143
 9454TIP3    H249778   0.841   0.647  11.221 -0.4368 -0.1042 -0.4471
 9455TIP3   OH249779   1.299   6.624  11.760 -0.2393  0.7852  0.4653
 9455TIP3    H149780   1.342   6.660  11.682 -2.6852  0.9327 -0.8978
 9455TIP3    H249781   1.267   6.538  11.733  2.4845 -1.1028  2.6595
 9456TIP3   OH249782   6.713   6.756  17.367 -0.1062  0.0056 -0.0505
 9456TIP3    H149783   6.684   6.720  17.451 -1.0569  0.7515 -0.0432
 9456TIP3    H249784   6.757   6.837  17.390  0.0249 -0.0120 -0.2386
 9457TIP3   OH249785   1.040   2.199   6.190 -0.1758  0.0047 -0.2926
 9457TIP3    H149786   1.115   2.145   6.214  0.8178  1.0331 -1.0295
 9457TIP3    H249787   1.047   2.210   6.096  0.2783  2.3251 -0.0366
 9458TIP3   OH249788   3.220   1.531  13.101 -0.0582  0.3509  0.1581
 9458TIP3    H149789   3.173   1.574  13.173 -1.2318 -0.3272 -0.1724
 9458TIP3    H249790   3.243   1.445  13.135 -0.2120  0.2004 -0.1158
 9459TIP3   OH249791   2.138   1.608   0.685  0.2086  0.6834  0.1498
 9459TIP3    H149792   2.172   1.597   0.774 -1.2088  0.4941  0.7061
 9459TIP3    H249793   2.084   1.530   0.671 -0.1399  1.0512 -0.6117
 9460TIP3   OH249794   2.485   6.364   4.885  0.3429 -0.7584  0.1068
 9460TIP3    H149795   2.528   6.448   4.903  0.8727 -0.5864 -1.7970
 9460TIP3    H249796   2.400   6.372   4.928 -0.8422  1.9950 -2.4066
 9461TIP3   OH249797   1.774   4.544  17.304  0.5643 -0.1835 -0.4466
 9461TIP3    H149798   1.744   4.586  17.223 -0.9589  0.7585  0.5520
 9461TIP3    H249799   1.836   4.606  17.342 -0.8337  0.7174  0.4614
 9462TIP3   OH249800   0.996   6.561  14.559 -0.0638 -0.1971 -0.3242
 9462TIP3    H149801   0.955   6.511  14.489  0.3013  0.0628 -0.7319
 9462TIP3    H249802   1.088   6.568  14.533 -0.1234  0.7559 -0.3178
 9463TIP3   OH249803   6.627   4.563   2.197  0.0737 -0.1203  0.1858
 9463TIP3    H149804   6.603   4.653   2.174 -1.5701 -0.6640 -0.4064
 9463TIP3    H249805   6.624   4.516   2.114  1.0327 -0.7108  0.4719
 9464TIP3   OH249806   4.978   5.901   5.691 -0.5498 -0.4297 -0.3214
 9464TIP3    H149807   5.054   5.864   5.646  1.6241  0.9684  1.9417
 9464TIP3    H249808   4.946   5.830   5.747 -1.5629 -1.3037 -1.9211
 9465TIP3   OH249809   3.502   3.697   5.486 -0.0138  0.8357 -0.4238
 9465TIP3    H149810   3.474   3.605   5.481  0.7370  0.6129 -0.6816
 9465TIP3    H249811   3.438   3.744   5.433  0.1181  0.3340 -1.0447
 9466TIP3   OH249812   1.103   0.442   5.498  0.4354  0.9530 -0.5275
 9466TIP3    H149813   1.105   0.400   5.412 -0.7793 -1.2574  0.4417
 9466TIP3    H249814   1.021   0.490   5.499  0.1176  0.4170 -0.3801
 9467TIP3   OH249815   3.001   3.036   2.442  0.5365 -0.2568 -0.0837
 9467TIP3    H149816   2.937   2.974   2.406 -0.5444  0.0309  1.2445
 9467TIP3    H249817   3.073   3.036   2.379  0.0893 -2.0487 -0.6610
 9468TIP3   OH249818   0.631   5.224  13.057 -0.2119  0.8562  0.2223
 9468TIP3    H149819   0.697   5.268  13.004  0.7771 -0.1075  0.5930
 9468TIP3    H249820   0.550   5.233  13.008  0.3725  1.3277 -0.6807
 9469TIP3   OH249821   5.455   0.100  13.745  0.6265  0.6924 -0.2984
 9469TIP3    H149822   5.360   0.099  13.746  0.5968  1.4956 -1.0809
 9469TIP3    H249823   5.478   0.096  13.652  1.3904 -0.7951 -0.0856
 9470TIP3   OH249824   5.435   2.178  15.397  0.2710  0.0720 -0.3187
 9470TIP3    H149825   5.402   2.175  15.486  0.9716 -2.7326 -0.0517
 9470TIP3    H249826   5.379   2.117  15.348 -0.3225  1.8193 -1.9178
 9471TIP3   OH249827   4.341   3.770  16.923  0.0540  0.3648 -0.3412
 9471TIP3    H149828   4.385   3.849  16.892  1.7450  1.4572  4.0738
 9471TIP3    H249829   4.249   3.795  16.931  0.4855  1.8005  0.5264
 9472TIP3   OH249830   5.386   1.730   1.884  0.6523 -0.2543 -0.3200
 9472TIP3    H149831   5.466   1.683   1.860  0.4994  0.0279 -1.4757
 9472TIP3    H249832   5.353   1.764   1.801 -0.1167  0.5113  0.2766
 9473TIP3   OH249833   1.171   3.289   0.007  0.3280  0.2463 -0.3446
 9473TIP3    H149834   1.161   3.378  -0.029 -0.5135 -0.1157 -1.0417
 9473TIP3    H249835   1.196   3.303   0.099  1.5460  1.1940 -0.7845
 9474TIP3   OH249836   2.431   5.240   5.020 -1.1157  0.3261 -0.3153
 9474TIP3    H149837   2.388   5.325   5.014  1.5600  1.7647 -0.7133
 9474TIP3    H249838   2.456   5.220   4.930  0.0052  0.1340  0.0171
 9475TIP3   OH249839   0.778   6.479   6.097  0.1534 -0.0912  0.4881
 9475TIP3    H149840   0.826   6.425   6.161  1.8098  1.7234  0.8916
 9475TIP3    H249841   0.717   6.531   6.150  1.2968  1.1760  0.6261
 9476TIP3   OH249842   3.066   2.728  15.311  0.4213 -1.0121 -0.4320
 9476TIP3    H149843   3.001   2.672  15.268  0.6290  0.0700 -2.2774
 9476TIP3    H249844   3.034   2.817  15.297  1.2732 -0.5532  0.4153
 9477TIP3   OH249845   0.404   5.858  16.853 -0.1425 -0.1122 -0.1662
 9477TIP3    H149846   0.384   5.767  16.876 -2.0181  0.8682  2.6046
 9477TIP3    H249847   0.318   5.899  16.839  0.6233  1.3806 -0.7694
 9478TIP3   OH249848   1.507   2.501  15.479 -0.6320  0.2166  0.0245
 9478TIP3    H149849   1.454   2.462  15.410  1.0281  0.4388 -1.4620
 9478TIP3    H249850   1.491   2.446  15.556  0.8656 -2.8822 -1.7004
 9479TIP3   OH249851   0.270   3.851  12.737 -0.1527 -0.2814  0.0107
 9479TIP3    H149852   0.196   3.905  12.764 -1.4979 -1.5273 -1.0873
 9479TIP3    H249853   0.278   3.784  12.805 -0.7719 -0.8299 -0.4532
 9480TIP3   OH249854   6.726   5.804  12.962 -0.3184 -0.4663 -0.1988
 9480TIP3    H149855   6.655   5.822  12.900  1.2531 -1.1408 -2.3095
 9480TIP3    H249856   6.720   5.710  12.980 -0.1601 -0.4586 -0.1032
 9481TIP3   OH249857   4.403   4.313  16.765  0.3931 -0.1666 -0.7994
 9481TIP3    H149858   4.370   4.225  16.785 -2.2361  0.8846 -0.1848
 9481TIP3    H249859   4.358   4.370  16.827  1.6982  1.7019 -1.4932
 9482TIP3   OH249860   2.304   3.993  12.593  0.0467 -0.7396  0.4134
 9482TIP3    H149861   2.392   3.980  12.627  0.3861 -1.4221 -0.6579
 9482TIP3    H249862   2.293   3.924  12.527 -1.3130 -0.7097  0.5762
 9483TIP3   OH249863   1.816   6.094  17.069 -0.0189  0.0115 -0.6219
 9483TIP3    H149864   1.787   6.098  16.978  1.8724  3.4849 -1.2691
 9483TIP3    H249865   1.909   6.070  17.064  0.0630  0.0533  0.3880
 9484TIP3   OH249866   2.434   2.331  11.438  0.2296 -0.2993  0.0358
 9484TIP3    H149867   2.440   2.369  11.526  0.2480  1.6653 -0.7624
 9484TIP3    H249868   2.459   2.403  11.380  2.6541 -2.2119 -1.4890
 9485TIP3   OH249869   1.647   4.379   3.997  0.3591  0.0022 -0.0782
 9485TIP3    H149870   1.678   4.422   3.917  0.8825 -2.1255 -1.0863
 9485TIP3    H249871   1.714   4.399   4.062  0.6356  0.6294 -0.5456
 9486TIP3   OH249872   4.046   5.396   4.427  0.5936 -0.1031 -0.1393
 9486TIP3    H149873   4.008   5.417   4.513 -0.3462  0.0251 -0.5739
 9486TIP3    H249874   4.005   5.312   4.403  1.6608 -0.6783  0.0072
 9487TIP3   OH249875   5.323   6.644   2.513 -0.1463  0.2597 -0.2800
 9487TIP3    H149876   5.362   6.727   2.486 -1.8353  1.1094 -0.2893
 9487TIP3    H249877   5.296   6.658   2.604 -0.3409 -0.3105 -0.2438
 9488TIP3   OH249878   6.703   3.506  16.821  0.3812 -0.1306  0.9529
 9488TIP3    H149879   6.651   3.572  16.775 -1.2699 -1.3596  0.9273
 9488TIP3    H249880   6.756   3.465  16.753  0.6680  0.4982  0.7965
 9489TIP3   OH249881   3.733   5.627   1.776  0.2501 -0.3012  0.1564
 9489TIP3    H149882   3.786   5.550   1.755  1.6150  0.8512 -0.7954
 9489TIP3    H249883   3.666   5.629   1.708  0.4613 -0.4099 -0.0562
 9490TIP3   OH249884   1.657   3.426  13.659  0.8457  0.2909  0.9414
 9490TIP3    H149885   1.600   3.502  13.647  1.6336  0.7933  0.2434
 9490TIP3    H249886   1.682   3.401  13.570  0.6222 -0.7747  1.1671
 9491TIP3   OH249887   2.339   3.134  16.811  0.6967 -0.3075 -0.4591
 9491TIP3    H149888   2.417   3.113  16.861  1.6406  1.5299 -1.0596
 9491TIP3    H249889   2.272   3.073  16.843  1.4296  0.2821  2.5012
 9492TIP3   OH249890   2.171   5.418  15.800  0.3657  0.1004 -0.4278
 9492TIP3    H149891   2.118   5.343  15.775  0.0951 -0.8865  2.6942
 9492TIP3    H249892   2.256   5.402  15.759 -0.1111 -1.1529 -0.9836
 9493TIP3   OH249893   6.494   5.759  13.607  0.4034 -0.6726  0.3606
 9493TIP3    H149894   6.461   5.779  13.520  0.4655 -1.0127  0.2556
 9493TIP3    H249895   6.575   5.711  13.592  0.3734 -0.8061  0.6013
 9494TIP3   OH249896   5.327   5.344   1.701 -0.1774  0.0462 -0.3193
 9494TIP3    H149897   5.389   5.276   1.730 -1.3130 -1.2368 -0.7950
 9494TIP3    H249898   5.372   5.389   1.630  0.2578 -0.8020 -0.5919
 9495TIP3   OH249899   1.057   0.719  12.919 -0.1131  0.1432 -0.0298
 9495TIP3    H149900   1.053   0.627  12.893 -0.1615 -0.6843  2.6213
 9495TIP3    H249901   0.974   0.756  12.890  0.0125 -0.5684 -1.3514
 9496TIP3   OH249902   5.591   2.133  12.644  0.3436  0.5354  0.3300
 9496TIP3    H149903   5.543   2.052  12.663 -0.2065  0.8508  0.3130
 9496TIP3    H249904   5.522   2.199  12.635  0.6596  0.6642 -1.4197
 9497TIP3   OH249905   3.538   4.560   5.700  0.3878 -0.7587  0.1466
 9497TIP3    H149906   3.544   4.507   5.779 -1.0560  0.1277  0.8832
 9497TIP3    H249907   3.445   4.563   5.679  0.4782  1.0071 -0.1778
 9498TIP3   OH249908   1.553   1.344  15.070  0.6013 -0.2801  0.3612
 9498TIP3    H149909   1.631   1.367  15.120 -0.7232  0.1191  2.3374
 9498TIP3    H249910   1.481   1.382  15.120 -0.9479 -1.4979 -0.8746
 9499TIP3   OH249911   3.434   0.781   6.362  0.0657 -0.0604  0.2006
 9499TIP3    H149912   3.340   0.779   6.375 -0.0061  0.5717 -0.1579
 9499TIP3    H249913   3.459   0.870   6.390 -0.1214  1.5335 -4.0365
 9500TIP3   OH249914   2.781   5.233  16.842 -0.2136  0.4716  0.3986
 9500TIP3    H149915   2.826   5.185  16.912  0.9599  0.3292 -0.4249
 9500TIP3    H249916   2.837   5.222  16.765 -0.6886  1.8943 -0.1921
 9501TIP3   OH249917   2.494   0.239  16.494 -0.0760 -0.6243  0.0260
 9501TIP3    H149918   2.432   0.262  16.425  0.1066 -0.0283  0.0598
 9501TIP3    H249919   2.439   0.221  16.571 -0.1632  1.1557  0.4169
 9502TIP3   OH249920   6.488   0.117  11.341  0.1102 -0.9280 -0.2989
 9502TIP3    H149921   6.432   0.067  11.282 -1.7938  0.7085  0.0153
 9502TIP3    H249922   6.574   0.116  11.299 -0.4429 -2.3835 -1.4979
 9503TIP3   OH249923   4.123   4.563   4.907  0.5733  0.6300  0.2317
 9503TIP3    H149924   4.147   4.507   4.981  0.4800  2.3347  1.6273
 9503TIP3    H249925   4.193   4.629   4.904  0.8421  0.2982 -1.5534
 9504TIP3   OH249926   2.399   2.833  11.728  0.1587 -0.8675  0.3262
 9504TIP3    H149927   2.423   2.766  11.664 -0.3155 -1.5890  0.8945
 9504TIP3    H249928   2.322   2.876  11.690  0.9718 -0.0359 -0.4492
 9505TIP3   OH249929   0.822   0.091   4.288  0.5015  0.4040 -0.6489
 9505TIP3    H149930   0.867   0.160   4.239 -0.4941  1.4942 -0.0531
 9505TIP3    H249931   0.770   0.045   4.222  0.9292  0.4022 -0.9928
 9506TIP3   OH249932   4.715   1.837   1.444  0.1354 -0.8809 -0.5231
 9506TIP3    H149933   4.721   1.901   1.374 -3.1353  1.4357  1.0196
 9506TIP3    H249934   4.769   1.873   1.514  0.1941 -1.0559 -0.4788
 9507TIP3   OH249935   1.946   5.709   0.133  0.5345 -0.4271  0.0388
 9507TIP3    H149936   1.860   5.669   0.130  1.4160 -2.3996 -1.0682
 9507TIP3    H249937   2.007   5.635   0.145  2.0593  0.9440  1.3813
 9508TIP3   OH249938   4.789   0.340  12.325 -0.1151 -0.4456  0.2908
 9508TIP3    H149939   4.717   0.280  12.303 -0.0298 -0.4707  0.0786
 9508TIP3    H249940   4.758   0.425  12.294  0.7010 -0.7546 -1.4771
 9509TIP3   OH249941   1.020   6.218  16.272 -0.1876 -0.2323  0.4156
 9509TIP3    H149942   1.013   6.195  16.365  0.4937 -0.4630  0.4221
 9509TIP3    H249943   1.099   6.173  16.243 -0.4530 -0.2410 -0.3042
 9510TIP3   OH249944   2.541   3.295   3.884 -0.4790  0.7824  0.2291
 9510TIP3    H149945   2.546   3.207   3.921  1.6158  1.2565  1.1758
 9510TIP3    H249946   2.624   3.307   3.838 -1.0326  2.0040 -0.5054
 9511TIP3   OH249947   3.588   4.150  17.106  0.4279  0.5848 -0.6997
 9511TIP3    H149948   3.590   4.130  17.013 -0.2228 -1.6641 -0.2920
 9511TIP3    H249949   3.659   4.098  17.143  0.0815  0.7122  0.1754
 9512TIP3   OH249950   0.297   4.328  16.293 -0.2850 -0.1517 -0.2417
 9512TIP3    H149951   0.367   4.392  16.277 -1.1808  0.5127 -1.7526
 9512TIP3    H249952   0.242   4.370  16.359  0.8434 -0.8015  1.1737
 9513TIP3   OH249953   4.122   0.368   1.610 -0.7643 -0.3287 -0.3952
 9513TIP3    H149954   4.215   0.388   1.607 -0.7028 -0.7159 -1.4226
 9513TIP3    H249955   4.083   0.425   1.544 -1.5015  0.9644  1.0846
 9514TIP3   OH249956   5.045   5.779   1.426  0.4351  0.2719 -0.0898
 9514TIP3    H149957   4.977   5.826   1.474 -0.7191  0.0080 -1.3909
 9514TIP3    H249958   5.094   5.848   1.381 -0.7702  0.3280 -1.3781
 9515TIP3   OH249959   2.627   3.648  14.512 -0.1230  0.5595 -0.4619
 9515TIP3    H149960   2.718   3.639  14.484 -0.0029 -0.8744  0.2706
 9515TIP3    H249961   2.626   3.729  14.562  0.4343  1.3042 -1.6154
 9516TIP3   OH249962   2.245   0.666   4.614 -0.3111 -0.3967  0.5393
 9516TIP3    H149963   2.308   0.712   4.559  1.3252 -1.8685  1.0885
 9516TIP3    H249964   2.277   0.576   4.618 -2.2653 -1.1262  1.1503
 9517TIP3   OH249965   1.448   2.411  11.788  0.4948 -0.2416  0.1123
 9517TIP3    H149966   1.449   2.476  11.858 -1.5528  0.5057 -0.4761
 9517TIP3    H249967   1.432   2.328  11.833  0.7235 -0.0051  0.6468
 9518TIP3   OH249968   2.437   6.571  14.640 -0.0972 -0.2370  0.3452
 9518TIP3    H149969   2.383   6.516  14.696  1.0869  0.4797  2.2749
 9518TIP3    H249970   2.523   6.570  14.681  0.6468  0.8714 -1.0935
 9519TIP3   OH249971   4.076   3.382   4.028 -0.8564 -0.1567  0.5841
 9519TIP3    H149972   3.984   3.355   4.030 -1.0655  0.5780  1.5959
 9519TIP3    H249973   4.092   3.420   4.114  0.1542  0.5488  0.1079
 9520TIP3   OH249974   4.406   0.566   6.067 -0.0554 -0.1907 -0.2712
 9520TIP3    H149975   4.469   0.496   6.049  0.3321  0.0125  0.2618
 9520TIP3    H249976   4.419   0.628   5.995  0.8414  0.1803  0.2010
 9521TIP3   OH249977   4.184   3.482   3.376 -0.1193 -0.5694 -0.5490
 9521TIP3    H149978   4.121   3.414   3.351 -0.3050 -0.9687  0.9463
 9521TIP3    H249979   4.253   3.435   3.422  1.0530 -0.0653 -1.7113
 9522TIP3   OH249980   2.733   2.286  13.310  0.5529  0.2580  0.4306
 9522TIP3    H149981   2.721   2.356  13.374  0.1281 -0.6956  1.4318
 9522TIP3    H249982   2.725   2.206  13.361 -1.2502 -0.5633 -1.0451
 9523TIP3   OH249983   3.182   5.603   3.580 -0.2153  0.6429 -0.2959
 9523TIP3    H149984   3.170   5.680   3.523  0.9828  1.3260  0.3311
 9523TIP3    H249985   3.136   5.625   3.661  0.4227  0.8603  0.0135
 9524TIP3   OH249986   0.324   0.252   0.051  0.5898  0.4478 -0.0658
 9524TIP3    H149987   0.232   0.227   0.049  0.7505 -0.1801  0.2432
 9524TIP3    H249988   0.342   0.272   0.143  0.6858  0.8616 -0.1723
 9525TIP3   OH249989   2.590   3.503  17.252 -0.1575 -0.5565 -0.2063
 9525TIP3    H149990   2.672   3.496  17.301  0.2070 -2.7075 -0.9911
 9525TIP3    H249991   2.614   3.541  17.168 -0.1580 -0.2460 -0.0690
 9526TIP3   OH249992   6.610   4.281  14.792 -0.3819 -0.0984 -0.5230
 9526TIP3    H149993   6.536   4.342  14.783 -0.9488 -0.9431 -2.0451
 9526TIP3    H249994   6.684   4.328  14.752 -0.4172  0.2084 -0.2369
 9527TIP3   OH249995   5.577   3.631  16.820  0.2631 -0.2153  0.6005
 9527TIP3    H149996   5.527   3.672  16.749 -0.1834  0.0606  1.0676
 9527TIP3    H249997   5.644   3.696  16.843  1.0849 -0.7295 -0.2692
 9528TIP3   OH249998   2.463   3.929   4.428  0.3502 -0.2749 -0.2873
 9528TIP3    H149999   2.390   3.877   4.395  0.4633  0.4686 -1.8099
 9528TIP3    H250000   2.521   3.866   4.471 -0.4643 -1.0901 -0.3782
 9529TIP3   OH250001   2.877   1.062   2.895 -0.5294 -0.1924  0.2150
 9529TIP3    H150002   2.811   0.997   2.870 -0.8483  0.5619 -0.9717
 9529TIP3    H250003   2.850   1.091   2.982 -1.2025 -0.5844  0.1444
 9530TIP3   OH250004   5.163   2.345  16.852  0.3659  0.3593  0.6636
 9530TIP3    H150005   5.178   2.393  16.933 -1.6790  1.0091  0.7190
 9530TIP3    H250006   5.069   2.355  16.835  0.3855 -1.3610 -0.7797
 9531TIP3   OH250007   3.057   5.081   4.980 -0.6666 -0.0016  0.1632
 9531TIP3    H150008   3.001   5.154   4.953  0.7422  0.4799 -1.6408
 9531TIP3    H250009   3.109   5.116   5.052 -1.6440 -0.0090  0.8996
 9532TIP3   OH250010   1.200   0.662  17.363 -0.4968 -0.7975 -0.2378
 9532TIP3    H150011   1.128   0.601  17.348 -1.1231 -0.5629  1.5067
 9532TIP3    H250012   1.279   0.610  17.347 -1.0076 -0.9827 -2.4320
 9533TIP3   OH250013   4.805   3.186   0.107  0.3178 -0.1731 -0.3074
 9533TIP3    H150014   4.731   3.132   0.131  1.4976 -1.4191  0.6966
 9533TIP3    H250015   4.859   3.190   0.186  2.0909 -0.6488 -1.4240
 9534TIP3   OH250016   3.164   2.416  15.233  0.1838 -0.3041  0.1541
 9534TIP3    H150017   3.074   2.448  15.237 -0.1606 -1.2778  0.4456
 9534TIP3    H250018   3.158   2.323  15.256  1.3252 -0.2671  0.6876
 9535TIP3   OH250019   3.559   3.436  13.941 -0.3512 -0.2697  0.6399
 9535TIP3    H150020   3.512   3.368  13.892  2.0983 -2.3415  0.9551
 9535TIP3    H250021   3.491   3.485  13.986 -2.3656 -1.2255 -1.1820
 9536TIP3   OH250022   3.306   2.883  15.585  0.4038 -0.4005 -0.2629
 9536TIP3    H150023   3.245   2.956  15.588 -0.1847 -0.8871 -0.0476
 9536TIP3    H250024   3.387   2.917  15.622 -0.5136 -0.4658  1.9830
 9537TIP3   OH250025   2.285   1.996   1.943 -0.1685  0.1658 -0.0215
 9537TIP3    H150026   2.304   1.983   1.850 -0.9555 -0.2065 -0.1384
 9537TIP3    H250027   2.312   1.915   1.985 -0.3614  0.1038 -0.0149
 9538TIP3   OH250028   3.529   5.938   5.423  0.2562 -0.1636  0.7439
 9538TIP3    H150029   3.560   5.969   5.508 -0.4061  1.0007  0.5738
 9538TIP3    H250030   3.450   5.888   5.443 -0.2784  0.6676  0.7742
 9539TIP3   OH250031   6.053   5.750   4.403  0.2100  0.3920 -0.1060
 9539TIP3    H150032   6.123   5.803   4.365  2.1274 -0.8061  1.5605
 9539TIP3    H250033   6.073   5.661   4.376 -0.0744 -0.0971  1.2097
 9540TIP3   OH250034   5.715   0.987  11.485  0.2588  0.1429  0.3159
 9540TIP3    H150035   5.739   0.956  11.397  0.9199 -0.3110  0.6487
 9540TIP3    H250036   5.674   1.072  11.470  0.2646  0.0162 -0.4470
 9541TIP3   OH250037   1.396   4.309  12.495  0.5568  0.2337 -0.4121
 9541TIP3    H150038   1.490   4.294  12.486  0.5408 -0.5886  0.6115
 9541TIP3    H250039   1.358   4.266  12.418  0.9095 -0.7572 -0.0436
 9542TIP3   OH250040   0.209   6.087   2.698 -0.0544 -0.2841 -0.3331
 9542TIP3    H150041   0.304   6.078   2.713 -0.3992  0.0631  2.7063
 9542TIP3    H250042   0.188   6.173   2.734 -1.4268  0.0863 -1.9108
 9543TIP3   OH250043   4.047   4.051  13.109  0.5066 -0.4190  0.3339
 9543TIP3    H150044   4.069   3.964  13.142  2.3275 -1.2894 -2.7939
 9543TIP3    H250045   4.052   4.108  13.186  0.7835 -2.7972  2.1870
 9544TIP3   OH250046   0.401   5.268  11.333 -1.0733 -0.0858 -0.9432
 9544TIP3    H150047   0.332   5.313  11.285 -0.2240  0.4589 -1.6744
 9544TIP3    H250048   0.470   5.252  11.268  1.4807  3.4175  0.5808
 9545TIP3   OH250049   0.567   5.192  17.211 -0.1407  0.1236  0.3777
 9545TIP3    H150050   0.647   5.139  17.203 -0.1291 -0.0208  1.3064
 9545TIP3    H250051   0.523   5.181  17.127  0.3158 -0.6264  0.2221
 9546TIP3   OH250052   1.742   4.059  14.590 -0.0766  0.2697 -0.0015
 9546TIP3    H150053   1.799   4.022  14.657 -3.1204 -0.7702  2.2855
 9546TIP3    H250054   1.779   4.029  14.507  1.7979 -1.6184  1.4250
 9547TIP3   OH250055   4.765   2.455   3.900 -0.0406  0.1173 -0.2014
 9547TIP3    H150056   4.732   2.484   3.986 -1.1730 -0.3480 -0.4582
 9547TIP3    H250057   4.831   2.520   3.877 -1.6138  1.8312 -0.1840
 9548TIP3   OH250058   1.237   4.704  14.143 -0.4477 -0.2811  0.0445
 9548TIP3    H150059   1.242   4.771  14.212 -0.7866 -1.2288  1.0309
 9548TIP3    H250060   1.328   4.677  14.129 -0.3623  0.0200  0.0131
 9549TIP3   OH250061   6.094   6.293   1.851 -0.5860 -0.0880  0.5701
 9549TIP3    H150062   6.113   6.213   1.803 -0.9010  0.7569 -1.0458
 9549TIP3    H250063   6.165   6.301   1.915  1.1943 -0.0612 -1.3263
 9550TIP3   OH250064   3.310   6.051  11.826 -0.9133 -0.0576  0.1399
 9550TIP3    H150065   3.357   6.132  11.805 -2.0244  0.6275  0.2371
 9550TIP3    H250066   3.242   6.077  11.888  0.2129 -1.4869  2.0984
 9551TIP3   OH250067   0.480   2.780   4.801  0.9982 -0.4469 -0.0046
 9551TIP3    H150068   0.566   2.778   4.759  2.2383 -0.1825  2.3376
 9551TIP3    H250069   0.450   2.870   4.791  0.2876 -0.8653 -2.0511
 9552TIP3   OH250070   1.040   0.357   1.431  0.7772 -0.0627 -0.3578
 9552TIP3    H150071   0.967   0.411   1.462  0.0143 -0.2708 -1.6746
 9552TIP3    H250072   1.101   0.354   1.504 -0.2046  0.7230  0.5297
 9553TIP3   OH250073   5.813   3.906  12.230  0.2687  0.4694  0.8298
 9553TIP3    H150074   5.741   3.850  12.262 -0.9934  0.9355 -1.0267
 9553TIP3    H250075   5.780   3.995  12.242 -1.2523  0.7103 -3.4699
 9554TIP3   OH250076   5.181   0.674   4.550  0.2986 -0.0979  0.5558
 9554TIP3    H150077   5.116   0.711   4.491 -0.1456  0.9173  1.6451
 9554TIP3    H250078   5.265   0.697   4.510  0.0223 -1.0767 -0.6492
 9555TIP3   OH250079   1.410   2.972  12.231 -0.0314 -0.7321 -0.1450
 9555TIP3    H150080   1.502   2.997  12.244  0.1031 -1.7001  0.8669
 9555TIP3    H250081   1.364   3.056  12.226  0.8580 -0.2338 -0.3764
 9556TIP3   OH250082   3.527   2.026  16.777 -0.0611 -0.1432 -0.2567
 9556TIP3    H150083   3.540   2.080  16.699 -2.8876  0.1795 -0.6028
 9556TIP3    H250084   3.436   1.997  16.771  0.6409 -2.9547  1.2047
 9557TIP3   OH250085   6.159   4.224   3.581  0.2765  0.1592  0.2807
 9557TIP3    H150086   6.096   4.253   3.515 -0.5627 -0.6971  0.6831
 9557TIP3    H250087   6.232   4.187   3.531 -1.3090 -2.5193 -0.2227
 9558TIP3   OH250088   2.378   3.055  15.024 -0.2052 -0.5203 -0.0126
 9558TIP3    H150089   2.429   3.098  15.093 -0.4114 -1.4481  0.7356
 9558TIP3    H250090   2.287   3.076  15.045 -0.1718  2.4158 -2.1997
 9559TIP3   OH250091   6.706   4.719   4.312  0.3015 -0.5258  0.5224
 9559TIP3    H150092   6.700   4.750   4.402  0.0997  0.9929  0.0233
 9559TIP3    H250093   6.740   4.794   4.263 -0.1873 -1.1003 -0.7634
 9560TIP3   OH250094   6.394   4.702   3.835  0.8270  0.2858  0.1618
 9560TIP3    H150095   6.439   4.619   3.850 -0.2611 -0.3717 -0.1778
 9560TIP3    H250096   6.351   4.721   3.919 -1.8492 -1.3241 -0.7089
 9561TIP3   OH250097   5.356   4.554  13.069 -0.0221 -0.1149  0.1742
 9561TIP3    H150098   5.305   4.635  13.067  0.5353  0.2621 -2.0921
 9561TIP3    H250099   5.424   4.567  13.003  0.6582 -2.0762  0.4185
 9562TIP3   OH250100   1.567   2.078   3.520 -0.2748 -0.1493 -0.4676
 9562TIP3    H150101   1.584   2.106   3.610 -0.9416 -0.4967 -0.2291
 9562TIP3    H250102   1.555   1.984   3.526 -0.8884 -0.0995 -0.8301
 9563TIP3   OH250103   5.310   0.774  13.747  1.2132 -0.0926 -0.1303
 9563TIP3    H150104   5.313   0.687  13.786 -2.0419 -0.6295 -0.7360
 9563TIP3    H250105   5.250   0.823  13.805 -0.7862  0.2028 -2.2934
 9564TIP3   OH250106   3.327   0.088   0.939  0.0950  0.1610  0.9890
 9564TIP3    H150107   3.323   0.126   0.851 -2.6959 -0.5200  0.7122
 9564TIP3    H250108   3.363   0.000   0.926 -2.4363 -0.8268  0.0615
 9565TIP3   OH250109   0.352   1.337   4.134  0.0811 -0.3582 -0.8446
 9565TIP3    H150110   0.280   1.383   4.177  0.2856 -0.0509 -0.8239
 9565TIP3    H250111   0.394   1.287   4.204  0.4962  0.2474 -0.6494
 9566TIP3   OH250112   5.452   0.744   2.157  0.5681 -0.3061  0.1403
 9566TIP3    H150113   5.404   0.725   2.237  2.2301 -1.1676  0.9998
 9566TIP3    H250114   5.465   0.839   2.158  0.2671 -0.2665  0.7179
 9567TIP3   OH250115   5.017   4.032   4.715  0.0184 -0.1636  0.3588
 9567TIP3    H150116   5.049   3.997   4.632  2.6072  2.3074  0.1870
 9567TIP3    H250117   4.939   4.082   4.690  1.4383  1.5573 -0.8622
 9568TIP3   OH250118   2.329   2.571   0.164  0.7353  0.1121 -0.1125
 9568TIP3    H150119   2.298   2.560   0.254 -2.1741  1.7436 -0.7840
 9568TIP3    H250120   2.282   2.505   0.114  0.2990  0.9374 -0.8101
 9569TIP3   OH250121   1.059   5.057  12.541  0.0217  0.4598  0.0666
 9569TIP3    H150122   1.087   5.144  12.513  0.6118  0.2205 -0.1015
 9569TIP3    H250123   1.023   5.017  12.461  1.9927 -0.3393 -0.4852
 9570TIP3   OH250124   0.559   0.691  12.021  0.2548 -0.1488  0.5681
 9570TIP3    H150125   0.481   0.642  12.048 -0.3198  0.3235 -0.2029
 9570TIP3    H250126   0.563   0.765  12.081 -1.0609  0.9394 -0.6339
 9571TIP3   OH250127   0.120   4.278   3.328 -0.4193  0.0908  0.3817
 9571TIP3    H150128   0.141   4.292   3.421 -0.7489  0.9985  0.3357
 9571TIP3    H250129   0.133   4.185   3.314 -0.0394 -0.0026  1.2637
 9572TIP3   OH250130   3.731   2.049   4.811 -0.1300 -0.5751 -0.2239
 9572TIP3    H150131   3.705   2.000   4.733 -0.1276 -0.5040 -0.2691
 9572TIP3    H250132   3.651   2.094   4.839  0.0049 -0.1555 -0.5088
 9573TIP3   OH250133   0.850   6.256   6.243  0.0559 -0.2823  0.3438
 9573TIP3    H150134   0.792   6.248   6.319 -0.6569 -1.2221 -0.2761
 9573TIP3    H250135   0.910   6.182   6.251 -1.8473 -2.1638 -1.4814
 9574TIP3   OH250136   1.476   1.325  13.686  0.0603  0.0246  0.2653
 9574TIP3    H150137   1.426   1.372  13.619 -1.5729 -3.3213 -1.1038
 9574TIP3    H250138   1.432   1.346  13.768  0.6940  2.4082  0.0795
 9575TIP3   OH250139   5.113   0.634   2.136  0.1135 -0.1252  0.5540
 9575TIP3    H150140   5.139   0.645   2.228  0.6691  0.0395  0.3847
 9575TIP3    H250141   5.142   0.545   2.113 -0.5354 -0.3735  0.7010
 9576TIP3   OH250142   2.931   3.650  11.677 -0.2316  0.4720 -0.6501
 9576TIP3    H150143   2.868   3.720  11.665  0.3869  1.1275 -0.1773
 9576TIP3    H250144   2.946   3.615  11.589  0.0514  1.4731 -1.0066
 9577TIP3   OH250145   4.582   2.361   0.043  0.5786 -0.0722  0.5352
 9577TIP3    H150146   4.628   2.424   0.099 -0.1524  1.9810 -1.0482
 9577TIP3    H250147   4.499   2.404   0.022 -0.1467 -1.7775 -0.2753
 9578TIP3   OH250148   1.731   3.625  16.355  0.0735  0.0170  0.5272
 9578TIP3    H150149   1.712   3.717  16.373  0.0328 -0.1703  1.4566
 9578TIP3    H250150   1.774   3.593  16.434  1.9814 -0.2397 -0.5258
 9579TIP3   OH250151   2.978   0.543   4.278 -0.1100 -0.5258 -0.7296
 9579TIP3    H150152   3.006   0.613   4.337 -2.8174 -1.3231  1.7552
 9579TIP3    H250153   2.933   0.588   4.207  0.2235  0.3418 -0.4056
 9580TIP3   OH250154   4.742   2.297  12.280  0.3667 -0.4290  0.0106
 9580TIP3    H150155   4.732   2.306  12.374  1.1157  1.8865 -0.0802
 9580TIP3    H250156   4.681   2.227  12.256 -0.9389 -0.0420  1.9928
 9581TIP3   OH250157   4.772   4.125   2.971 -0.3264 -0.0068 -0.5000
 9581TIP3    H150158   4.775   4.186   2.897  0.5461  1.2455  0.5193
 9581TIP3    H250159   4.685   4.085   2.966 -1.1361  1.7044 -0.9308
 9582TIP3   OH250160   1.890   2.660   0.979  0.7525 -0.0912  0.4079
 9582TIP3    H150161   1.823   2.671   1.046 -0.2474 -0.9390 -0.4113
 9582TIP3    H250162   1.861   2.716   0.907  0.9465 -0.4117  0.0750
 9583TIP3   OH250163   0.459   6.136   4.367 -0.3024  0.2451 -0.1569
 9583TIP3    H150164   0.406   6.187   4.306 -2.3086 -1.5331  0.0009
 9583TIP3    H250165   0.395   6.096   4.426  1.3230 -1.1021  0.7526
 9584TIP3   OH250166   6.409   0.801   0.685  0.1586  0.3490 -0.7965
 9584TIP3    H150167   6.362   0.799   0.768 -1.3526  0.7801 -1.5971
 9584TIP3    H250168   6.465   0.879   0.690  0.9154 -0.2306  0.2109
 9585TIP3   OH250169   1.879   4.252  15.984  0.4188 -0.2487 -0.3386
 9585TIP3    H150170   1.842   4.166  16.005  0.2828  0.2030  1.4351
 9585TIP3    H250171   1.835   4.278  15.903 -0.5189 -1.2640 -0.1825
 9586TIP3   OH250172   5.259   2.468   1.719 -0.0037  0.0048  0.0317
 9586TIP3    H150173   5.254   2.519   1.800 -2.0291  1.2469 -0.7812
 9586TIP3    H250174   5.256   2.377   1.748  3.2024  0.2099  1.5000
 9587TIP3   OH250175   3.675   6.517   5.931  0.3323  0.5508 -0.0637
 9587TIP3    H150176   3.649   6.608   5.944 -1.3115  0.0515  0.3598
 9587TIP3    H250177   3.702   6.486   6.017 -0.3554  0.2774  0.0591
 9588TIP3   OH250178   2.711   4.594  13.765  0.2036 -0.1625 -0.4267
 9588TIP3    H150179   2.674   4.522  13.713 -1.6480  1.1043 -1.0080
 9588TIP3    H250180   2.672   4.673  13.726  0.1257  0.9730  1.7948
 9589TIP3   OH250181   0.662   1.041   0.848  0.1870 -0.0045  0.3416
 9589TIP3    H150182   0.595   1.088   0.897 -0.4257 -0.5795  0.0733
 9589TIP3    H250183   0.624   1.029   0.761  0.5588 -0.5032  0.2445
 9590TIP3   OH250184   0.468   4.792  12.229  0.2693 -0.5504 -0.2199
 9590TIP3    H150185   0.483   4.851  12.303  1.9554 -0.7030 -0.3948
 9590TIP3    H250186   0.374   4.799  12.211 -0.2626 -0.7496  2.1210
 9591TIP3   OH250187   4.286   1.904   0.596 -0.4527 -0.4790 -0.1516
 9591TIP3    H150188   4.355   1.931   0.535  1.2592  1.9840  2.6325
 9591TIP3    H250189   4.330   1.846   0.658 -0.8806  0.7553  1.3894
 9592TIP3   OH250190   3.204   0.005   3.666 -0.2643  0.2963 -0.0236
 9592TIP3    H150191   3.151  -0.074   3.652  0.2734 -0.0542 -0.0903
 9592TIP3    H250192   3.231   0.032   3.578 -2.0361  1.6859 -0.2116
 9593TIP3   OH250193   3.448   0.289   2.321  0.1333  0.5829 -0.4618
 9593TIP3    H150194   3.513   0.317   2.256  2.1751  0.4065  1.3649
 9593TIP3    H250195   3.422   0.201   2.291  1.2268  0.3914 -0.9171
 9594TIP3   OH250196   4.658   3.849   1.634  0.3625 -0.1158 -0.1083
 9594TIP3    H150197   4.600   3.921   1.609  0.2037 -0.4812 -0.7937
 9594TIP3    H250198   4.690   3.874   1.721  0.6350  0.9797 -0.5088
 9595TIP3   OH250199   1.379   5.781  14.095 -0.4775  0.1861  0.5158
 9595TIP3    H150200   1.446   5.715  14.114 -0.0082  0.9312  1.5438
 9595TIP3    H250201   1.296   5.739  14.119 -0.4282 -0.7768 -0.8564
 9596TIP3   OH250202   4.336   1.923   3.312  0.6048  0.1140  0.1701
 9596TIP3    H150203   4.258   1.896   3.361  0.0530  2.6361  0.8224
 9596TIP3    H250204   4.343   1.859   3.241 -3.0471  0.6465 -0.8762
 9597TIP3   OH250205   3.152   2.072   5.129 -0.1095  0.3247 -0.1105
 9597TIP3    H150206   3.246   2.055   5.121  0.0711  1.5881 -0.8808
 9597TIP3    H250207   3.111   1.988   5.109  0.8574 -0.5090  1.2304
 9598TIP3   OH250208   3.045   5.593  13.820 -0.2428 -0.0500  0.6449
 9598TIP3    H150209   3.081   5.681  13.831  0.0178  0.1401 -1.2653
 9598TIP3    H250210   3.094   5.539  13.881  1.1200  0.7658  0.3178
 9599TIP3   OH250211   5.676   6.468   4.811 -0.4185 -0.6496  0.3276
 9599TIP3    H150212   5.681   6.564   4.811  1.7855 -0.6985 -0.7686
 9599TIP3    H250213   5.767   6.440   4.820 -1.0508 -2.6560  0.8383
 9600TIP3   OH250214   2.265   4.255  13.856  0.0053  0.1346  0.3124
 9600TIP3    H150215   2.223   4.336  13.826  0.0808  1.0834  2.5267
 9600TIP3    H250216   2.358   4.268  13.839  0.0111  0.4936  0.6082
 9601TIP3   OH250217   0.770   1.442  11.252 -0.9919  0.2271 -0.2817
 9601TIP3    H150218   0.751   1.527  11.292 -1.6171  0.0781 -0.2495
 9601TIP3    H250219   0.731   1.378  11.312 -1.8239 -0.0040 -1.0401
 9602TIP3   OH250220   5.264   4.967  14.790 -0.2624 -0.5113  0.1474
 9602TIP3    H150221   5.242   4.879  14.760  1.8038 -0.6897 -1.0630
 9602TIP3    H250222   5.194   5.023  14.756  0.3706 -1.1752 -2.4509
 9603TIP3   OH250223   4.233   2.591   0.464 -0.1874 -0.1730  0.3038
 9603TIP3    H150224   4.291   2.665   0.448  1.7517 -1.1749  2.1289
 9603TIP3    H250225   4.290   2.524   0.502 -2.2218 -1.9167  0.4748
 9604TIP3   OH250226   0.506   1.245  12.820  0.1833 -0.1231 -0.4326
 9604TIP3    H150227   0.442   1.279  12.883  0.9436  1.1083 -0.2920
 9604TIP3    H250228   0.589   1.249  12.866  0.8710  1.5021 -1.7179
 9605TIP3   OH250229   1.509   6.725  12.654  0.1262  0.4237 -0.2122
 9605TIP3    H150230   1.550   6.711  12.568  1.3840 -0.8894  0.5780
 9605TIP3    H250231   1.567   6.787  12.698  0.5213 -0.3638  0.3877
 9606TIP3   OH250232   1.246   6.519  12.260 -0.7378  0.0171 -0.1632
 9606TIP3    H150233   1.199   6.436  12.259  0.0860 -0.4741  0.2660
 9606TIP3    H250234   1.331   6.497  12.299 -0.3217  0.9590 -0.5231
 9607TIP3   OH250235   2.167   3.318   3.254 -0.1963  0.0906  0.2804
 9607TIP3    H150236   2.240   3.259   3.269  1.6545  1.5692 -2.2267
 9607TIP3    H250237   2.207   3.403   3.237 -2.3469  0.7276 -2.4468
 9608TIP3   OH250238   3.994   6.527  15.052  0.2221  0.2297  0.0043
 9608TIP3    H150239   3.927   6.589  15.023 -1.6376 -2.0506 -0.8956
 9608TIP3    H250240   4.074   6.557  15.008 -0.1782  2.8892  0.9233
 9609TIP3   OH250241   6.194   6.145  13.867  0.0503  0.5117 -0.2832
 9609TIP3    H150242   6.215   6.064  13.821 -0.8021 -1.1431  2.0650
 9609TIP3    H250243   6.256   6.149  13.940 -1.1644  0.9463  0.7581
 9610TIP3   OH250244   6.738   1.120  12.347  0.1204 -0.1342  0.5327
 9610TIP3    H150245   6.832   1.113  12.364  0.4279  1.7377 -0.1539
 9610TIP3    H250246   6.722   1.056  12.277  1.3263  0.9517 -0.8048
 9611TIP3   OH250247   4.290   5.530   3.681  0.2648  0.3660 -0.3667
 9611TIP3    H150248   4.221   5.586   3.645 -0.2273  0.4309  0.6431
 9611TIP3    H250249   4.348   5.512   3.607 -0.4234  0.9355 -1.0539
 9612TIP3   OH250250   0.748   5.080   0.811 -0.0368  0.3272 -0.4182
 9612TIP3    H150251   0.776   5.033   0.890  2.3610  0.5326 -1.0637
 9612TIP3    H250252   0.653   5.068   0.809  0.1363 -2.0702  0.9610
 9613TIP3   OH250253   3.173   2.186   0.848  0.0694 -0.3787 -0.3470
 9613TIP3    H150254   3.084   2.185   0.881 -0.3846  0.6542 -1.4459
 9613TIP3    H250255   3.225   2.225   0.918 -0.7225  0.9684 -0.4768
 9614TIP3   OH250256   1.902   5.307  11.738 -0.4781  0.3221 -0.4758
 9614TIP3    H150257   1.987   5.265  11.730 -0.5681  0.2881 -1.4339
 9614TIP3    H250258   1.874   5.290  11.827  0.7255  0.7390 -0.0047
 9615TIP3   OH250259   0.329   5.027  17.327  0.0596  1.0922 -0.2555
 9615TIP3    H150260   0.342   4.957  17.262  2.6904  0.9780  0.2923
 9615TIP3    H250261   0.416   5.065  17.339 -0.4911  1.6745  2.5810
 9616TIP3   OH250262   5.956   6.033   2.025 -0.2023  0.1987  0.8847
 9616TIP3    H150263   5.874   6.018   1.977 -0.4717  1.1188  1.0429
 9616TIP3    H250264   6.024   6.003   1.965 -0.4529  2.3967 -0.6046
 9617TIP3   OH250265   1.647   4.391  15.799 -0.6085  0.6399  0.0473
 9617TIP3    H150266   1.562   4.350  15.784 -0.3590  0.9088 -2.6462
 9617TIP3    H250267   1.661   4.447  15.722  2.6230 -0.5186 -0.3902
 9618TIP3   OH250268   1.635   5.395  13.915  0.2318 -0.6493  0.9264
 9618TIP3    H150269   1.592   5.405  13.830 -0.4312 -2.1330  1.0504
 9618TIP3    H250270   1.675   5.480  13.932  0.8816 -0.4739 -1.1354
 9619TIP3   OH250271   0.083   0.226  16.839  1.0730 -0.2438  0.4407
 9619TIP3    H150272   0.080   0.317  16.868 -1.1316 -0.3383  0.6611
 9619TIP3    H250273   0.095   0.233  16.744 -0.1917  0.3321  0.3058
 9620TIP3   OH250274   3.279   4.162  12.489 -0.2508 -0.1897  0.0175
 9620TIP3    H150275   3.311   4.113  12.566  0.4341  0.4491  0.1548
 9620TIP3    H250276   3.324   4.247  12.495 -1.1848  0.3403 -0.3865
 9621TIP3   OH250277   2.122   6.178   5.222 -0.0168 -0.1756 -0.2174
 9621TIP3    H150278   2.037   6.137   5.236  0.0672 -0.0090  0.9034
 9621TIP3    H250279   2.180   6.133   5.283  0.6331 -0.0797 -0.7567
 9622TIP3   OH250280   1.314   2.488  13.609 -0.0944 -0.0110 -0.2592
 9622TIP3    H150281   1.380   2.493  13.540  0.0489 -0.8833 -0.1951
 9622TIP3    H250282   1.263   2.410  13.587 -0.0213 -0.3153  0.6435
 9623TIP3   OH250283   4.313   5.819  11.163 -0.0086 -0.0947 -0.2379
 9623TIP3    H150284   4.281   5.730  11.178  0.6035 -0.2072  0.5198
 9623TIP3    H250285   4.250   5.875  11.209 -0.0247 -0.1948 -0.1358
 9624TIP3   OH250286   0.591   3.849   5.861 -0.5630  0.0176  0.1241
 9624TIP3    H150287   0.650   3.844   5.937 -1.1069  1.5597  0.6951
 9624TIP3    H250288   0.535   3.924   5.880 -1.8456 -0.6136 -1.0283
 9625TIP3   OH250289   1.640   6.073  15.071  0.4155 -0.3858 -0.0938
 9625TIP3    H150290   1.725   6.085  15.112 -0.4831  0.1062  1.7343
 9625TIP3    H250291   1.590   6.020  15.134 -0.5775 -0.8422 -1.2137
 9626TIP3   OH250292   3.300   5.430   2.552  0.4611 -0.6169  0.0314
 9626TIP3    H150293   3.363   5.377   2.601  0.1947 -1.9629 -1.0201
 9626TIP3    H250294   3.332   5.430   2.462 -0.8894 -1.1567 -0.4892
 9627TIP3   OH250295   1.805   0.091  12.431 -0.4589 -0.4183  0.6035
 9627TIP3    H150296   1.769   0.038  12.360 -0.6703 -0.8577  1.0314
 9627TIP3    H250297   1.738   0.157  12.447  0.5612  1.1425 -1.1377
 9628TIP3   OH250298   5.527   1.661  10.664 -0.4560  0.7040  0.1368
 9628TIP3    H150299   5.434   1.683  10.666 -0.4177  1.1003  3.8234
 9628TIP3    H250300   5.572   1.745  10.673  0.2268  0.3558  0.0773
 9629TIP3   OH250301   0.380   4.903   1.862 -0.6074  0.2599 -0.2186
 9629TIP3    H150302   0.428   4.821   1.854 -0.2625  0.4409 -0.0335
 9629TIP3    H250303   0.322   4.904   1.786  1.3969  1.1407 -1.8307
 9630TIP3   OH250304   1.034   4.066   5.593  0.2578 -0.1532  0.4296
 9630TIP3    H150305   1.123   4.101   5.589  0.0872  0.5956  2.1579
 9630TIP3    H250306   1.040   3.981   5.550  1.6830  0.1199  0.0290
 9631TIP3   OH250307   4.408   6.459  15.032  0.0879  0.1416 -0.2657
 9631TIP3    H150308   4.388   6.383  14.977  0.1268 -0.2602  0.2659
 9631TIP3    H250309   4.474   6.428  15.094 -1.1546  0.0840  1.0992
 9632TIP3   OH250310   3.612   1.489  16.448 -0.3892  0.3931  0.0542
 9632TIP3    H150311   3.589   1.501  16.541 -0.4735 -0.4812  0.1565
 9632TIP3    H250312   3.706   1.506  16.445 -0.2577 -0.2222  0.4312
 9633TIP3   OH250313   1.313   1.888  16.751  0.0454  0.4605 -0.3806
 9633TIP3    H150314   1.236   1.836  16.773  0.0093  1.2626  1.5914
 9633TIP3    H250315   1.343   1.923  16.835  3.7146 -1.3208 -0.7568
 9634TIP3   OH250316   3.917   0.936   4.064  0.4791 -0.4299 -0.5910
 9634TIP3    H150317   3.853   0.869   4.037 -1.9319  0.6968  1.8887
 9634TIP3    H250318   3.881   1.018   4.030 -0.3598  0.4389  2.1423
 9635TIP3   OH250319   4.237   1.026   5.604 -0.3492  0.9578 -0.0319
 9635TIP3    H150320   4.236   1.119   5.582  1.0528  1.4297  1.6642
 9635TIP3    H250321   4.242   1.025   5.700  0.9742 -0.8439 -0.0846
 9636TIP3   OH250322   3.780   6.319  13.386 -0.0166 -0.2850 -0.0007
 9636TIP3    H150323   3.828   6.263  13.325 -0.4034  1.2592 -1.7890
 9636TIP3    H250324   3.802   6.408  13.360 -0.1735  0.4594  2.1762
 9637TIP3   OH250325   4.002   2.560   5.181 -0.2090  0.6664  0.4804
 9637TIP3    H150326   4.045   2.593   5.260  1.2562  0.5530 -0.2361
 9637TIP3    H250327   4.029   2.621   5.112 -0.8274  0.3172 -0.0822
 9638TIP3   OH250328   1.477   6.712   0.544 -0.1587  0.0156  0.0609
 9638TIP3    H150329   1.549   6.652   0.563  0.0059  0.6571  1.5606
 9638TIP3    H250330   1.519   6.793   0.517 -0.3262  0.2105  0.3746
 9639TIP3   OH250331   6.060   0.590   5.327  0.5666 -0.3896  0.0068
 9639TIP3    H150332   6.111   0.518   5.290 -0.0521 -0.8951  0.1356
 9639TIP3    H250333   6.046   0.566   5.419 -0.1960 -0.4234 -0.1120
 9640TIP3   OH250334   3.842   0.254  14.565  0.0596 -0.5284 -0.0488
 9640TIP3    H150335   3.857   0.179  14.621  1.9105 -1.5435 -1.8034
 9640TIP3    H250336   3.917   0.312  14.580 -1.1827  0.9022  1.0506
 9641TIP3   OH250337   6.280   2.208   1.120  0.4546 -0.0977  0.1403
 9641TIP3    H150338   6.195   2.165   1.113 -0.5775  1.6172  1.2840
 9641TIP3    H250339   6.341   2.138   1.144 -0.7237 -1.2765 -0.2284
 9642TIP3   OH250340   5.534   3.852   2.500  0.1729 -0.2505  0.2119
 9642TIP3    H150341   5.484   3.928   2.530  1.6361  1.3445 -1.1083
 9642TIP3    H250342   5.474   3.805   2.442 -0.6995 -0.0091  0.8987
 9643TIP3   OH250343   1.417   3.239  17.296  0.4275  0.0145 -0.5292
 9643TIP3    H150344   1.434   3.145  17.306  1.7418  0.3599  0.9300
 9643TIP3    H250345   1.330   3.252  17.333  0.8035 -0.4387  0.5457
 9644TIP3   OH250346   0.309   2.207   6.452 -0.7122  0.1613 -0.2748
 9644TIP3    H150347   0.369   2.281   6.448  0.4256 -0.6900  0.4423
 9644TIP3    H250348   0.352   2.143   6.509 -1.7214 -1.0077 -0.7519
 9645TIP3   OH250349   2.220   6.009   4.751  0.4028 -0.3015 -0.1334
 9645TIP3    H150350   2.219   5.945   4.680  1.0566 -1.2855  0.7161
 9645TIP3    H250351   2.173   5.966   4.822 -1.9032  1.4033 -0.5263
 9646TIP3   OH250352   6.687   0.288   4.373 -0.1899 -0.2910 -0.2270
 9646TIP3    H150353   6.769   0.332   4.398  0.0268 -0.0673 -1.3105
 9646TIP3    H250354   6.713   0.196   4.363  0.2218 -0.0198 -1.8135
 9647TIP3   OH250355   5.338   5.455  14.431  0.1887  0.5630  0.4561
 9647TIP3    H150356   5.419   5.443  14.381 -0.5396 -1.2233 -0.3871
 9647TIP3    H250357   5.332   5.377  14.486 -1.1562  0.4562  0.1873
 9648TIP3   OH250358   2.217   1.559   1.888  0.5739  0.3219  0.4771
 9648TIP3    H150359   2.144   1.521   1.937  2.3478 -1.2753  2.0350
 9648TIP3    H250360   2.263   1.612   1.953  0.4450  1.9672 -0.6841
 9649TIP3   OH250361   1.375   3.269  12.998  0.2921  0.3636  0.3545
 9649TIP3    H150362   1.427   3.239  12.923 -0.5134 -2.3711  0.7928
 9649TIP3    H250363   1.319   3.337  12.963 -1.0909 -1.8012 -1.9893
 9650TIP3   OH250364   0.865   4.785  15.407  0.2170 -0.9231  0.3161
 9650TIP3    H150365   0.905   4.852  15.462  1.1315 -1.9758  0.9939
 9650TIP3    H250366   0.803   4.832  15.352  2.0430  0.7453 -0.4352
 9651TIP3   OH250367   1.173   4.032  11.062  0.2039  0.6990  0.1408
 9651TIP3    H150368   1.268   4.022  11.063  0.3682  2.0476 -0.2675
 9651TIP3    H250369   1.148   4.017  10.971  0.1351  1.2324  0.0704
 9652TIP3   OH250370   0.320   4.650   2.239  0.4084  0.1547 -0.4295
 9652TIP3    H150371   0.279   4.654   2.325  0.3837 -1.1664 -0.3626
 9652TIP3    H250372   0.410   4.681   2.253 -0.1340  1.8167 -0.3339
 9653TIP3   OH250373   0.605   0.775   2.054 -0.0725 -0.0645  0.5842
 9653TIP3    H150374   0.670   0.766   1.984 -1.9875 -0.7929 -1.1945
 9653TIP3    H250375   0.601   0.869   2.071 -0.5342  0.2759 -1.2665
 9654TIP3   OH250376   3.925   4.252  14.970  0.6414  0.2632  0.6728
 9654TIP3    H150377   4.002   4.213  14.929  0.6693 -0.6034  1.5199
 9654TIP3    H250378   3.885   4.305  14.901  1.5033  0.0116 -0.0288
 9655TIP3   OH250379   3.445   0.339  16.600  0.3176 -0.1941 -0.1857
 9655TIP3    H150380   3.370   0.293  16.562  0.4625  0.2206 -1.0028
 9655TIP3    H250381   3.493   0.373  16.524 -0.1308  1.8670  0.3867
 9656TIP3   OH250382   2.125   2.257  14.529  0.1071 -0.1043 -0.2658
 9656TIP3    H150383   2.069   2.316  14.579  0.3588  0.3559 -0.5087
 9656TIP3    H250384   2.113   2.285  14.438  0.5073 -0.1872 -0.3468
 9657TIP3   OH250385   5.993   3.013   2.588  0.1399 -0.6392  0.7267
 9657TIP3    H150386   5.986   2.983   2.678 -0.8078  3.0350  2.0492
 9657TIP3    H250387   6.087   3.020   2.572  0.3167 -0.7334  1.6615
 9658TIP3   OH250388   4.881   1.876  11.748 -0.7271 -0.1952 -0.0037
 9658TIP3    H150389   4.891   1.817  11.823  0.7220 -1.0924 -0.8570
 9658TIP3    H250390   4.786   1.887  11.740 -0.9920 -1.5767  0.8271
 9659TIP3   OH250391   6.336   0.403  17.116 -0.3513 -0.1192 -0.0928
 9659TIP3    H150392   6.284   0.335  17.072 -1.1877  1.0355 -0.9701
 9659TIP3    H250393   6.427   0.375  17.104 -0.6835 -1.1613 -0.2925
 9660TIP3   OH250394   1.837   5.313   3.324  0.4510 -0.1012 -0.1232
 9660TIP3    H150395   1.757   5.309   3.376 -0.7021  0.6814 -1.7497
 9660TIP3    H250396   1.826   5.390   3.268  0.6708 -1.9815 -2.9573
 9661TIP3   OH250397   3.620   3.646  11.596  0.2979  0.7354  0.3258
 9661TIP3    H150398   3.594   3.714  11.533 -1.5533  0.2795  0.5496
 9661TIP3    H250399   3.605   3.564  11.551  1.4791  0.4174  0.4598
 9662TIP3   OH250400   5.954   5.615   0.331 -0.1518  0.5902  0.3378
 9662TIP3    H150401   5.859   5.617   0.326 -0.4822 -3.8766  0.8215
 9662TIP3    H250402   5.982   5.595   0.241 -0.1490 -2.4181  0.9021
 9663TIP3   OH250403   4.041   4.238   6.475  0.0033 -0.0084  0.4296
 9663TIP3    H150404   4.126   4.209   6.506  0.3163  1.7558  1.3754
 9663TIP3    H250405   3.986   4.160   6.478  1.2627 -0.9094  0.9746
 9664TIP3   OH250406   4.038   4.769   3.892 -0.2216  0.0664  0.3757
 9664TIP3    H150407   4.023   4.722   3.810  1.4989 -1.6346  0.9495
 9664TIP3    H250408   4.015   4.706   3.960 -0.0845  0.8868  1.1943
 9665TIP3   OH250409   5.050   3.252   3.454  0.0845  0.1243  0.0994
 9665TIP3    H150410   4.967   3.281   3.416  1.0396  0.4173 -1.8687
 9665TIP3    H250411   5.054   3.159   3.433  1.3202  0.5992 -1.9937
 9666TIP3   OH250412   5.256   1.960  15.261  0.7088 -0.7358 -0.5042
 9666TIP3    H150413   5.226   1.962  15.170 -0.4295 -1.8105 -0.1766
 9666TIP3    H250414   5.176   1.968  15.313  1.3665  0.0963  0.4224
 9667TIP3   OH250415   3.259   3.522   1.032 -0.0226 -0.1637 -0.6370
 9667TIP3    H150416   3.219   3.455   0.978  0.8483 -1.0299 -0.2521
 9667TIP3    H250417   3.294   3.474   1.108 -0.0316  0.8247  0.0134
 9668TIP3   OH250418   5.162   5.041   3.079 -0.4163  0.1203 -0.2543
 9668TIP3    H150419   5.142   5.016   3.169  0.0946 -0.4676 -0.2914
 9668TIP3    H250420   5.254   5.016   3.068  0.0261  1.7007 -0.4268
 9669TIP3   OH250421   2.685   5.992  11.939  0.5766  0.0151  0.5031
 9669TIP3    H150422   2.729   6.047  12.002  0.6384 -0.8877  1.2712
 9669TIP3    H250423   2.746   5.986  11.865  1.7141 -1.1130  1.4961
 9670TIP3   OH250424   4.920   5.131   4.120 -0.0693 -0.3124  0.2882
 9670TIP3    H150425   4.866   5.093   4.189 -0.3856  0.7830  0.6740
 9670TIP3    H250426   4.990   5.068   4.107 -0.2484 -0.7511  1.3170
 9671TIP3   OH250427   6.237   6.242   5.453 -0.2663  0.2295  0.1903
 9671TIP3    H150428   6.204   6.274   5.537  1.0862  1.6980  0.2119
 9671TIP3    H250429   6.321   6.287   5.442 -0.2885 -0.1426 -1.8218
 9672TIP3   OH250430   1.517   2.773   1.490 -0.7171  0.3626 -0.0194
 9672TIP3    H150431   1.574   2.725   1.430 -0.3132 -0.3988  0.9444
 9672TIP3    H250432   1.472   2.837   1.435  1.2662  1.1852 -0.7638
 9673TIP3   OH250433   3.747   1.704  15.049  0.0272 -0.7388 -0.4280
 9673TIP3    H150434   3.789   1.673  15.129 -0.0781  1.1650  0.4074
 9673TIP3    H250435   3.678   1.763  15.079 -0.9947 -1.1247 -1.8973
 9674TIP3   OH250436   2.849   5.163   4.657 -0.3182  0.2884 -0.0390
 9674TIP3    H150437   2.831   5.207   4.740 -0.6935  2.3455 -1.1357
 9674TIP3    H250438   2.943   5.177   4.642 -0.6991  2.0562 -1.0554
 9675TIP3   OH250439   2.553   1.476  15.099 -0.0066  0.2944 -0.0565
 9675TIP3    H150440   2.623   1.524  15.142  1.3144 -1.5142 -0.0578
 9675TIP3    H250441   2.538   1.400  15.155 -1.0348 -0.0357 -0.7482
 9676TIP3   OH250442   4.926   6.544   5.537  0.3458 -0.2258 -0.3348
 9676TIP3    H150443   4.895   6.626   5.500 -1.6130 -0.1706  1.2864
 9676TIP3    H250444   4.980   6.569   5.612 -0.8137 -0.3842  0.5790
 9677TIP3   OH250445   5.507   3.562   4.360  0.2220  0.4280 -0.1930
 9677TIP3    H150446   5.507   3.482   4.413  0.3155 -0.8586 -2.0311
 9677TIP3    H250447   5.564   3.623   4.407 -0.3967 -0.3199  1.6086
 9678TIP3   OH250448   6.181   0.383   5.214 -0.0336  0.3419 -0.1768
 9678TIP3    H150449   6.176   0.291   5.239 -0.5388  0.9204  1.9961
 9678TIP3    H250450   6.247   0.385   5.144  0.9058 -1.4803  0.5890
 9679TIP3   OH250451   0.092   2.977  11.251  0.2998  0.0926  0.3402
 9679TIP3    H150452   0.014   2.991  11.197  0.9111 -0.9695 -0.8686
 9679TIP3    H250453   0.162   3.022  11.205  0.4620  0.8281  1.2905
 9680TIP3   OH250454   2.865   5.544   3.491 -0.0782 -0.4086 -0.1957
 9680TIP3    H150455   2.779   5.554   3.450  0.1126 -0.5853 -0.6453
 9680TIP3    H250456   2.896   5.634   3.504 -1.5219 -0.1959  2.5829
 9681TIP3   OH250457   4.318   3.841   4.663  0.5609  0.4843  0.4456
 9681TIP3    H150458   4.250   3.889   4.615  0.6443  0.8131  0.6595
 9681TIP3    H250459   4.289   3.750   4.658 -0.1433  0.6665  0.9171
 9682TIP3   OH250460   3.235   6.748  17.208 -0.3789 -0.6348  0.6379
 9682TIP3    H150461   3.186   6.735  17.127  0.4689 -2.3751  0.3654
 9682TIP3    H250462   3.203   6.680  17.266 -0.5480  0.2315  1.5955
 9683TIP3   OH250463   3.316   3.620   2.617 -0.8300  0.4629  0.5990
 9683TIP3    H150464   3.347   3.602   2.529 -1.0838  1.7811  0.2149
 9683TIP3    H250465   3.307   3.534   2.658 -1.3044 -0.2066 -0.8567
 9684TIP3   OH250466   1.579   1.637   5.804  0.4820  1.0682 -0.2194
 9684TIP3    H150467   1.660   1.606   5.762  0.9860  1.8102  0.1886
 9684TIP3    H250468   1.609   1.692   5.876 -0.3523 -0.5581  1.4737
 9685TIP3   OH250469   4.892   1.961  13.903  0.5830  0.3539 -0.5037
 9685TIP3    H150470   4.978   1.961  13.944  0.9384  0.3202 -1.2391
 9685TIP3    H250471   4.841   2.024  13.954  1.5740  1.7107 -1.1594
 9686TIP3   OH250472   1.827   4.291  17.332 -0.5401  0.1490  0.1573
 9686TIP3    H150473   1.801   4.381  17.314 -1.7971 -0.0157  0.9863
 9686TIP3    H250474   1.890   4.270  17.264 -0.3513  1.5989 -0.1461
 9687TIP3   OH250475   4.965   4.903   2.708 -0.5045  0.4401  0.2479
 9687TIP3    H150476   5.017   4.901   2.628 -1.7477 -0.4907 -0.5684
 9687TIP3    H250477   4.908   4.826   2.702 -2.1774  1.5700  0.9655
 9688TIP3   OH250478   1.471   6.238  14.738  0.2224 -0.0732 -0.1176
 9688TIP3    H150479   1.466   6.334  14.734 -1.4021 -0.1266  0.0422
 9688TIP3    H250480   1.524   6.214  14.662  1.9603  1.0091  0.6835
 9689TIP3   OH250481   0.974   3.158   1.671  0.0548 -0.2668 -0.2026
 9689TIP3    H150482   0.937   3.196   1.591 -0.0810  1.2816  0.5641
 9689TIP3    H250483   0.906   3.100   1.704 -0.6155  0.4631 -0.2701
 9690TIP3   OH250484   5.511   6.587  17.129 -0.3551  0.5717  0.0514
 9690TIP3    H150485   5.511   6.668  17.079  2.5776 -0.7909 -2.4554
 9690TIP3    H250486   5.478   6.521  17.068  0.9476 -0.7604  0.7236
 9691TIP3   OH250487   5.957   6.652  14.937 -0.1494  0.5062  0.0038
 9691TIP3    H150488   5.969   6.605  15.020  2.1013  0.6452 -0.1795
 9691TIP3    H250489   6.043   6.649  14.896 -1.4250 -0.4343 -2.8409
 9692TIP3   OH250490   5.309   5.282  15.504  0.3136 -0.2897  0.6750
 9692TIP3    H150491   5.221   5.284  15.541 -0.3312 -0.3883 -0.7864
 9692TIP3    H250492   5.343   5.371  15.518 -0.7820  0.3519 -0.4412
 9693TIP3   OH250493   5.930   3.300  13.809  0.3201  0.1537  0.3570
 9693TIP3    H150494   6.010   3.262  13.772 -0.3189 -1.1282  0.2494
 9693TIP3    H250495   5.864   3.286  13.741 -0.8800 -2.2153  1.8748
 9694TIP3   OH250496   3.392   4.631   4.542 -0.0697 -0.1902 -0.0374
 9694TIP3    H150497   3.414   4.619   4.634 -0.6238 -0.0135  0.1254
 9694TIP3    H250498   3.455   4.578   4.495  1.3918  1.1223  0.3425
 9695TIP3   OH250499   1.824   2.497   6.051 -0.0140  0.0849 -0.0983
 9695TIP3    H150500   1.879   2.486   6.129  0.9747 -0.6952 -0.8722
 9695TIP3    H250501   1.857   2.577   6.010 -1.4996  1.3163  1.0147
 9696TIP3   OH250502   4.016   4.957  14.920  0.3902 -0.0412  0.1144
 9696TIP3    H150503   4.098   4.980  14.964  0.1055 -0.7471  1.0269
 9696TIP3    H250504   3.959   5.033  14.934  0.3357 -0.2177  0.9005
 9697TIP3   OH250505   5.297   1.363   0.068 -0.0614 -0.5000  0.2695
 9697TIP3    H150506   5.303   1.415  -0.012  1.0575 -1.0781 -0.0438
 9697TIP3    H250507   5.380   1.316   0.072 -0.3408 -0.9227  1.4713
 9698TIP3   OH250508   3.830   5.429   5.903  0.3857  0.3934  0.2295
 9698TIP3    H150509   3.811   5.500   5.964  0.9633  0.7365  0.0173
 9698TIP3    H250510   3.802   5.462   5.818 -3.6463 -1.3327  0.6770
 9699TIP3   OH250511   2.267   4.380  12.165 -0.2894  0.1362 -0.0231
 9699TIP3    H150512   2.189   4.425  12.133 -0.3682  0.1471  0.1841
 9699TIP3    H250513   2.292   4.428  12.244 -0.2729 -0.0770  0.1018
 9700TIP3   OH250514   0.829   1.288   6.425  0.0650 -0.2636  0.2582
 9700TIP3    H150515   0.899   1.235   6.386  0.5055  1.0177 -0.7454
 9700TIP3    H250516   0.864   1.376   6.429 -0.3195 -0.1744  2.7945
 9701TIP3   OH250517   5.233   3.235  14.376 -0.0629  0.2121 -0.0120
 9701TIP3    H150518   5.261   3.161  14.429  0.8567 -0.1001 -0.8982
 9701TIP3    H250519   5.169   3.198  14.314  1.0534 -0.0608 -1.0439
 9702TIP3   OH250520   2.765   2.971  15.134  0.4957 -0.7276  0.0511
 9702TIP3    H150521   2.694   2.929  15.182  0.5024 -1.4772 -0.5724
 9702TIP3    H250522   2.740   2.965  15.042  0.7630  0.1554 -0.0931
 9703TIP3   OH250523   1.392   1.574   4.784  0.7100  0.6128 -0.1076
 9703TIP3    H150524   1.418   1.576   4.876  2.0957  0.2628 -0.4671
 9703TIP3    H250525   1.413   1.662   4.751 -0.8654  1.1220  0.1618
 9704TIP3   OH250526   6.385   6.614   4.863 -0.0095 -0.3081  0.1770
 9704TIP3    H150527   6.328   6.616   4.940  1.1338 -2.4024  1.1531
 9704TIP3    H250528   6.353   6.541   4.811  0.8259 -0.5375 -0.0288
 9705TIP3   OH250529   2.582   4.816   0.578  0.2085 -0.1916  0.0490
 9705TIP3    H150530   2.597   4.841   0.487 -1.0653 -0.6001 -0.2880
 9705TIP3    H250531   2.629   4.733   0.589 -1.3081 -1.1969 -0.8396
 9706TIP3   OH250532   1.837   1.648  17.256 -0.1941  0.0545 -0.1823
 9706TIP3    H150533   1.793   1.733  17.262 -0.8733 -0.2486 -0.6438
 9706TIP3    H250534   1.922   1.668  17.217 -0.6517  0.4431 -1.0252
 9707TIP3   OH250535   2.560   4.252   4.344  0.2088 -0.0575  0.3504
 9707TIP3    H150536   2.585   4.274   4.433 -0.6605  2.1756  0.1064
 9707TIP3    H250537   2.466   4.231   4.350  0.3741 -0.9199  0.1000
 9708TIP3   OH250538   1.465   4.645   3.548 -0.2368 -0.4236  0.0896
 9708TIP3    H150539   1.414   4.699   3.488 -0.2150  0.0255  0.4802
 9708TIP3    H250540   1.464   4.692   3.631  1.7834  0.2059 -0.1814
 9709TIP3   OH250541   1.766   5.386   5.528  0.2571 -0.0262  0.1964
 9709TIP3    H150542   1.690   5.409   5.475 -0.6343 -1.0328  0.9805
 9709TIP3    H250543   1.810   5.469   5.545 -1.6811  0.8664  1.2118
 9710TIP3   OH250544   1.053   2.329   5.566  0.2011 -0.3079  0.2312
 9710TIP3    H150545   1.078   2.403   5.512 -1.4659  0.3683  0.3193
 9710TIP3    H250546   1.136   2.286   5.588  1.2576  1.7758  0.5531
 9711TIP3   OH250547   0.671   1.313   1.410  0.6703  0.2063 -0.0727
 9711TIP3    H150548   0.623   1.394   1.399  1.4945  0.5554 -1.3035
 9711TIP3    H250549   0.760   1.333   1.381  0.7081 -1.3190 -1.1531
 9712TIP3   OH250550   3.159   1.129   2.532  0.3801  0.1322 -0.4030
 9712TIP3    H150551   3.126   1.138   2.622  0.2452 -0.7553 -0.3583
 9712TIP3    H250552   3.084   1.148   2.477  0.5204  0.9085 -0.3390
 9713TIP3   OH250553   5.377   2.409  12.926  0.8516 -0.5709 -0.4101
 9713TIP3    H150554   5.284   2.392  12.938  0.9846  0.6214  3.6193
 9713TIP3    H250555   5.414   2.323  12.905 -0.9685 -1.2776 -0.8837
 9714TIP3   OH250556   3.689   1.093  16.452 -0.1839  0.0481 -0.2500
 9714TIP3    H150557   3.703   1.110  16.545 -2.9626  1.7403 -0.0392
 9714TIP3    H250558   3.672   0.999  16.447  0.4264 -0.1401  0.8723
 9715TIP3   OH250559   3.649   0.357  17.080  0.0586  0.3345 -0.7147
 9715TIP3    H150560   3.644   0.453  17.079  1.4359  0.4408 -3.0794
 9715TIP3    H250561   3.595   0.330  17.006  0.8989 -0.6136 -0.9932
 9716TIP3   OH250562   6.629   4.371  13.189  0.0867  0.5618  0.1237
 9716TIP3    H150563   6.648   4.402  13.277  0.4674  1.2686 -0.1973
 9716TIP3    H250564   6.714   4.343  13.154 -0.1722 -0.3830  0.2265
 9717TIP3   OH250565   0.871   3.195  17.381  0.6347  0.0448  0.1738
 9717TIP3    H150566   0.882   3.114  17.429  1.3903  0.4169  0.6509
 9717TIP3    H250567   0.955   3.240  17.390  0.2276  0.8791 -0.0793
 9718TIP3   OH250568   4.702   3.956  15.381  0.3418 -0.1184  0.1847
 9718TIP3    H150569   4.617   3.915  15.365  1.2583 -1.6815 -0.9639
 9718TIP3    H250570   4.697   3.986  15.472 -0.6887 -2.1017  0.8467
 9719TIP3   OH250571   1.713   3.099   5.909 -0.2342 -0.2093  0.8474
 9719TIP3    H150572   1.762   3.177   5.933  0.5637 -0.6862  0.7800
 9719TIP3    H250573   1.626   3.132   5.887 -0.1476  0.5643  1.6018
 9720TIP3   OH250574   3.793   0.616  11.784 -0.4648  0.0671 -0.3646
 9720TIP3    H150575   3.753   0.688  11.831 -1.6338 -0.2806 -0.7936
 9720TIP3    H250576   3.756   0.537  11.824  0.2438 -0.2815 -0.3763
 9721TIP3   OH250577   4.053   4.966   1.581 -0.0772 -0.0151  0.0020
 9721TIP3    H150578   4.141   4.962   1.543 -0.1809  1.0089 -0.3730
 9721TIP3    H250579   4.052   4.897   1.647  0.7592 -0.5305 -0.5083
 9722TIP3   OH250580   4.915   1.401  10.972 -0.1415 -0.5364  0.5264
 9722TIP3    H150581   4.996   1.451  10.959 -0.4309 -0.2601 -0.2740
 9722TIP3    H250582   4.940   1.310  10.954 -0.0789 -0.4080 -0.0554
 9723TIP3   OH250583   1.985   1.691   6.124  0.3933  0.2082  0.9900
 9723TIP3    H150584   1.975   1.634   6.200  0.8385  1.1903  1.7979
 9723TIP3    H250585   2.065   1.740   6.140  1.2997 -0.5634 -0.8046
 9724TIP3   OH250586   6.563   2.766   4.709 -0.0476 -0.2630 -0.5764
 9724TIP3    H150587   6.656   2.756   4.726  0.1704  0.0946 -1.4998
 9724TIP3    H250588   6.544   2.857   4.733 -0.6937 -0.9391  1.8536
 9725TIP3   OH250589   2.596   6.699   4.630 -0.0311  0.0344 -0.0247
 9725TIP3    H150590   2.672   6.721   4.684 -0.4109 -0.8209  0.8960
 9725TIP3    H250591   2.524   6.692   4.693 -0.3759 -1.5225 -0.5623
 9726TIP3   OH250592   6.387   1.655  12.262  0.1767  0.0523 -0.0011
 9726TIP3    H150593   6.370   1.566  12.295  1.4990 -0.0806  0.3603
 9726TIP3    H250594   6.425   1.642  12.176 -0.0113  0.2900 -0.1213
 9727TIP3   OH250595   5.620   1.277   5.031  0.1242  0.0173  0.2600
 9727TIP3    H150596   5.675   1.221   5.085  0.0439 -0.3507 -0.0381
 9727TIP3    H250597   5.536   1.231   5.027  0.2344 -0.1183 -0.4566
 9728TIP3   OH250598   2.361   2.812  11.130  0.0347 -0.0057 -0.3335
 9728TIP3    H150599   2.447   2.780  11.105 -0.8225 -1.4445 -1.5980
 9728TIP3    H250600   2.327   2.856  11.052 -0.2055  0.9653  0.2998
 9729TIP3   OH250601   2.386   4.079  15.995 -0.1357  0.0135 -0.2010
 9729TIP3    H150602   2.361   4.000  16.041 -2.6810 -0.0699 -1.5484
 9729TIP3    H250603   2.310   4.137  16.002 -0.2614  0.4116 -3.2620
 9730TIP3   OH250604   1.742   2.774   0.593  0.2696 -0.1825  0.1659
 9730TIP3    H150605   1.830   2.796   0.562  0.3757 -0.5462  0.2036
 9730TIP3    H250606   1.699   2.858   0.603  0.4775 -0.0222 -0.2544
 9731TIP3   OH250607   0.602   2.266  11.273  0.1636 -0.3991 -0.7327
 9731TIP3    H150608   0.547   2.337  11.239  0.1433 -1.1678 -2.3832
 9731TIP3    H250609   0.690   2.285  11.241  0.6870  0.2129  0.9558
 9732TIP3   OH250610   5.599   6.225  15.549  0.1046  0.1455  0.5534
 9732TIP3    H150611   5.547   6.165  15.496 -0.4504  0.8513  0.2737
 9732TIP3    H250612   5.688   6.216  15.516  0.0373 -0.5638  0.5581
 9733TIP3   OH250613   5.020   1.957   3.279 -0.2701  0.9577  0.1585
 9733TIP3    H150614   4.930   1.973   3.249  0.3236  2.1883 -1.0777
 9733TIP3    H250615   5.067   1.928   3.201  0.3801  0.1573  0.8319
 9734TIP3   OH250616   2.801   2.168   4.658  0.0553  0.2625 -0.0378
 9734TIP3    H150617   2.787   2.094   4.716  0.0637 -0.1476 -0.5501
 9734TIP3    H250618   2.713   2.205   4.644 -0.2555 -0.8885 -1.3841
 9735TIP3   OH250619   3.812   1.167  13.835  0.3077  0.3137 -0.4244
 9735TIP3    H150620   3.795   1.244  13.780  0.8949  0.3495 -0.5604
 9735TIP3    H250621   3.735   1.162  13.892  0.0267  0.7025 -0.7545
 9736TIP3   OH250622   4.827   0.314   5.557 -0.1507 -0.0055  0.1791
 9736TIP3    H150623   4.862   0.226   5.543 -2.1594 -0.7693 -0.4128
 9736TIP3    H250624   4.834   0.328   5.651  0.3855 -0.7139  0.2503
 9737TIP3   OH250625   0.764   5.418   0.759 -0.3108 -0.2732 -0.2216
 9737TIP3    H150626   0.715   5.339   0.785 -0.7827  0.3340  0.7718
 9737TIP3    H250627   0.699   5.473   0.716 -0.5218  0.4972  1.0210
 9738TIP3   OH250628   1.051   6.238   4.834  0.2066 -0.0365  0.1360
 9738TIP3    H150629   1.026   6.160   4.784  1.5450  0.5680 -1.6078
 9738TIP3    H250630   0.974   6.294   4.830 -0.7782 -1.2552  1.4373
 9739TIP3   OH250631   2.957   5.368  16.256 -0.5228 -0.2727  0.1549
 9739TIP3    H150632   3.015   5.442  16.276  1.9660 -1.3838 -2.1737
 9739TIP3    H250633   2.882   5.407  16.212  0.9879  0.9603 -1.5200
 9740TIP3   OH250634   2.486   1.504  10.692 -0.3727 -0.1144 -0.3684
 9740TIP3    H150635   2.542   1.429  10.670 -1.7343 -1.1113 -0.5581
 9740TIP3    H250636   2.471   1.548  10.608 -0.7927 -0.5216 -0.5152
 9741TIP3   OH250637   5.282   2.279  14.923 -0.0801 -0.1660  0.5989
 9741TIP3    H150638   5.318   2.191  14.934  0.0105 -0.4129 -1.2671
 9741TIP3    H250639   5.340   2.320  14.859 -2.5588 -0.2989 -1.9235
 9742TIP3   OH250640   0.977   1.930   5.335  0.0834  0.3897 -0.1125
 9742TIP3    H150641   0.984   2.025   5.331  0.7129  0.3508  0.0673
 9742TIP3    H250642   1.038   1.904   5.404 -0.2623 -0.1248  0.0046
 9743TIP3   OH250643   2.807   1.643  16.838  0.1060  0.9852  0.0070
 9743TIP3    H150644   2.886   1.630  16.890  1.2299 -1.4533 -2.0804
 9743TIP3    H250645   2.751   1.569  16.859  0.9466 -0.5434 -2.6578
 9744TIP3   OH250646   2.808   0.243  15.464  0.3934 -0.2004 -0.1033
 9744TIP3    H150647   2.851   0.168  15.506  0.8297 -0.0388 -0.2525
 9744TIP3    H250648   2.795   0.215  15.373  0.4648 -0.1371 -0.1336
 9745TIP3   OH250649   0.460   3.865  11.195  0.0199  0.2667 -0.5863
 9745TIP3    H150650   0.441   3.830  11.108 -1.9132 -0.4634  0.0933
 9745TIP3    H250651   0.466   3.960  11.181  2.1067  0.0217 -1.8778
 9746TIP3   OH250652   5.949   2.949  12.359 -0.1552  0.5395  0.9001
 9746TIP3    H150653   6.027   3.001  12.340  0.1565 -0.5242 -1.0104
 9746TIP3    H250654   5.977   2.858  12.348 -1.8234  0.1549 -0.6628
 9747TIP3   OH250655   6.023   3.265   2.286  0.9611 -0.4191 -0.3825
 9747TIP3    H150656   6.036   3.312   2.368 -1.0087 -0.2529 -0.1198
 9747TIP3    H250657   6.089   3.195   2.288  0.2281 -1.1410  1.8935
 9748TIP3   OH250658   0.573   3.701  13.062 -0.3238  0.1102 -0.3135
 9748TIP3    H150659   0.661   3.681  13.029 -0.8659  0.4842 -2.1571
 9748TIP3    H250660   0.587   3.763  13.133  0.9292 -0.0630 -0.3965
 9749TIP3   OH250661   2.445   6.718  12.192  0.2767 -0.2630  0.2138
 9749TIP3    H150662   2.412   6.792  12.142 -0.4192  2.1586  3.8747
 9749TIP3    H250663   2.373   6.655  12.195 -1.2688  1.4592  1.5457
 9750TIP3   OH250664   1.134   4.150   3.431 -0.1123  0.2899 -0.2161
 9750TIP3    H150665   1.039   4.138   3.442 -0.2556  2.6153  2.0183
 9750TIP3    H250666   1.146   4.152   3.336 -2.4306  0.7448 -0.5759
 9751TIP3   OH250667   4.519   0.214  16.678  0.4996  0.7536  0.4987
 9751TIP3    H150668   4.565   0.198  16.760 -0.4776  1.5473  1.2405
 9751TIP3    H250669   4.534   0.307  16.660  0.3577  0.6846  0.0119
 9752TIP3   OH250670   1.317   1.127   3.687  0.1389 -0.4548  0.1622
 9752TIP3    H150671   1.263   1.180   3.629  0.5031  0.6361  0.7972
 9752TIP3    H250672   1.297   1.159   3.775  0.6776 -1.0926  0.5294
 9753TIP3   OH250673   5.464   5.852   1.038  0.5935  0.1427 -0.3379
 9753TIP3    H150674   5.486   5.778   0.982  2.1274 -1.6348  2.3681
 9753TIP3    H250675   5.544   5.869   1.087 -0.8269  1.0633  1.8104
 9754TIP3   OH250676   6.589   0.175  11.691  0.6504 -0.0043 -0.3926
 9754TIP3    H150677   6.534   0.120  11.747  1.2298  0.0507  0.2500
 9754TIP3    H250678   6.529   0.237  11.651  0.4536  1.1426  1.5949
 9755TIP3   OH250679   6.636   4.088   3.136 -0.0425 -0.0601  0.4089
 9755TIP3    H150680   6.598   4.144   3.204 -1.4941 -0.5026  0.0130
 9755TIP3    H250681   6.631   4.000   3.173  0.2380 -0.1682  0.1866
 9756TIP3   OH250682   0.207   0.938  14.981  0.1405 -0.8194  0.3323
 9756TIP3    H150683   0.260   0.892  14.916  0.6726  1.4153 -0.9220
 9756TIP3    H250684   0.143   0.873  15.010  0.3946 -2.1398 -1.8357
 9757TIP3   OH250685   6.760   6.287   1.027 -0.1472 -0.6372  0.3550
 9757TIP3    H150686   6.847   6.322   1.004 -0.8191  0.8780 -0.0162
 9757TIP3    H250687   6.740   6.326   1.112 -1.3743  0.8610 -0.5557
 9758TIP3   OH250688   5.523   5.272   2.818  0.3198 -0.1334  0.1107
 9758TIP3    H150689   5.593   5.290   2.755  0.4967  2.2121  0.8876
 9758TIP3    H250690   5.443   5.296   2.771  0.4516  1.6156  0.6967
 9759TIP3   OH250691   4.750   4.677  16.470 -0.0407  0.7893 -0.0545
 9759TIP3    H150692   4.738   4.632  16.386 -0.0830  0.7630 -0.0337
 9759TIP3    H250693   4.842   4.704  16.469 -0.1717  1.2387 -0.3304
 9760TIP3   OH250694   0.546   2.757  11.769 -0.0551 -0.1880  0.0452
 9760TIP3    H150695   0.616   2.764  11.704 -0.9542  1.4707 -0.8105
 9760TIP3    H250696   0.527   2.663  11.773 -0.0192 -0.3504 -2.1776
 9761TIP3   OH250697   0.783   4.287   2.078 -0.3033 -0.2501  0.0477
 9761TIP3    H150698   0.763   4.362   2.134 -1.0294  0.3254 -0.9486
 9761TIP3    H250699   0.834   4.324   2.006 -1.8542 -0.4368 -1.1870
 9762TIP3   OH250700   3.393   6.693  12.804 -0.0793 -0.0221  0.2575
 9762TIP3    H150701   3.421   6.622  12.747 -1.1529  0.1912 -0.5827
 9762TIP3    H250702   3.354   6.649  12.880 -0.3188 -0.3395 -0.0443
 9763TIP3   OH250703   2.772   1.439   4.237  0.0484  0.1477  0.0467
 9763TIP3    H150704   2.717   1.496   4.290 -0.2647  0.2524 -0.3825
 9763TIP3    H250705   2.766   1.354   4.279 -0.3025  0.2010  0.1090
 9764TIP3   OH250706   6.375   2.237   4.819  0.2896  0.3775 -0.3685
 9764TIP3    H150707   6.440   2.292   4.776  0.1765 -1.5022 -3.1662
 9764TIP3    H250708   6.291   2.277   4.797  0.3221  1.1878  0.8598
 9765TIP3   OH250709   6.583   3.172   0.783  0.2794  0.0889  0.1112
 9765TIP3    H150710   6.606   3.116   0.709 -2.2695 -1.3381  0.2766
 9765TIP3    H250711   6.595   3.116   0.860  2.0991  1.2936  0.7720
 9766TIP3   OH250712   2.902   6.663   1.118 -0.2338  0.0309 -0.2598
 9766TIP3    H150713   2.950   6.587   1.085 -0.7772 -0.3152 -0.2656
 9766TIP3    H250714   2.900   6.652   1.213  0.0491  0.2613 -0.2241
 9767TIP3   OH250715   5.129   4.810  11.163  0.1765  0.0604 -0.2075
 9767TIP3    H150716   5.141   4.898  11.125 -2.7985  0.2054 -1.1191
 9767TIP3    H250717   5.127   4.752  11.087 -1.1973 -0.3003  0.0786
 9768TIP3   OH250718   6.165   0.315   0.504  0.0959 -0.3498  0.3951
 9768TIP3    H150719   6.097   0.270   0.554 -0.2103  0.6116  0.8673
 9768TIP3    H250720   6.138   0.407   0.504  3.0789  0.7070  3.4767
 9769TIP3   OH250721   2.485   5.920  11.181  0.0717  0.1646 -0.4812
 9769TIP3    H150722   2.492   5.891  11.090 -1.2151 -0.3807 -0.4272
 9769TIP3    H250723   2.482   6.015  11.175 -1.6298  0.1064 -1.1781
 9770TIP3   OH250724   3.718   2.843  16.353 -0.3195 -0.1024  0.0237
 9770TIP3    H150725   3.645   2.808  16.405  1.4491 -0.7471  2.2390
 9770TIP3    H250726   3.731   2.778  16.284  0.1516 -1.7092  1.5328
 9771TIP3   OH250727   4.309   3.312   1.455 -0.3481  0.2974  1.2216
 9771TIP3    H150728   4.352   3.391   1.488  0.3864  0.6899 -0.5800
 9771TIP3    H250729   4.282   3.334   1.366  1.0906 -1.8555  0.1426
 9772TIP3   OH250730   1.274   2.672  16.499  0.5958  0.2186 -0.0570
 9772TIP3    H150731   1.322   2.719  16.567  2.1460 -2.0745  0.5816
 9772TIP3    H250732   1.194   2.642  16.542 -0.2394  1.8626 -0.3786
 9773TIP3   OH250733   2.625   1.903   3.537  0.0523  0.0431 -0.4622
 9773TIP3    H150734   2.589   1.815   3.529 -1.4926  0.7883 -2.5002
 9773TIP3    H250735   2.679   1.915   3.459  0.0892  0.9556 -0.3123
 9774TIP3   OH250736   4.464   2.934  10.968  0.4606 -0.5606 -0.3917
 9774TIP3    H150737   4.452   3.019  11.011  0.0494 -0.7771 -0.0756
 9774TIP3    H250738   4.496   2.877  11.037 -0.0077 -0.8596 -0.4182
 9775TIP3   OH250739   3.772   5.970  16.613  0.3899 -0.1252  0.0533
 9775TIP3    H150740   3.852   5.980  16.562  0.9759 -2.8198  0.2775
 9775TIP3    H250741   3.711   6.033  16.576  2.1843  1.0680 -1.0100
 9776TIP3   OH250742   5.137   0.483  13.395  0.6829  0.4021 -0.0233
 9776TIP3    H150743   5.150   0.437  13.478  0.8005 -0.3521 -0.4537
 9776TIP3    H250744   5.119   0.573  13.421 -1.4805 -0.2455  0.9230
 9777TIP3   OH250745   5.269   1.755   4.765 -0.0032  0.3721 -0.2267
 9777TIP3    H150746   5.365   1.755   4.765  0.0257  0.9346  1.2953
 9777TIP3    H250747   5.245   1.787   4.678  1.2107  1.3261 -0.2348
 9778TIP3   OH250748   5.391   4.227   1.027 -0.1396 -0.6380  0.3917
 9778TIP3    H150749   5.367   4.197   0.939 -1.6946 -1.1888  0.9797
 9778TIP3    H250750   5.450   4.301   1.011  0.0854 -1.0926 -1.0985
 9779TIP3   OH250751   3.818   5.850   3.448 -0.2407 -0.1314  0.8262
 9779TIP3    H150752   3.743   5.901   3.416  0.5093 -0.5365 -1.8144
 9779TIP3    H250753   3.886   5.916   3.466  0.6706 -0.0072 -2.4150
 9780TIP3   OH250754   0.168   4.275  13.744 -0.0990  1.2067  0.4169
 9780TIP3    H150755   0.095   4.258  13.804  0.2238 -0.2234  0.4446
 9780TIP3    H250756   0.190   4.189  13.708  1.1539  1.7119 -0.0909
 9781TIP3   OH250757   1.100   0.792   4.273 -0.2505  0.8209  0.2074
 9781TIP3    H150758   1.126   0.864   4.331  1.1047  1.3728 -1.0130
 9781TIP3    H250759   1.037   0.831   4.213 -0.6943  0.5712  0.5030
 9782TIP3   OH250760   3.902   6.342  12.998 -0.2333 -0.1746 -0.2996
 9782TIP3    H150761   3.849   6.263  13.010 -2.0293  1.1146  0.7003
 9782TIP3    H250762   3.839   6.410  12.973  0.7908  1.6137  1.6678
 9783TIP3   OH250763   5.116   3.774   0.026 -0.0610  0.0568  0.2619
 9783TIP3    H150764   5.108   3.798  -0.066 -0.1501 -1.3421 -0.1162
 9783TIP3    H250765   5.210   3.781   0.045 -0.0367  0.3005  0.0578
 9784TIP3   OH250766   1.352   2.604   1.673 -0.3910  0.3500  0.3243
 9784TIP3    H150767   1.420   2.670   1.662  1.4077 -1.3146  0.8418
 9784TIP3    H250768   1.321   2.586   1.584  3.2014 -2.0994 -0.6726
 9785TIP3   OH250769   2.701   5.172  14.374 -0.0219  0.2376  0.6639
 9785TIP3    H150770   2.725   5.080  14.368  0.1614  0.1609  2.2651
 9785TIP3    H250771   2.684   5.198  14.283  0.8805 -1.0975  0.0840
 9786TIP3   OH250772   6.757   2.638   0.470  0.4759  0.0982 -0.1290
 9786TIP3    H150773   6.663   2.638   0.452  0.7372  0.9144 -1.6631
 9786TIP3    H250774   6.781   2.545   0.471 -0.0644 -0.0876 -1.5186
 9787TIP3   OH250775   2.508   5.683   3.614 -0.6225 -0.6068 -0.6813
 9787TIP3    H150776   2.567   5.695   3.540  0.1202  0.5514  0.0700
 9787TIP3    H250777   2.428   5.647   3.575  0.5203 -2.1619 -1.7221
 9788TIP3   OH250778   6.650   6.081   6.087  0.1748  0.3140 -0.5386
 9788TIP3    H150779   6.593   6.062   6.161  0.5306 -0.8622 -0.5432
 9788TIP3    H250780   6.722   6.019   6.095  0.1332  0.0357 -1.9575
 9789TIP3   OH250781   3.261   3.478  11.581 -0.2287  0.2055  0.0360
 9789TIP3    H150782   3.293   3.495  11.492 -3.1356 -0.8748 -1.3462
 9789TIP3    H250783   3.221   3.560  11.608  2.2571  1.1215  1.2025
 9790TIP3   OH250784   4.155   4.982  13.695  0.6052  0.0369 -0.4596
 9790TIP3    H150785   4.099   5.005  13.769  1.2727 -0.0265  0.0791
 9790TIP3    H250786   4.119   4.899  13.662  0.7405 -0.3220  0.2644
 9791TIP3   OH250787   4.112   4.518   6.519  0.5056 -0.0560  0.1054
 9791TIP3    H150788   4.045   4.564   6.568  0.8556  1.9629 -1.1990
 9791TIP3    H250789   4.088   4.425   6.527 -1.2304  0.4508  1.3654
 9792TIP3   OH250790   4.150   1.494   3.519  0.5895 -0.2504 -0.9987
 9792TIP3    H150791   4.213   1.565   3.531  0.4410 -0.1220 -0.9681
 9792TIP3    H250792   4.204   1.416   3.504  0.7426 -0.0384 -1.5476
 9793TIP3   OH250793   4.151   4.213   5.532 -0.0270  0.0223  0.2287
 9793TIP3    H150794   4.092   4.180   5.600 -0.8265 -0.0753 -0.5010
 9793TIP3    H250795   4.143   4.151   5.461 -0.5255  1.0434 -0.6353
 9794TIP3   OH250796   0.670   6.032  13.942 -0.2460  0.2654  0.2281
 9794TIP3    H150797   0.663   5.982  14.024  1.6606  2.3711  1.8011
 9794TIP3    H250798   0.753   6.004  13.904  0.4194  1.5532  0.6864
 9795TIP3   OH250799   5.125   3.761  11.426  0.1853 -0.1401  0.1171
 9795TIP3    H150800   5.030   3.751  11.430  0.2025 -0.6941 -0.6706
 9795TIP3    H250801   5.159   3.672  11.428  0.5829 -0.0699 -1.6469
 9796TIP3   OH250802   1.492   2.932  16.140 -0.3859 -0.5901 -0.2262
 9796TIP3    H150803   1.418   2.885  16.179  0.4422 -1.7214  0.0271
 9796TIP3    H250804   1.549   2.952  16.214 -0.0215 -0.4940 -0.5350
 9797TIP3   OH250805   1.420   1.093  17.241  0.2964 -0.0013  0.1035
 9797TIP3    H150806   1.361   1.027  17.204 -0.2892  0.9897 -0.7515
 9797TIP3    H250807   1.395   1.098  17.333  0.8688 -1.5188  0.3738
 9798TIP3   OH250808   6.162   2.321  15.657  0.1655 -0.7511  0.0366
 9798TIP3    H150809   6.233   2.385  15.665 -0.7545  0.1335  1.6463
 9798TIP3    H250810   6.134   2.304  15.747 -1.0012 -1.8555 -0.4941
 9799TIP3   OH250811   2.768   5.635  16.479  0.2321  0.4188 -0.1420
 9799TIP3    H150812   2.714   5.604  16.552  1.2779  0.4787  0.6823
 9799TIP3    H250813   2.845   5.577  16.480  0.8928  1.2765 -0.3526
 9800TIP3   OH250814   6.565   2.429   0.709  0.7865 -0.4550  0.1117
 9800TIP3    H150815   6.620   2.354   0.731  2.6838  1.1734  1.2686
 9800TIP3    H250816   6.542   2.467   0.794  1.0400  1.0485 -0.4675
 9801TIP3   OH250817   0.102   2.815   2.078  0.7198 -0.1150  0.1348
 9801TIP3    H150818   0.075   2.839   1.989 -0.6924 -2.1763 -0.0653
 9801TIP3    H250819   0.178   2.758   2.064 -0.6209 -1.9822  0.0465
 9802TIP3   OH250820   3.515   4.802  14.297  0.2289  0.0153  0.3246
 9802TIP3    H150821   3.524   4.712  14.266  0.2845  1.0335 -2.9397
 9802TIP3    H250822   3.602   4.826  14.328  0.6168 -0.5151 -0.3426
 9803TIP3   OH250823   1.920   3.702  11.868  0.2962  0.4978 -0.3253
 9803TIP3    H150824   1.864   3.672  11.940  1.6815 -1.3310  0.0559
 9803TIP3    H250825   1.986   3.758  11.911 -0.1174  1.1339 -0.5052
 9804TIP3   OH250826   1.208   3.007  13.731 -0.1550  0.6091 -0.0111
 9804TIP3    H150827   1.285   3.064  13.721  0.4752 -0.3194 -0.7314
 9804TIP3    H250828   1.150   3.033  13.659  0.5846 -0.3003 -0.9802
 9805TIP3   OH250829   0.162   1.279  13.938  0.0452  0.6273 -0.1078
 9805TIP3    H150830   0.179   1.331  14.017  0.3176  2.0513 -1.0668
 9805TIP3    H250831   0.249   1.255  13.906 -0.0632  0.1333 -0.0464
 9806TIP3   OH250832   6.034   4.870   1.354 -0.5119  0.6904  0.4546
 9806TIP3    H150833   5.991   4.826   1.281 -1.8148  0.6519  1.2083
 9806TIP3    H250834   6.030   4.807   1.426  1.3003  0.4865  0.4208
 9807TIP3   OH250835   3.476   0.290   5.415  0.0703 -0.1612 -0.0973
 9807TIP3    H150836   3.467   0.344   5.336  0.0079  0.7501  0.5275
 9807TIP3    H250837   3.393   0.300   5.460  1.4702  2.6201  2.1372
 9808TIP3   OH250838   2.657   2.151  17.302 -0.2754  0.3609  0.1777
 9808TIP3    H150839   2.584   2.184  17.355 -0.1925 -1.2611  1.3816
 9808TIP3    H250840   2.659   2.057  17.320  0.2624 -0.1414 -2.1549
 9809TIP3   OH250841   4.267   4.937   0.966 -0.1061  0.4271 -0.2768
 9809TIP3    H150842   4.277   5.015   1.020 -0.2581  0.1292  0.1920
 9809TIP3    H250843   4.183   4.950   0.921 -0.8038 -0.0501  0.8163
 9810TIP3   OH250844   0.090   4.316  13.039 -0.1950 -0.9653 -0.1237
 9810TIP3    H150845   0.086   4.334  12.945 -0.1229  0.3659  0.1174
 9810TIP3    H250846   0.175   4.275  13.051  1.0424  1.3928 -0.2627
 9811TIP3   OH250847   0.778   0.403   0.753 -0.0795 -0.0796  0.0119
 9811TIP3    H150848   0.739   0.318   0.735  0.8840 -0.4634 -0.3331
 9811TIP3    H250849   0.704   0.464   0.756 -0.7521 -0.8872  0.0295
 9812TIP3   OH250850   2.853   2.317  14.812  0.4177  0.1224  0.4687
 9812TIP3    H150851   2.805   2.355  14.738  0.2643 -0.3164  0.3387
 9812TIP3    H250852   2.898   2.392  14.852 -0.4919  0.5683  0.6856
 9813TIP3   OH250853   0.009   6.308   5.987 -0.3186 -0.5430  0.3274
 9813TIP3    H150854  -0.068   6.363   5.991  0.2748  0.2248  1.7284
 9813TIP3    H250855  -0.022   6.220   6.009 -1.2651 -0.8481 -1.9121
 9814TIP3   OH250856   3.088   0.792  13.225  0.2083 -0.8148  0.6424
 9814TIP3    H150857   3.163   0.821  13.278  0.1025 -1.0258  0.9074
 9814TIP3    H250858   3.128   0.753  13.147  0.4254 -2.0566  1.3382
 9815TIP3   OH250859   4.746   0.748   0.661  0.5813 -0.0787  0.0222
 9815TIP3    H150860   4.698   0.713   0.736 -3.9721  1.7529 -1.7389
 9815TIP3    H250861   4.756   0.673   0.602  0.7359 -0.6785  0.7905
 9816TIP3   OH250862   4.534   3.965  12.067 -0.0740  0.0570 -0.0326
 9816TIP3    H150863   4.561   3.892  12.122  0.7030  0.4986  0.1893
 9816TIP3    H250864   4.502   4.031  12.128  0.4738  0.4170 -0.1277
 9817TIP3   OH250865   2.630   3.212  17.396  0.8885  0.0952  0.7828
 9817TIP3    H150866   2.672   3.294  17.420  1.3090  0.1503 -0.0938
 9817TIP3    H250867   2.658   3.196  17.306 -1.8083  0.6761 -0.2497
 9818TIP3   OH250868   1.123   0.955  15.850 -0.4403 -0.2462 -0.6774
 9818TIP3    H150869   1.032   0.985  15.852 -0.5631 -0.6510  0.8983
 9818TIP3    H250870   1.123   0.882  15.788 -0.8477  0.7540 -1.8870
 9819TIP3   OH250871   6.747   1.292   3.529 -0.4989 -0.4565 -0.0988
 9819TIP3    H150872   6.692   1.214   3.529 -0.8203 -0.2526  1.6869
 9819TIP3    H250873   6.709   1.350   3.595  0.7145  0.5207 -0.2078
 9820TIP3   OH250874   2.365   1.293  11.078 -0.0038  0.2618  0.3991
 9820TIP3    H150875   2.451   1.325  11.051  0.1221  0.6232  1.2197
 9820TIP3    H250876   2.314   1.291  10.997  0.2781  1.6183  0.1774
 9821TIP3   OH250877   0.873   3.758   1.668 -0.5644 -0.4243  0.3655
 9821TIP3    H150878   0.864   3.851   1.687  0.8862 -0.0523 -0.5539
 9821TIP3    H250879   0.913   3.755   1.581 -1.1001 -1.9242  0.1359
 9822TIP3   OH250880   3.701   4.568   1.223 -0.1766 -0.6460 -0.3568
 9822TIP3    H150881   3.729   4.624   1.295 -2.5363  1.0931 -0.6718
 9822TIP3    H250882   3.696   4.481   1.261 -0.7530  0.1145  1.4327
 9823TIP3   OH250883   2.697   6.622   0.933 -0.2253 -0.3364 -0.4317
 9823TIP3    H150884   2.764   6.638   0.999 -0.5514  2.0479 -0.5770
 9823TIP3    H250885   2.745   6.593   0.855  0.2384 -2.3074  0.5265
 9824TIP3   OH250886   1.689   0.630  16.593  0.2201  0.2095 -0.3190
 9824TIP3    H150887   1.676   0.708  16.646 -0.0433 -0.1327  0.1245
 9824TIP3    H250888   1.778   0.602  16.612  0.0564 -0.0296  0.1020
 9825TIP3   OH250889   2.489   6.182  11.238  0.1701  0.4754  0.5472
 9825TIP3    H150890   2.512   6.272  11.218  1.1670  0.1038 -0.0498
 9825TIP3    H250891   2.473   6.181  11.332 -0.3471  1.3676  0.4782
 9826TIP3   OH250892   5.703   4.762  13.331  0.0632 -0.1902 -0.5400
 9826TIP3    H150893   5.656   4.692  13.376 -0.8647  2.1889  2.5463
 9826TIP3    H250894   5.770   4.790  13.393  3.3608 -1.0342 -3.3993
 9827TIP3   OH250895   0.288   0.316   5.208 -0.0130 -0.2201  0.3510
 9827TIP3    H150896   0.197   0.345   5.213  0.0584  0.2319 -0.5918
 9827TIP3    H250897   0.306   0.275   5.292 -1.4081 -1.2709  0.1716
 9828TIP3   OH250898   6.110   4.487  12.589  0.3829  1.0305 -0.0435
 9828TIP3    H150899   6.043   4.518  12.650 -0.5653  1.2217 -1.1372
 9828TIP3    H250900   6.076   4.404  12.556  0.0303  1.7364 -1.5599
 9829TIP3   OH250901   0.472   4.990   4.284  0.3899 -0.6498 -0.2242
 9829TIP3    H150902   0.475   5.085   4.275  1.1415 -0.6626 -0.1041
 9829TIP3    H250903   0.518   4.957   4.207  0.1038 -0.9236 -0.2827
 9830TIP3   OH250904   2.396   2.765  12.421  0.1720 -0.8247 -0.0564
 9830TIP3    H150905   2.454   2.808  12.358 -1.1334 -0.7217 -1.2582
 9830TIP3    H250906   2.369   2.836  12.480 -0.5969 -0.3076 -0.9757
 9831TIP3   OH250907   5.030   6.148   1.985 -0.0535  0.1468 -0.6064
 9831TIP3    H150908   5.113   6.101   1.994  0.6196  1.4757  0.6440
 9831TIP3    H250909   4.963   6.080   1.983  1.0025 -0.9129 -0.5950
 9832TIP3   OH250910   1.125   2.336  16.772 -0.1590 -0.0666 -0.2222
 9832TIP3    H150911   1.039   2.339  16.731 -0.3746  0.6459  0.2550
 9832TIP3    H250912   1.169   2.261  16.733 -0.6047  0.1995 -1.2551
 9833TIP3   OH250913   3.978   0.809   3.124 -0.6919  0.1869 -0.1347
 9833TIP3    H150914   4.014   0.736   3.176  2.0329  1.0750 -0.6102
 9833TIP3    H250915   3.967   0.772   3.036 -1.0874 -0.1195  0.0369
 9834TIP3   OH250916   3.197   0.501  11.432 -0.3442 -0.0893  0.6804
 9834TIP3    H150917   3.167   0.448  11.358 -0.7531 -0.0592  0.8252
 9834TIP3    H250918   3.219   0.585  11.393  0.8755 -0.5313  0.3476
 9835TIP3   OH250919   1.541   2.839   1.799  0.1021 -0.3573 -0.4322
 9835TIP3    H150920   1.606   2.784   1.756  0.2075 -0.1279 -0.5725
 9835TIP3    H250921   1.589   2.919   1.822  0.4414 -1.0591  1.5025
 9836TIP3   OH250922   5.935   3.923   2.739  0.1675 -0.9236 -0.7306
 9836TIP3    H150923   6.019   3.884   2.763  1.3741  2.1490  0.5909
 9836TIP3    H250924   5.876   3.899   2.810  1.5747  1.5490  1.4224
 9837TIP3   OH250925   4.323   4.039  16.756  0.0216 -0.1357  0.0361
 9837TIP3    H150926   4.380   3.983  16.702 -0.4466 -1.6548  1.0438
 9837TIP3    H250927   4.235   4.018  16.726 -0.2122 -0.6524  1.0493
 9838TIP3   OH250928   2.482   1.271  15.455 -0.3319 -0.9105  0.1797
 9838TIP3    H150929   2.569   1.242  15.482  0.2624 -0.0276 -0.7343
 9838TIP3    H250930   2.495   1.361  15.426 -1.4276 -0.9886 -0.5860
 9839TIP3   OH250931   5.686   2.595  11.578  0.0569 -0.7545 -0.5731
 9839TIP3    H150932   5.763   2.636  11.618 -0.4643 -0.1566 -0.1575
 9839TIP3    H250933   5.616   2.659  11.591 -1.2089 -2.4336  1.5401
 9840TIP3   OH250934   4.442   5.180  16.461  0.1646  0.3627 -0.2149
 9840TIP3    H150935   4.392   5.100  16.443 -1.6673  0.3848  3.7077
 9840TIP3    H250936   4.533   5.151  16.461 -0.3728 -1.5025  0.0506
 9841TIP3   OH250937   2.265   4.095   2.735  0.2826 -0.7243 -0.4866
 9841TIP3    H150938   2.249   4.045   2.655  1.0083 -1.3444 -0.2525
 9841TIP3    H250939   2.351   4.135   2.722  0.2992 -0.6341 -0.1151
 9842TIP3   OH250940   5.963   0.994   0.952 -0.8327  0.2566 -0.2596
 9842TIP3    H150941   5.867   0.995   0.956 -0.9557  0.7523 -2.3869
 9842TIP3    H250942   5.986   1.075   0.907  0.6809  0.7082  1.2389
 9843TIP3   OH250943   0.638   1.370  14.952  0.0189 -0.4582  0.0087
 9843TIP3    H150944   0.693   1.440  14.988 -0.8648  1.5103 -2.1954
 9843TIP3    H250945   0.700   1.301  14.929  1.4116  0.9561 -0.7211
 9844TIP3   OH250946   5.875   5.710  14.328  0.9289 -0.2457  0.2479
 9844TIP3    H150947   5.895   5.734  14.418 -1.0393 -0.9910  0.9418
 9844TIP3    H250948   5.892   5.789  14.277  3.5843 -0.2551  0.9776
 9845TIP3   OH250949   3.158   4.767   0.336  0.1907  0.1667  1.2492
 9845TIP3    H150950   3.095   4.723   0.279  0.4186 -0.5121  1.5023
 9845TIP3    H250951   3.152   4.859   0.313  1.4752 -0.2353 -1.0686
 9846TIP3   OH250952   0.366   5.562  15.780 -0.1463 -0.7559 -0.3161
 9846TIP3    H150953   0.408   5.483  15.745  1.2430 -0.1185 -0.1778
 9846TIP3    H250954   0.421   5.586  15.855 -2.0329 -1.0861  1.2356
 9847TIP3   OH250955   4.445   2.754   5.332  0.2033  0.5377  0.1135
 9847TIP3    H150956   4.369   2.732   5.278 -1.1397  3.4390  0.6451
 9847TIP3    H250957   4.518   2.759   5.270 -0.6875  0.8258 -0.9437
 9848TIP3   OH250958   2.248   6.498   1.613  0.5693 -0.9181  0.3567
 9848TIP3    H150959   2.158   6.521   1.634  1.1266  0.5997  1.2514
 9848TIP3    H250960   2.250   6.402   1.617 -1.0230 -0.9787  0.1586
 9849TIP3   OH250961   6.351   3.303   1.401 -0.3824 -0.1452  0.3925
 9849TIP3    H150962   6.280   3.325   1.461 -0.6743 -0.4780  0.1721
 9849TIP3    H250963   6.396   3.387   1.386 -1.0331  0.1687  0.1382
 9850TIP3   OH250964   0.129   6.329  12.128  0.3510  0.0471 -0.2168
 9850TIP3    H150965   0.097   6.250  12.171 -0.3096  0.4850  0.1130
 9850TIP3    H250966   0.224   6.322  12.130  0.2967 -0.6273  0.0147
 9851TIP3   OH250967   4.724   0.012   4.796 -0.0235 -0.0423  0.2361
 9851TIP3    H150968   4.684  -0.047   4.732  0.6121 -0.8160  0.5444
 9851TIP3    H250969   4.756   0.086   4.743 -1.9509  0.6970 -0.0106
 9852TIP3   OH250970   2.440   4.416  15.803 -0.3259 -0.7754  0.2315
 9852TIP3    H150971   2.389   4.348  15.848 -0.1371 -0.1130  1.4941
 9852TIP3    H250972   2.377   4.462  15.749 -0.5291 -1.7008 -0.3377
 9853TIP3   OH250973   6.050   1.958  17.332 -0.3558 -0.1296 -0.0993
 9853TIP3    H150974   5.957   1.975  17.317  0.0753  0.1618 -2.9731
 9853TIP3    H250975   6.052   1.906  17.412 -3.1190 -1.3229 -0.6949
 9854TIP3   OH250976   6.360   3.325   2.562  0.4158  0.1254  0.2600
 9854TIP3    H150977   6.270   3.357   2.556  0.5380  0.6790  1.1492
 9854TIP3    H250978   6.364   3.253   2.499 -0.0493  1.4448 -1.3785
 9855TIP3   OH250979   3.286   1.389  10.986 -0.3961 -0.5357  0.0765
 9855TIP3    H150980   3.235   1.470  10.980 -0.9371 -0.9475 -1.2830
 9855TIP3    H250981   3.366   1.414  11.033 -0.2815  0.9352 -0.8345
 9856TIP3   OH250982   2.121   4.695   2.456  0.2878  0.7363  0.2970
 9856TIP3    H150983   2.098   4.638   2.529 -1.2326  0.5671 -0.2872
 9856TIP3    H250984   2.211   4.722   2.475  0.0190  0.5088  2.0937
 9857TIP3   OH250985   2.184   6.056   2.632  0.0427  0.3322  0.1198
 9857TIP3    H150986   2.126   6.090   2.700  0.9204 -0.2835  1.2324
 9857TIP3    H250987   2.270   6.094   2.654  0.3797 -0.0612 -0.5045
 9858TIP3   OH250988   0.297   0.343  13.775  0.5162  0.2097 -0.5269
 9858TIP3    H150989   0.333   0.321  13.689  0.8604  0.7272 -0.5193
 9858TIP3    H250990   0.262   0.261  13.808 -2.9915  0.6204 -2.7226
 9859TIP3   OH250991   1.623   6.322   6.258 -0.3818 -0.5435  0.0184
 9859TIP3    H150992   1.646   6.271   6.336 -1.1494 -0.3104  0.4097
 9859TIP3    H250993   1.528   6.332   6.263 -0.4076 -0.2816 -0.8056
 9860TIP3   OH250994   5.268   1.493  11.234 -0.3521 -0.0245  0.7249
 9860TIP3    H150995   5.318   1.565  11.273  0.5060 -0.5764  0.6783
 9860TIP3    H250996   5.223   1.452  11.308  0.9245 -0.7965  1.1257
 9861TIP3   OH250997   1.352   1.859  14.719 -0.1643 -0.3478  0.2627
 9861TIP3    H150998   1.409   1.926  14.756  1.8450 -1.2244 -1.0256
 9861TIP3    H250999   1.358   1.786  14.781 -0.4899 -0.1817  0.4933
 9862TIP3   OH251000   6.179   1.846  12.246  0.0288  0.4601 -0.2577
 9862TIP3    H151001   6.193   1.932  12.205  0.1946  0.7552  0.3939
 9862TIP3    H251002   6.262   1.800  12.235  0.4649  0.9738  0.7344
 9863TIP3   OH251003   1.057   0.719  12.462 -0.1022 -0.2472 -0.2737
 9863TIP3    H151004   1.001   0.671  12.523  0.9447 -0.5978  0.4502
 9863TIP3    H251005   1.107   0.651  12.417  0.0912  0.0830 -0.5671
 9864TIP3   OH251006   2.048   1.737   5.565  0.1542 -0.5105 -0.0865
 9864TIP3    H151007   2.035   1.781   5.481 -0.6460 -1.8303 -0.7013
 9864TIP3    H251008   2.067   1.646   5.541  1.0387 -0.6741  1.1487
 9865TIP3   OH251009   1.808   2.080  17.359 -0.3348  0.4480 -1.1377
 9865TIP3    H151010   1.813   2.162  17.409 -0.9057  0.5543 -1.2449
 9865TIP3    H251011   1.827   2.012  17.424 -1.1167  0.5826 -0.7542
 9866TIP3   OH251012   4.240   6.305  12.402 -0.3733  0.1922  0.2211
 9866TIP3    H151013   4.318   6.360  12.401  0.8484 -1.4543 -0.1005
 9866TIP3    H251014   4.174   6.357  12.448  0.7530  1.8277  0.0657
 9867TIP3   OH251015   5.507   5.517   3.377  0.3652 -0.5314  0.3548
 9867TIP3    H151016   5.592   5.473   3.381 -0.2941 -1.8300  1.0494
 9867TIP3    H251017   5.476   5.500   3.289  1.0035  0.3324 -0.0484
 9868TIP3   OH251018   2.315   1.433  12.592 -0.3418 -0.0573  0.3472
 9868TIP3    H151019   2.244   1.383  12.632  0.6128 -1.8022 -0.0348
 9868TIP3    H251020   2.324   1.397  12.504  0.2888  0.9125 -0.0054
 9869TIP3   OH251021   1.626   0.359   1.713 -0.3690  0.1025  0.3943
 9869TIP3    H151022   1.639   0.314   1.796  0.3148 -0.2317  0.1112
 9869TIP3    H251023   1.710   0.400   1.694 -0.4137 -0.1049 -0.2968
 9870TIP3   OH251024   2.610   2.952   0.390 -0.3672  0.0080 -0.0019
 9870TIP3    H151025   2.610   2.862   0.423 -0.2065  0.0925  0.2290
 9870TIP3    H251026   2.594   3.006   0.467  0.4589  0.2313  0.0211
 9871TIP3   OH251027   2.653   1.479   4.737  0.1717  0.5232 -0.1633
 9871TIP3    H151028   2.688   1.568   4.737  0.4995  0.4102 -1.5051
 9871TIP3    H251029   2.578   1.483   4.796 -0.2828  1.8756 -0.7945
 9872TIP3   OH251030   1.244   6.260  16.752 -0.1597 -0.3619 -0.0173
 9872TIP3    H151031   1.205   6.197  16.812 -0.3171  0.1127  0.3873
 9872TIP3    H251032   1.172   6.288  16.696 -0.6621  1.1857  1.3023
 9873TIP3   OH251033   0.112   5.043   5.164  0.0921 -0.3511  0.2446
 9873TIP3    H151034   0.165   5.092   5.101  0.9610 -1.1729  0.3123
 9873TIP3    H251035   0.120   4.952   5.136 -1.6628 -0.4682 -0.0037
 9874TIP3   OH251036   1.220   3.262   2.670  0.3325 -1.2564 -0.3898
 9874TIP3    H151037   1.294   3.322   2.674  0.4867 -1.4672 -0.0251
 9874TIP3    H251038   1.143   3.318   2.681  0.5635 -1.3569  2.3888
 9875TIP3   OH251039   4.259   3.170   6.805 -0.4547  0.0336  0.2486
 9875TIP3    H151040   4.193   3.188   6.739 -1.2241  0.0929  1.0086
 9875TIP3    H251041   4.250   3.076   6.823  0.9110 -0.3567 -0.9269
 9876TIP3   OH251042   3.842   5.471  11.431  0.2087  0.5182  0.4020
 9876TIP3    H151043   3.789   5.543  11.465  0.2242  0.0748  1.4354
 9876TIP3    H251044   3.927   5.481  11.473  1.0067  1.2622 -1.3067
 9877TIP3   OH251045   5.257   4.372   5.319 -0.2273  0.2621  0.5397
 9877TIP3    H151046   5.280   4.345   5.230 -0.9414 -1.2230  0.7863
 9877TIP3    H251047   5.309   4.452   5.334  0.2664  0.2618 -1.0173
 9878TIP3   OH251048   6.349   5.197   5.862 -0.4215  0.2958  0.0947
 9878TIP3    H151049   6.302   5.114   5.857 -0.9297  0.6441 -1.6226
 9878TIP3    H251050   6.330   5.230   5.950 -3.1231  0.2408 -0.3927
 9879TIP3   OH251051   1.046   2.723   0.969 -0.4933 -0.0105 -0.1853
 9879TIP3    H151052   1.064   2.764   1.054  1.2120 -1.5879  0.2959
 9879TIP3    H251053   1.022   2.795   0.912 -1.1385  1.1660  1.5020
 9880TIP3   OH251054   1.758   1.332  11.107  0.2306 -0.2508  0.3929
 9880TIP3    H151055   1.772   1.266  11.175 -0.5857 -0.3209  0.4970
 9880TIP3    H251056   1.674   1.372  11.130 -0.6647 -1.0983 -1.2597
 9881TIP3   OH251057   5.561   3.156   2.016  0.4332 -0.1497  0.1424
 9881TIP3    H151058   5.619   3.230   1.999 -1.2142  0.8435 -1.3918
 9881TIP3    H251059   5.591   3.122   2.101  3.0934  0.4170 -0.4707
 9882TIP3   OH251060   0.719   2.699  16.249 -0.1198 -0.0976 -0.0157
 9882TIP3    H151061   0.641   2.727  16.297 -1.2121 -1.7407 -0.7590
 9882TIP3    H251062   0.783   2.679  16.317 -0.6883  0.2623  0.6379
 9883TIP3   OH251063   0.999   4.485  15.940 -0.4472 -0.7206  0.1841
 9883TIP3    H151064   0.909   4.497  15.970 -0.3290  0.9564 -0.0345
 9883TIP3    H251065   1.028   4.404  15.981 -1.0563  0.2968  2.7908
 9884TIP3   OH251066   5.422   4.259   5.909  0.1323 -0.2385 -0.3868
 9884TIP3    H151067   5.365   4.335   5.895  0.6413 -0.0231 -1.3526
 9884TIP3    H251068   5.460   4.240   5.823  2.3320  0.2749  0.3878
 9885TIP3   OH251069   4.095   1.296   5.810  0.1249 -0.0495 -0.4213
 9885TIP3    H151070   4.000   1.297   5.799  0.0509  0.5262  0.2388
 9885TIP3    H251071   4.110   1.329   5.898  0.8547 -1.7155  0.1345
 9886TIP3   OH251072   0.799   6.153  13.067  0.5225 -0.0458 -0.0315
 9886TIP3    H151073   0.789   6.090  12.996  1.7512 -0.9192  0.5278
 9886TIP3    H251074   0.839   6.230  13.026  0.9721 -0.4398 -0.3468
 9887TIP3   OH251075   0.265   0.748  12.896 -0.4755 -0.4774 -0.0381
 9887TIP3    H151076   0.200   0.684  12.923 -2.9359  1.7949 -0.1430
 9887TIP3    H251077   0.234   0.779  12.811  0.7169  0.7265 -0.0755
 9888TIP3   OH251078   3.080   1.832   2.603  0.1754  0.2687 -0.5947
 9888TIP3    H151079   3.105   1.755   2.552  1.1758  0.2908 -0.1563
 9888TIP3    H251080   3.045   1.893   2.538  0.0152 -0.2873 -1.0383
 9889TIP3   OH251081   2.629   3.060  13.057  0.0399  0.0355 -0.4406
 9889TIP3    H151082   2.701   3.026  13.004 -0.3713 -0.7430 -0.5234
 9889TIP3    H251083   2.611   2.990  13.120  0.7359  1.0634  0.9669
 9890TIP3   OH251084   4.330   6.736  11.820  0.0856 -0.3861  0.3204
 9890TIP3    H151085   4.294   6.801  11.758  0.9930  0.2048  0.3980
 9890TIP3    H251086   4.409   6.704  11.777 -1.4759 -3.1285 -0.7483
 9891TIP3   OH251087   6.661   4.574  15.238 -0.2400 -0.3566 -0.5702
 9891TIP3    H151088   6.592   4.514  15.266 -0.4639 -0.3242 -1.0544
 9891TIP3    H251089   6.705   4.600  15.320 -0.6207 -0.5944 -0.2900
 9892TIP3   OH251090   3.070   5.408   2.709 -0.3347 -0.2115 -0.0082
 9892TIP3    H151091   3.144   5.431   2.654  0.1170 -0.8004  0.3463
 9892TIP3    H251092   3.044   5.321   2.679 -0.4965 -0.2614  0.2749
 9893TIP3   OH251093   6.735   1.196  12.774 -0.1096  0.3999  0.1129
 9893TIP3    H151094   6.758   1.288  12.783 -1.1319  0.6785 -0.0429
 9893TIP3    H251095   6.697   1.172  12.859  2.4841 -0.5977  1.0869
 9894TIP3   OH251096   0.802   3.454  12.742  0.8115 -0.2945  0.3160
 9894TIP3    H151097   0.846   3.477  12.659 -0.6649 -1.2468 -0.7771
 9894TIP3    H251098   0.784   3.360  12.734 -0.7098 -0.0848  1.0603
 9895TIP3   OH251099   1.282   0.115  17.166  0.6239  0.7004  0.3083
 9895TIP3    H151100   1.366   0.100  17.122  1.1562  0.9359  1.2126
 9895TIP3    H251101   1.243   0.188  17.119  1.1038  0.8320  0.1068
 9896TIP3   OH251102   5.967   2.099  11.439 -0.1155  0.1189  0.0950
 9896TIP3    H151103   5.893   2.053  11.480  0.6526 -1.0371  0.2387
 9896TIP3    H251104   5.966   2.069  11.348 -1.0214  1.6678 -0.4456
 9897TIP3   OH251105   0.966   4.527  17.010 -0.2975  0.1050 -0.3511
 9897TIP3    H151106   1.023   4.482  17.072  0.0334  0.2428 -0.5501
 9897TIP3    H251107   0.955   4.466  16.937  1.4690  0.9209 -1.3773
 9898TIP3   OH251108   6.612   4.807   1.241 -0.0207  0.0858  0.0439
 9898TIP3    H151109   6.700   4.836   1.216 -0.1523 -0.9233 -1.7363
 9898TIP3    H251110   6.588   4.865   1.313  2.5535 -0.3746  1.4082
 9899TIP3   OH251111   4.146   1.253  15.700 -0.2416  0.1656 -0.2126
 9899TIP3    H151112   4.194   1.270  15.781 -0.5610  0.3611 -0.0610
 9899TIP3    H251113   4.054   1.265  15.724 -0.4624 -1.2804 -0.2125
 9900TIP3   OH251114   1.950   3.862  12.996  0.3965 -0.4137  0.3648
 9900TIP3    H151115   2.033   3.900  13.026 -0.7927  1.4190  1.5350
 9900TIP3    H251116   1.922   3.921  12.925 -0.1397 -0.7571  0.2871
 9901TIP3   OH251117   4.807   4.819  11.595 -0.1770 -0.1992  0.1312
 9901TIP3    H151118   4.862   4.796  11.520 -1.9987 -2.3501 -0.6667
 9901TIP3    H251119   4.741   4.878  11.559 -0.3124 -0.2371  0.3162
 9902TIP3   OH251120   4.270   0.577   0.671  0.0356  0.3012 -0.0771
 9902TIP3    H151121   4.317   0.649   0.628 -1.8939  1.3108 -0.6406
 9902TIP3    H251122   4.178   0.598   0.657 -0.5989 -1.5371  1.0510
 9903TIP3   OH251123   0.832   4.209  15.455 -0.7686 -0.2259  0.1492
 9903TIP3    H151124   0.861   4.120  15.434  1.2281  0.3667  0.2207
 9903TIP3    H251125   0.823   4.252  15.370  2.8357  0.8044  0.1092
 9904TIP3   OH251126   5.481   5.325  16.759 -0.4816  0.3602  0.0745
 9904TIP3    H151127   5.476   5.286  16.672 -2.2447 -0.7001  0.5919
 9904TIP3    H251128   5.394   5.311  16.796 -0.2129  2.0783  1.4820
 9905TIP3   OH251129   5.865   6.602   2.064  0.2665  0.0745  1.1189
 9905TIP3    H151130   5.796   6.543   2.037  0.0475  1.0647 -0.6514
 9905TIP3    H251131   5.937   6.545   2.090 -1.0559 -0.9640  2.7034
 9906TIP3   OH251132   4.492   4.469   5.725 -0.0247  0.3347 -0.1792
 9906TIP3    H151133   4.566   4.441   5.779 -1.9413  0.7543  2.9136
 9906TIP3    H251134   4.469   4.391   5.673  0.6102 -0.8255  1.2142
 9907TIP3   OH251135   6.208   0.964   0.296  0.2609 -0.1867  0.0001
 9907TIP3    H151136   6.223   0.898   0.228 -0.1267 -1.4154  1.0545
 9907TIP3    H251137   6.116   0.990   0.286 -0.5179 -2.1104  1.4477
 9908TIP3   OH251138   1.880   1.185   0.156 -0.3849  0.3737  0.3779
 9908TIP3    H151139   1.851   1.168   0.066 -1.9224  0.4330  0.8285
 9908TIP3    H251140   1.808   1.153   0.211  0.8494 -0.3600  1.6403
 9909TIP3   OH251141   1.807   3.392  16.607  0.2852 -0.1054  0.2740
 9909TIP3    H151142   1.742   3.323  16.618 -1.5913  1.5073  0.0554
 9909TIP3    H251143   1.795   3.449  16.683  0.6637  0.8100 -0.3297
 9910TIP3   OH251144   3.269   0.613  14.163 -0.5929 -0.0401 -0.0022
 9910TIP3    H151145   3.328   0.582  14.093  0.6772 -0.0998  1.0603
 9910TIP3    H251146   3.185   0.572  14.142  0.3983 -2.2300 -0.0614
 9911TIP3   OH251147   2.767   1.535  17.116  0.7667 -0.0326 -0.8224
 9911TIP3    H151148   2.761   1.628  17.134 -0.1358 -0.4417  1.3698
 9911TIP3    H251149   2.851   1.508  17.153  0.5125 -0.2621 -0.3940
 9912TIP3   OH251150   4.488   2.722  11.762 -0.2118  0.0695 -0.4425
 9912TIP3    H151151   4.404   2.767  11.758 -0.5790 -0.5870 -0.2196
 9912TIP3    H251152   4.471   2.636  11.724 -0.2938 -1.0220  1.9049
 9913TIP3   OH251153   1.712   5.756   1.664  0.0431 -0.1736  0.3109
 9913TIP3    H151154   1.805   5.742   1.644 -0.3368 -2.1187 -0.3480
 9913TIP3    H251155   1.678   5.806   1.590  0.7487  1.4490  1.0436
 9914TIP3   OH251156   1.304   5.177  14.786 -0.0232  0.4736 -0.5023
 9914TIP3    H151157   1.382   5.146  14.832  0.5171  0.0426 -1.6777
 9914TIP3    H251158   1.264   5.097  14.751  0.1759  0.8872 -1.6998
 9915TIP3   OH251159   4.093   0.769   4.589 -0.2246  0.6965 -0.2912
 9915TIP3    H151160   4.075   0.675   4.588 -0.2758  0.7139 -1.0897
 9915TIP3    H251161   4.065   0.800   4.503 -0.1156  1.4281 -0.0678
 9916TIP3   OH251162   6.245   2.297  15.187 -0.0358 -0.3320  0.1850
 9916TIP3    H151163   6.284   2.287  15.101  0.7319 -1.9265  0.6808
 9916TIP3    H251164   6.292   2.371  15.226  0.5003 -0.4242 -0.2777
 9917TIP3   OH251165   1.962   5.114  13.656 -0.2462  0.1708  0.3862
 9917TIP3    H151166   1.984   5.100  13.749 -0.1700  0.8463  0.4751
 9917TIP3    H251167   2.042   5.152  13.619 -0.0870 -0.6057 -0.0890
 9918TIP3   OH251168   4.466   0.999  13.002  0.2418 -0.8551 -0.0402
 9918TIP3    H151169   4.514   0.987  13.084  1.5237 -0.9761 -0.7953
 9918TIP3    H251170   4.442   1.092  13.003  1.2538 -0.5832 -0.0519
 9919TIP3   OH251171   3.227   3.457  12.229 -0.0875 -0.0579  0.3853
 9919TIP3    H151172   3.253   3.544  12.262  1.1559 -0.4943  0.6298
 9919TIP3    H251173   3.221   3.403  12.307 -1.0437 -0.1611  0.2482
 9920TIP3   OH251174   6.157   2.005  14.020  0.0144  0.4374  0.4846
 9920TIP3    H151175   6.229   1.944  14.034  0.9215  1.6467  1.3063
 9920TIP3    H251176   6.199   2.083  13.981 -0.9976  0.7995  0.0927
 9921TIP3   OH251177   0.258   3.747   4.449 -0.1002 -0.4595 -0.0585
 9921TIP3    H151178   0.265   3.653   4.429  0.0498 -0.6323  0.7679
 9921TIP3    H251179   0.347   3.779   4.441 -0.4953  0.1853 -2.9134
 9922TIP3   OH251180   0.760   3.316   1.251 -0.3047 -0.4042 -0.1725
 9922TIP3    H151181   0.836   3.322   1.192  0.1464 -0.6572  0.3779
 9922TIP3    H251182   0.688   3.355   1.200 -0.0487 -1.0960 -1.1013
 9923TIP3   OH251183   1.278   6.528  12.633 -0.0422 -0.2006 -0.5576
 9923TIP3    H151184   1.341   6.600  12.636 -0.5606  0.2515 -0.1564
 9923TIP3    H251185   1.284   6.494  12.544  0.4318  0.1458 -0.6613
 9924TIP3   OH251186   3.831   0.081   3.114  0.4430 -0.2683 -0.1086
 9924TIP3    H151187   3.882   0.039   3.044  0.7007 -0.4203  0.1699
 9924TIP3    H251188   3.822   0.013   3.181  1.2979  0.2677  0.5693
 9925TIP3   OH251189   5.305   1.097   3.781  0.2581 -0.1734 -0.2734
 9925TIP3    H151190   5.377   1.150   3.815  0.2642 -1.9770  2.9065
 9925TIP3    H251191   5.233   1.159   3.769  1.4591  1.1839 -0.7234
 9926TIP3   OH251192   4.393   5.401   0.243 -0.0061 -0.0533 -0.0783
 9926TIP3    H151193   4.359   5.373   0.158 -1.3939 -1.3236  0.8418
 9926TIP3    H251194   4.488   5.403   0.232 -0.1185 -0.9874 -1.4395
 9927TIP3   OH251195   3.700   6.746  15.824  0.0003  0.2993  0.7725
 9927TIP3    H151196   3.658   6.794  15.753  2.2479 -2.2827 -2.6010
 9927TIP3    H251197   3.791   6.776  15.823  0.7248 -1.7738  0.6145
 9928TIP3   OH251198   3.585   0.481   1.628 -0.3798  0.2410 -0.1755
 9928TIP3    H151199   3.556   0.563   1.668  0.0181  0.3997 -0.2122
 9928TIP3    H251200   3.538   0.413   1.676  0.4165  0.3982  0.8478
 9929TIP3   OH251201   0.617   0.625   6.834  0.3523 -0.0255 -0.0328
 9929TIP3    H151202   0.647   0.699   6.781 -2.0708  0.5978 -0.6690
 9929TIP3    H251203   0.660   0.549   6.796 -0.2754  0.5820 -2.0530
 9930TIP3   OH251204   4.578   1.713  13.557 -0.0284 -0.2578  0.5877
 9930TIP3    H151205   4.632   1.635  13.569  2.5263  0.8388 -2.4553
 9930TIP3    H251206   4.619   1.779  13.612  1.6938  0.4951 -1.4982
 9931TIP3   OH251207   3.884   0.396   5.510 -0.1843 -0.1610 -0.4853
 9931TIP3    H151208   3.871   0.343   5.431 -0.0867 -0.5304 -0.2553
 9931TIP3    H251209   3.944   0.345   5.564  1.4491  1.0680 -1.0797
 9932TIP3   OH251210   3.357   4.149   4.726  0.4905  0.2086 -0.1360
 9932TIP3    H151211   3.276   4.181   4.766 -0.4590 -0.8368 -1.1500
 9932TIP3    H251212   3.415   4.226   4.725 -0.6455  1.1064  0.1874
 9933TIP3   OH251213   4.792   0.491  13.995  0.1235  0.1147 -0.0323
 9933TIP3    H151214   4.697   0.488  13.984  0.0772  0.2439  0.3286
 9933TIP3    H251215   4.809   0.437  14.072  0.3568 -0.0114 -0.1697
 9934TIP3   OH251216   0.412   3.017   4.924  0.2118 -0.1265  0.2652
 9934TIP3    H151217   0.410   2.938   4.978  0.3740 -0.3279 -0.0187
 9934TIP3    H251218   0.409   3.090   4.987  0.7275 -0.3535  0.5586
 9935TIP3   OH251219   1.881   2.577   5.678 -0.0198 -0.5761 -0.3925
 9935TIP3    H151220   1.801   2.526   5.666  0.3915 -1.1527 -0.7552
 9935TIP3    H251221   1.937   2.521   5.733 -0.0015 -0.0261  0.1536
 9936TIP3   OH251222   5.986   1.059   2.544 -0.3714  0.5748  0.1532
 9936TIP3    H151223   6.026   1.064   2.630 -1.0570  0.1346  0.5056
 9936TIP3    H251224   6.040   0.995   2.496  0.0609  0.8874  0.2206
 9937TIP3   OH251225   6.333   2.437   3.645 -0.1160  0.3399 -0.4514
 9937TIP3    H151226   6.341   2.440   3.549  0.8778  1.6336 -0.3659
 9937TIP3    H251227   6.247   2.475   3.663 -1.5327 -2.4181 -0.8990
 9938TIP3   OH251228   0.872   0.596  12.634  0.3206  0.0541  0.1868
 9938TIP3    H151229   0.857   0.510  12.673 -0.0443  0.2779  0.5576
 9938TIP3    H251230   0.839   0.658  12.699  0.9155  0.4925  0.0822
 9939TIP3   OH251231   0.136   2.631   2.422  0.1548  0.1365 -0.0342
 9939TIP3    H151232   0.116   2.606   2.512 -2.7717 -0.3591 -0.7223
 9939TIP3    H251233   0.069   2.695   2.399  0.5081 -0.1323 -2.0146
 9940TIP3   OH251234   1.524   2.812  15.075 -0.4988  0.2985  0.2063
 9940TIP3    H151235   1.518   2.730  15.125 -0.8321  0.4943  0.4900
 9940TIP3    H251236   1.536   2.880  15.142  1.4631  0.3194 -0.1080
 9941TIP3   OH251237   1.146   5.229  13.376 -0.1503  0.6805  0.0865
 9941TIP3    H151238   1.216   5.289  13.401 -0.8773  1.1181  1.1413
 9941TIP3    H251239   1.176   5.191  13.293  1.9166 -0.1056  1.1198
 9942TIP3   OH251240   6.432   3.996   5.467  0.0171 -0.3470  0.3203
 9942TIP3    H151241   6.400   4.017   5.554  0.5618 -0.6563  0.6065
 9942TIP3    H251242   6.360   3.950   5.424 -0.1783 -0.3860  0.6906
 9943TIP3   OH251243   4.866   4.217  13.217  0.2605 -0.0829  0.6991
 9943TIP3    H151244   4.845   4.304  13.182 -0.5868 -0.0435  1.2662
 9943TIP3    H251245   4.946   4.230  13.267  0.1756  0.3608  0.7250
 9944TIP3   OH251246   5.311   5.900   3.464 -0.4507  0.2919 -0.0031
 9944TIP3    H151247   5.313   5.848   3.383 -3.2670  0.0361 -0.0194
 9944TIP3    H251248   5.268   5.981   3.439  1.0378  1.3394  0.7238
 9945TIP3   OH251249   2.773   5.765  15.302  0.4897  0.4976 -0.3918
 9945TIP3    H151250   2.729   5.828  15.360  1.5602 -0.2339  1.2856
 9945TIP3    H251251   2.814   5.818  15.235  3.0653  1.8995  2.0845
 9946TIP3   OH251252   1.181   2.112  12.658  0.0067 -0.4360 -0.7410
 9946TIP3    H151253   1.227   2.190  12.625  1.0508 -0.3078  0.9048
 9946TIP3    H251254   1.251   2.047  12.667 -0.7720 -1.4147 -1.5849
 9947TIP3   OH251255   5.730   4.166  11.677  0.0402  0.4204  0.4334
 9947TIP3    H151256   5.780   4.244  11.701  0.3095 -0.3531  2.5184
 9947TIP3    H251257   5.776   4.131  11.600  1.5423  0.8067  1.1260
 9948TIP3   OH251258   4.808   2.841   4.107  0.2548 -0.6414  0.0501
 9948TIP3    H151259   4.902   2.845   4.093  0.5884 -1.2977  1.8861
 9948TIP3    H251260   4.788   2.748   4.114 -0.5503 -0.5100 -0.2989
 9949TIP3   OH251261   2.516   3.934  14.332 -0.0316 -0.0247 -0.2282
 9949TIP3    H151262   2.538   3.936  14.425  1.3636  0.4868 -0.5384
 9949TIP3    H251263   2.581   3.877  14.292  0.3057  0.9244 -1.0918
 9950TIP3   OH251264   2.105   4.849   3.873 -1.0047  0.8636  0.1084
 9950TIP3    H151265   2.057   4.918   3.918 -2.3887  1.8217 -2.6113
 9950TIP3    H251266   2.054   4.831   3.794  1.5573 -0.2334 -1.4419
 9951TIP3   OH251267   1.691   5.746  12.900  0.1951 -0.0665  0.0397
 9951TIP3    H151268   1.626   5.753  12.831 -0.4901  1.6283  0.7925
 9951TIP3    H251269   1.768   5.711  12.857 -1.3071 -2.5609 -0.7832
 9952TIP3   OH251270   3.747   1.685   3.080 -0.0395 -0.0855  0.9636
 9952TIP3    H151271   3.810   1.695   3.009  0.0084  2.4343  1.2891
 9952TIP3    H251272   3.679   1.627   3.045  0.3043  0.5915 -0.8902
 9953TIP3   OH251273   0.127   5.062   2.023  0.0070 -0.0824  0.3721
 9953TIP3    H151274   0.219   5.085   2.035 -0.0876  0.4072  0.1820
 9953TIP3    H251275   0.128   4.969   2.002  0.2526 -0.7799  3.1186
 9954TIP3   OH251276   1.609   2.777  12.813 -0.3927 -0.3815 -0.0393
 9954TIP3    H151277   1.532   2.809  12.861  0.0542 -0.8656  1.0295
 9954TIP3    H251278   1.578   2.764  12.724 -1.2562  0.5281  0.1123
 9955TIP3   OH251279   6.705   6.342  11.684 -0.0227  0.2137 -0.1649
 9955TIP3    H151280   6.647   6.327  11.758  0.3556 -0.0436  0.0807
 9955TIP3    H251281   6.672   6.285  11.615  0.2779 -0.3568  0.1586
 9956TIP3   OH251282   5.829   0.588   0.136 -0.2272  0.7518 -0.1717
 9956TIP3    H151283   5.905   0.540   0.169  0.0824  1.1730 -0.2692
 9956TIP3    H251284   5.758   0.523   0.136 -0.7035  1.1435  2.9497
 9957TIP3   OH251285   6.523   2.744   5.538 -0.5516 -0.3196 -0.1901
 9957TIP3    H151286   6.524   2.744   5.634 -1.8929 -0.5274 -0.1542
 9957TIP3    H251287   6.440   2.785   5.515  0.1200  0.4742 -1.2958
 9958TIP3   OH251288   2.714   1.814  13.332 -0.5871  0.6670  0.1761
 9958TIP3    H151289   2.621   1.792  13.341 -0.4304  0.0714  0.3431
 9958TIP3    H251290   2.722   1.899  13.375 -1.1146  0.8791 -0.1246
 9959TIP3   OH251291   0.860   4.310  14.677  0.0371  0.0924 -0.2072
 9959TIP3    H151292   0.873   4.287  14.585 -0.4156 -1.0720  0.0010
 9959TIP3    H251293   0.764   4.309  14.688  0.1110 -0.6180  0.4590
 9960TIP3   OH251294   1.861   2.820   4.653  0.1561 -0.4374  0.2047
 9960TIP3    H151295   1.815   2.900   4.626  0.9532  0.2627  0.8839
 9960TIP3    H251296   1.952   2.847   4.662 -0.0520 -0.5532  3.7168
 9961TIP3   OH251297   6.566   4.697  13.008 -0.4602 -0.2382 -0.1238
 9961TIP3    H151298   6.494   4.668  13.064  0.1748 -0.1346  0.7763
 9961TIP3    H251299   6.645   4.674  13.057  0.1514 -1.0999 -1.4656
 9962TIP3   OH251300   6.699   5.762  14.779 -0.3264  0.2625  0.3754
 9962TIP3    H151301   6.766   5.828  14.760  0.2516 -0.1782  0.8298
 9962TIP3    H251302   6.628   5.811  14.821 -1.9021  1.3780 -3.2007
 9963TIP3   OH251303   2.876   3.951  16.425  0.1691  0.0932  0.9587
 9963TIP3    H151304   2.870   4.038  16.466  0.7864  1.7133 -2.0855
 9963TIP3    H251305   2.788   3.914  16.433 -0.8187  2.1112  0.1360
 9964TIP3   OH251306   1.821   0.081   0.935 -0.1694 -0.8794 -0.7352
 9964TIP3    H151307   1.804  -0.010   0.961 -0.6397 -0.4502  0.5335
 9964TIP3    H251308   1.821   0.130   1.018 -0.6696  0.3911 -1.4616
 9965TIP3   OH251309   3.774   6.580  13.290  0.7121  0.5281 -0.4437
 9965TIP3    H151310   3.729   6.633  13.355 -1.1504 -3.1418  1.5523
 9965TIP3    H251311   3.709   6.565  13.221  0.3580 -1.0738  0.2097
 9966TIP3   OH251312   1.068   0.453   3.428  0.1363 -0.2202  0.3555
 9966TIP3    H151313   1.065   0.369   3.475  1.3892 -0.3200  0.3023
 9966TIP3    H251314   1.076   0.429   3.336 -1.4546 -0.0242  0.1547
 9967TIP3   OH251315   2.061   4.924   6.754  0.0850  0.4491  0.1090
 9967TIP3    H151316   2.117   4.847   6.765 -0.5724  0.2133  2.2866
 9967TIP3    H251317   2.084   4.982   6.827  0.8588  2.5816 -1.7033
 9968TIP3   OH251318   6.390   5.871  15.959 -0.4045 -0.1760  0.3513
 9968TIP3    H151319   6.482   5.867  15.931 -0.3069 -1.3376  0.7808
 9968TIP3    H251320   6.393   5.861  16.054 -1.0453 -1.8412  0.2286
 9969TIP3   OH251321   6.749   6.684   5.318  0.4309 -0.3082  0.2578
 9969TIP3    H151322   6.714   6.772   5.302  1.1150  0.0490  0.6682
 9969TIP3    H251323   6.686   6.625   5.277  0.6854  0.4354 -1.2655
 9970TIP3   OH251324   5.298   1.020  15.349 -0.0976 -0.5532 -0.5806
 9970TIP3    H151325   5.295   1.097  15.407  2.2125 -0.9808  0.2104
 9970TIP3    H251326   5.276   0.946  15.405  0.8386 -0.8218 -0.5580
 9971TIP3   OH251327   6.059   4.649   1.495  0.0530 -0.0988 -0.2966
 9971TIP3    H151328   5.966   4.654   1.516 -0.0975  0.1765 -1.0216
 9971TIP3    H251329   6.066   4.576   1.434  0.2902 -0.0048 -0.3829
 9972TIP3   OH251330   3.289   1.015   4.005  0.5583 -0.3029 -0.3217
 9972TIP3    H151331   3.252   0.947   4.061 -3.8127  0.4981 -1.8723
 9972TIP3    H251332   3.306   0.972   3.922 -0.7847  0.0788 -0.8284
 9973TIP3   OH251333   0.543   0.187   3.252 -0.1416 -0.0162  0.0318
 9973TIP3    H151334   0.520   0.109   3.303 -3.0778 -0.4084 -1.6884
 9973TIP3    H251335   0.587   0.153   3.174  1.8136  0.3965  0.8821
 9974TIP3   OH251336   2.282   6.332   1.354  0.1110  0.8860 -0.3773
 9974TIP3    H151337   2.193   6.297   1.344  0.3693 -0.4081  1.2132
 9974TIP3    H251338   2.271   6.410   1.408 -0.0146  0.2452  0.5518
 9975TIP3   OH251339   0.665   4.104   1.620 -0.3359  0.0817 -0.3783
 9975TIP3    H151340   0.678   4.154   1.539  0.8379 -0.6735 -0.6732
 9975TIP3    H251341   0.573   4.079   1.617 -0.0832 -0.8210 -2.0172
 9976TIP3   OH251342   0.609   3.370  15.167  0.0135 -0.4228  0.4143
 9976TIP3    H151343   0.667   3.302  15.133  0.8796  0.9614 -1.0366
 9976TIP3    H251344   0.664   3.419  15.229  0.2127  0.4224 -0.3942
 9977TIP3   OH251345   3.259   6.723   1.678 -0.1076  0.3076 -0.0717
 9977TIP3    H151346   3.322   6.706   1.748  1.1794 -1.0993 -1.4935
 9977TIP3    H251347   3.204   6.645   1.677 -0.3339  0.4739 -0.3948
 9978TIP3   OH251348   3.259   4.688  16.322  0.1540 -0.1536 -0.6479
 9978TIP3    H151349   3.194   4.720  16.260 -1.4647 -1.8098  0.0940
 9978TIP3    H251350   3.265   4.756  16.388 -0.8421  0.0310 -0.7317
 9979TIP3   OH251351   3.103   5.617  16.282  0.0323  0.7203 -0.5446
 9979TIP3    H151352   3.188   5.621  16.238 -1.1773  1.3958 -2.9977
 9979TIP3    H251353   3.078   5.709  16.293 -0.4993  0.5222 -0.0570
 9980TIP3   OH251354   6.348   1.718   3.746 -0.3576 -0.1500 -0.1996
 9980TIP3    H151355   6.346   1.788   3.811 -1.2127  0.4480 -0.8664
 9980TIP3    H251356   6.308   1.755   3.668 -2.3095 -1.8364 -0.0994
 9981TIP3   OH251357   3.214   3.757   0.521 -0.8017  0.6554 -0.7796
 9981TIP3    H151358   3.155   3.710   0.579 -0.8457  0.9264 -0.6009
 9981TIP3    H251359   3.228   3.841   0.564 -0.7159  0.8021 -1.0873
 9982TIP3   OH251360   6.470   5.735  15.060  0.4984  0.0601  0.0476
 9982TIP3    H151361   6.395   5.762  15.114 -0.5493  0.0174 -1.3330
 9982TIP3    H251362   6.527   5.687  15.121 -1.4297 -1.4489  0.7844
 9983TIP3   OH251363   4.070   1.711  11.459 -0.3654  0.1788  0.3948
 9983TIP3    H151364   4.153   1.664  11.455 -0.5246 -0.2758  1.9424
 9983TIP3    H251365   4.013   1.665  11.398  1.3868  2.4579 -3.3179
 9984TIP3   OH251366   3.615   3.834   1.886 -0.1311  0.0842  0.2792
 9984TIP3    H151367   3.550   3.764   1.894 -0.6980  0.4194 -1.0664
 9984TIP3    H251368   3.667   3.810   1.809 -1.6589  2.1137 -1.5000
 9985TIP3   OH251369   2.753   6.180  11.054  0.2157 -0.9033 -0.8006
 9985TIP3    H151370   2.694   6.188  11.129  0.2847 -1.4237 -0.6831
 9985TIP3    H251371   2.841   6.187  11.093  0.2260  0.3200 -1.0337
 9986TIP3   OH251372   3.578   0.257   3.526 -0.1593  0.2299 -0.1615
 9986TIP3    H151373   3.655   0.292   3.482  0.5624 -0.3818  0.5887
 9986TIP3    H251374   3.504   0.304   3.487  0.7225  2.1869  0.4243
 9987TIP3   OH251375   2.938   3.716  13.793  0.2879 -0.6012 -0.1456
 9987TIP3    H151376   3.020   3.666  13.793  2.5703  2.7223  1.9244
 9987TIP3    H251377   2.883   3.672  13.858  2.4158 -0.2638  2.0309
 9988TIP3   OH251378   3.600   2.392  14.714  0.2953 -0.2004 -0.1792
 9988TIP3    H151379   3.584   2.334  14.640  1.5558 -0.2036 -0.4745
 9988TIP3    H251380   3.635   2.334  14.782 -0.1376 -0.0760  0.1501
 9989TIP3   OH251381   3.412   4.022  11.846  0.1445  0.3027 -0.1015
 9989TIP3    H151382   3.433   4.004  11.754  0.6240  0.5443 -0.0421
 9989TIP3    H251383   3.497   4.030  11.888 -0.0755 -0.0292  0.4109
 9990TIP3   OH251384   4.393   5.700   1.094 -0.2183  0.4739 -0.3531
 9990TIP3    H151385   4.348   5.705   1.178  1.2856 -0.7625  0.5837
 9990TIP3    H251386   4.452   5.625   1.103 -0.1539  0.1893 -2.5948
 9991TIP3   OH251387   2.337   5.468  14.124 -0.5111 -0.2338  0.8374
 9991TIP3    H151388   2.385   5.402  14.075  2.0186  1.0161  1.4333
 9991TIP3    H251389   2.296   5.523  14.057 -0.1121 -0.6610  0.2367
 9992TIP3   OH251390   1.755   3.234  16.952 -0.0173  0.2941 -0.4257
 9992TIP3    H151391   1.663   3.210  16.966 -0.4259  2.3725  1.0445
 9992TIP3    H251392   1.750   3.325  16.921  1.5334  0.1676 -1.0910
 9993TIP3   OH251393   1.077   3.717   1.990 -0.0189  0.2721 -0.6776
 9993TIP3    H151394   1.151   3.727   1.930  0.7621 -0.5529  0.1214
 9993TIP3    H251395   1.010   3.672   1.939  0.7487 -0.6887 -0.8553
 9994TIP3   OH251396   1.465   3.238   4.199 -0.2567  0.7796  0.6624
 9994TIP3    H151397   1.498   3.154   4.231 -0.3829  0.8592  1.0056
 9994TIP3    H251398   1.523   3.260   4.126 -1.8468 -0.9169 -1.2310
 9995TIP3   OH251399   5.926   5.003   3.032  0.0028 -0.2692 -0.2217
 9995TIP3    H151400   5.842   4.999   2.985 -0.8255  1.2532  1.0144
 9995TIP3    H251401   5.941   4.913   3.062 -1.2844 -0.5514 -0.3502
 9996TIP3   OH251402   5.138   4.822  16.365 -0.0684 -0.1055 -0.3818
 9996TIP3    H151403   5.145   4.901  16.417 -1.3550  0.2978 -0.7744
 9996TIP3    H251404   5.090   4.760  16.420 -1.7594  0.4458 -1.1662
 9997TIP3   OH251405   2.375   2.508   4.229 -0.0905 -0.3166  0.0505
 9997TIP3    H151406   2.463   2.517   4.194 -1.1041 -1.2202 -3.0821
 9997TIP3    H251407   2.362   2.414   4.239 -0.2219 -0.1263  2.0130
 9998TIP3   OH251408   4.842   2.010  13.564 -0.0227  0.1486 -0.0904
 9998TIP3    H151409   4.871   2.089  13.609  0.2602 -0.4281  0.7646
 9998TIP3    H251410   4.769   1.978  13.617  0.3367 -0.5540 -0.0083
 9999TIP3   OH251411   0.534   0.548  14.047 -0.0075 -0.1203  0.2718
 9999TIP3    H151412   0.527   0.461  14.086  1.0956  1.0310  3.3474
 9999TIP3    H251413   0.616   0.547  13.998  0.5988 -0.5044  1.2656
10000TIP3   OH251414   6.452   2.845  16.616 -0.7225  1.1913  0.2233
10000TIP3    H151415   6.364   2.819  16.590 -0.4505  0.2321  0.2386
10000TIP3    H251416   6.438   2.917  16.677 -1.5073  0.9308  0.3627
10001TIP3   OH251417   4.862   6.647   3.244 -0.2170 -0.0831  0.3452
10001TIP3    H151418   4.803   6.710   3.286 -1.6666 -0.9454 -0.3408
10001TIP3    H251419   4.908   6.606   3.317 -0.8384  0.2378  0.9314
10002TIP3   OH251420   4.284   5.367   4.291 -0.3406  0.1002 -0.5189
10002TIP3    H151421   4.263   5.400   4.204  0.0208  3.7383  0.6074
10002TIP3    H251422   4.201   5.364   4.337 -0.1191  1.8717  0.0672
10003TIP3   OH251423   5.163   1.611   1.211 -0.0061  0.1493 -0.2241
10003TIP3    H151424   5.166   1.545   1.142  0.5312  0.6382 -0.6826
10003TIP3    H251425   5.209   1.687   1.173 -0.6766  0.8096  0.2568
10004TIP3   OH251426   2.405   4.728  14.795 -0.0586  0.2469  0.0155
10004TIP3    H151427   2.334   4.789  14.816  0.3847  0.0745  2.2832
10004TIP3    H251428   2.374   4.681  14.718 -1.2086  2.0251 -0.6821
10005TIP3   OH251429   2.125   4.510   1.346  0.1341  0.2742 -0.2211
10005TIP3    H151430   2.111   4.553   1.261 -2.1259  0.6066  0.2498
10005TIP3    H251431   2.040   4.472   1.368  0.1665  1.5578  2.6173
10006TIP3   OH251432   6.745   2.662   0.807 -0.1371 -0.1379 -0.4874
10006TIP3    H151433   6.705   2.641   0.723 -0.9209  0.9405 -0.4079
10006TIP3    H251434   6.839   2.646   0.795 -0.6097 -4.4084 -0.1945
10007TIP3   OH251435   1.377   0.079  14.625  0.2454 -0.1068  0.3583
10007TIP3    H151436   1.402   0.121  14.543 -0.7775  0.7429  0.4547
10007TIP3    H251437   1.305   0.133  14.658  0.7455 -0.3424  1.8979
10008TIP3   OH251438   5.166   3.827  16.249  0.6796  0.4476 -0.2730
10008TIP3    H151439   5.171   3.892  16.180  2.8316  0.6362 -0.0175
10008TIP3    H251440   5.145   3.745  16.204 -2.2289  1.2334 -0.5773
10009TIP3   OH251441   1.858   6.722  17.196 -0.3888  0.2542  0.1062
10009TIP3    H151442   1.829   6.733  17.106  1.7248  0.1725 -0.6456
10009TIP3    H251443   1.864   6.811  17.231  2.0410  0.6038 -0.9984
10010TIP3   OH251444   2.389   3.530   3.281 -0.0694  0.1364 -0.0877
10010TIP3    H151445   2.440   3.509   3.359 -1.6369  0.4550  1.0724
10010TIP3    H251446   2.453   3.570   3.221  1.2371 -0.4156  0.8795
10011TIP3   OH251447   2.144   5.321   6.167 -0.1467  0.1205 -0.3465
10011TIP3    H151448   2.094   5.390   6.212 -0.0963  0.0005 -0.1047
10011TIP3    H251449   2.113   5.240   6.206  0.6589  0.0784  0.2203
10012TIP3   OH251450   1.409   4.537   4.044 -0.6122  0.2883  0.4490
10012TIP3    H151451   1.501   4.554   4.028 -0.4487 -0.3865  0.6508
10012TIP3    H251452   1.407   4.478   4.119 -1.2861  1.5754  1.4882
10013TIP3   OH251453   3.434   5.782  14.301 -0.0501 -0.9773  0.0484
10013TIP3    H151454   3.348   5.778  14.341  0.0602  0.4335  0.4947
10013TIP3    H251455   3.491   5.815  14.371  0.9405 -2.2688 -0.1168
10014TIP3   OH251456   0.768   5.720   2.118 -0.4412  0.6762 -0.2927
10014TIP3    H151457   0.794   5.698   2.028  0.0218  2.3653 -0.6124
10014TIP3    H251458   0.800   5.647   2.171  0.1631  0.1282 -1.3760
10015TIP3   OH251459   3.708   3.370  11.738  0.4806 -0.1118  0.2120
10015TIP3    H151460   3.783   3.394  11.792  0.9366 -1.9708  0.4795
10015TIP3    H251461   3.740   3.376  11.648  0.3669  0.8940  0.2268
10016TIP3   OH251462   5.942   4.226   0.002 -0.4628  0.1833 -0.0478
10016TIP3    H151463   5.944   4.147  -0.052 -1.3265 -1.1720  1.7742
10016TIP3    H251464   5.866   4.275  -0.029  1.5789  1.7709 -2.9983
10017TIP3   OH251465   3.117   1.612  13.374 -0.4331 -0.2455  0.4263
10017TIP3    H151466   3.047   1.620  13.438  0.2594 -1.2895  1.3470
10017TIP3    H251467   3.193   1.653  13.416 -0.0732 -0.5833  0.1167
10018TIP3   OH251468   5.688   1.193   3.511 -0.4099 -0.3335  0.0644
10018TIP3    H151469   5.719   1.226   3.595  0.1913 -0.7129 -0.0049
10018TIP3    H251470   5.628   1.121   3.533 -1.0876  0.2575  0.1910
10019TIP3   OH251471   4.456   0.746   0.563  0.7520  0.0034  0.1355
10019TIP3    H151472   4.513   0.706   0.629  0.7674  0.7160  0.5648
10019TIP3    H251473   4.510   0.751   0.484  0.7236 -0.8868  0.0543
10020TIP3   OH251474   5.953   1.180   4.599  0.2696  0.0582  0.1769
10020TIP3    H151475   6.037   1.134   4.596  0.3075  0.1782 -1.7190
10020TIP3    H251476   5.889   1.113   4.576 -0.2581 -0.1386  2.0184
10021TIP3   OH251477   3.981   5.527   6.461  0.2155 -0.0996  0.2367
10021TIP3    H151478   3.961   5.483   6.544 -0.1672  0.5445  0.4929
10021TIP3    H251479   4.023   5.460   6.408 -1.2262 -1.0530  0.2575
10022TIP3   OH251480   3.062   0.176  13.626 -0.1321  0.3020  0.2145
10022TIP3    H151481   2.994   0.241  13.609 -0.6196 -0.1581  0.3684
10022TIP3    H251482   3.056   0.159  13.720 -0.5585 -0.5557  0.0448
10023TIP3   OH251483   4.434   3.821   5.687  0.1788  0.0847 -0.1475
10023TIP3    H151484   4.452   3.812   5.781 -0.7766 -1.7203 -0.0780
10023TIP3    H251485   4.492   3.757   5.646  0.2461  0.5208 -0.7420
10024TIP3   OH251486   6.528   0.207   1.779 -0.6300  0.1413 -0.0125
10024TIP3    H151487   6.562   0.123   1.747  0.7372  0.7650 -0.2852
10024TIP3    H251488   6.569   0.218   1.865 -1.4917  0.1383  0.4077
10025TIP3   OH251489   2.282   5.820   5.728 -0.1198 -0.2448  0.7191
10025TIP3    H151490   2.336   5.772   5.664  0.5659  0.9438  0.3680
10025TIP3    H251491   2.230   5.880   5.675 -2.9675 -2.3210  0.8970
10026TIP3   OH251492   0.814   4.692  12.522  0.4817 -0.0722 -0.3535
10026TIP3    H151493   0.806   4.667  12.430 -1.6087 -1.0463  0.0330
10026TIP3    H251494   0.725   4.683  12.557  0.4427  3.6530  0.9658
10027TIP3   OH251495   6.668   2.293   2.300 -0.3417  0.4089 -0.1179
10027TIP3    H151496   6.578   2.266   2.322  0.8185 -2.5619  1.4725
10027TIP3    H251497   6.703   2.325   2.383  0.2764  1.0161 -0.6047
10028TIP3   OH251498   4.654   1.681   5.399  0.0030  0.4870  0.0896
10028TIP3    H151499   4.614   1.730   5.471  0.1888  3.7220 -1.8167
10028TIP3    H251500   4.589   1.683   5.329  0.5124 -1.0509 -0.4685
10029TIP3   OH251501   2.478   5.360   4.639 -0.2316  0.1519 -0.9088
10029TIP3    H151502   2.496   5.454   4.636  2.1126 -0.2211 -0.7233
10029TIP3    H251503   2.499   5.329   4.551 -0.5766 -0.2600 -0.8467
10030TIP3   OH251504   3.474   2.111   0.736 -0.2191 -0.1067  0.5280
10030TIP3    H151505   3.499   2.155   0.817 -3.6427  0.9903  1.1773
10030TIP3    H251506   3.444   2.181   0.678 -1.7351 -1.1615 -0.0638
10031TIP3   OH251507   3.695   5.177  12.391  0.5809  0.2779  0.3495
10031TIP3    H151508   3.636   5.233  12.340  1.0562  1.0444  0.6198
10031TIP3    H251509   3.775   5.172  12.338  0.1777 -1.0126 -0.1657
10032TIP3   OH251510   5.602   5.147   2.405 -0.7362 -0.4999 -0.2724
10032TIP3    H151511   5.625   5.214   2.468 -0.3191  0.2126 -1.1542
10032TIP3    H251512   5.686   5.107   2.381 -0.6820  0.3235 -1.5428
10033TIP3   OH251513   4.258   3.792   6.870  0.0455 -0.6440 -0.0012
10033TIP3    H151514   4.173   3.756   6.899 -0.3426  0.1136 -0.1776
10033TIP3    H251515   4.292   3.726   6.809 -0.7498 -0.6436 -0.4665
10034TIP3   OH251516   4.817   5.253   1.320 -0.0486 -0.7360  0.0883
10034TIP3    H151517   4.771   5.326   1.361  1.5892  1.9657 -2.4858
10034TIP3    H251518   4.910   5.275   1.327  0.4721 -2.1377 -1.5170
10035TIP3   OH251519   0.506   0.008   0.489 -0.3361 -0.3369  0.1579
10035TIP3    H151520   0.451  -0.061   0.451  1.3769 -1.5052 -0.3050
10035TIP3    H251521   0.596  -0.019   0.470  0.4671  0.9815  1.7760
10036TIP3   OH251522   2.296   0.054  16.985  0.3990  0.5322  0.0799
10036TIP3    H151523   2.217   0.012  17.018 -0.7283  2.9141  0.5933
10036TIP3    H251524   2.311   0.015  16.899 -1.1872 -0.1361  0.0837
10037TIP3   OH251525   0.124   2.705   3.735  0.3098 -0.2441 -0.0278
10037TIP3    H151526   0.161   2.745   3.814 -2.7907  1.1908  0.8445
10037TIP3    H251527   0.065   2.771   3.699 -2.1799 -2.6347 -0.6975
10038TIP3   OH251528   5.316   2.457   2.254  0.4147  0.1708 -0.0331
10038TIP3    H151529   5.383   2.441   2.187  0.6286  0.5669  0.0859
10038TIP3    H251530   5.317   2.551   2.267  1.0479  0.0147  1.2301
10039TIP3   OH251531   3.423   4.865  12.171  0.0195  0.9666 -0.1167
10039TIP3    H151532   3.506   4.848  12.216 -0.9397 -0.4894  1.2012
10039TIP3    H251533   3.408   4.959  12.183  2.2264  1.6312 -1.7975
10040TIP3   OH251534   3.566   5.646   3.053  0.2500 -0.1763  0.4417
10040TIP3    H151535   3.504   5.658   2.981  1.6680  0.1067 -0.7530
10040TIP3    H251536   3.636   5.709   3.037  0.1367  0.6198  2.6315
10041TIP3   OH251537   5.578   0.827  15.313 -0.2223 -0.6007  0.2496
10041TIP3    H151538   5.582   0.774  15.233  0.0837 -0.1645 -0.0302
10041TIP3    H251539   5.551   0.766  15.381 -0.3584 -1.0067 -0.1643
10042TIP3   OH251540   6.184   1.843  11.776  0.2195  0.5633 -0.1994
10042TIP3    H151541   6.094   1.872  11.758 -0.0704 -1.3690 -2.4756
10042TIP3    H251542   6.173   1.771  11.838 -0.1298 -1.0839 -2.0533
10043TIP3   OH251543   1.581   2.392   1.542  0.3098 -0.5788  0.1883
10043TIP3    H151544   1.585   2.429   1.630 -2.0288 -0.6976  0.3947
10043TIP3    H251545   1.632   2.311   1.548 -1.0205 -1.3437  1.8678
10044TIP3   OH251546   0.174   1.467  16.431  0.1457 -1.0185 -0.4448
10044TIP3    H151547   0.183   1.556  16.398  0.6171 -0.3566  1.3525
10044TIP3    H251548   0.080   1.456  16.446  0.0838 -0.8371 -0.7021
10045TIP3   OH251549   4.273   3.598   2.562  0.1629  0.7838  0.0841
10045TIP3    H151550   4.299   3.511   2.531  0.4951  0.7537  0.4467
10045TIP3    H251551   4.204   3.580   2.626  0.5712  0.7553  0.5225
10046TIP3   OH251552   5.328   0.513   3.314  0.1362 -0.8973  0.2438
10046TIP3    H151553   5.367   0.427   3.301 -0.0533 -0.7672 -1.5216
10046TIP3    H251554   5.379   0.571   3.257  0.5361  0.2696  1.7170
10047TIP3   OH251555   6.009   4.230  14.910 -0.2081  0.8571 -0.5679
10047TIP3    H151556   6.023   4.322  14.929 -0.6528  1.1434 -1.5550
10047TIP3    H251557   6.019   4.186  14.995  0.6886  1.7154 -0.2068
10048TIP3   OH251558   4.441   0.613   2.222 -0.0772  0.1973 -0.8276
10048TIP3    H151559   4.519   0.640   2.269 -1.0267  0.9773  0.3695
10048TIP3    H251560   4.460   0.632   2.130  0.2349  2.7679 -0.3075
10049TIP3   OH251561   1.929   3.006   5.149 -0.0777 -0.2208  0.5822
10049TIP3    H151562   1.918   2.924   5.197 -1.5215  0.5211  1.5989
10049TIP3    H251563   1.926   2.981   5.057 -1.3198 -1.2239  0.8823
10050TIP3   OH251564   3.734   2.263   6.021 -0.0047  0.6149  0.1897
10050TIP3    H151565   3.662   2.223   6.069  0.6998 -2.3081 -0.9701
10050TIP3    H251566   3.781   2.189   5.983  1.9534  2.5700 -1.4364
10051TIP3   OH251567   3.704   3.118  16.365 -0.0116 -0.1070 -0.0530
10051TIP3    H151568   3.784   3.156  16.330 -0.4052  0.5994 -0.2236
10051TIP3    H251569   3.708   3.026  16.342 -0.0890  0.2642 -1.6379
10052TIP3   OH251570   1.839   0.378   5.529 -0.1749 -0.0374 -0.6453
10052TIP3    H151571   1.744   0.381   5.517 -0.0147  2.3746 -2.1862
10052TIP3    H251572   1.851   0.355   5.621 -2.2127 -0.9604 -0.5542
10053TIP3   OH251573   2.165   0.274  14.173 -0.3838 -0.5588  0.0460
10053TIP3    H151574   2.094   0.323  14.214 -0.8756 -0.4020 -0.9684
10053TIP3    H251575   2.123   0.199  14.132  0.3341 -1.6932  1.3156
10054TIP3   OH251576   5.039   1.266   3.696  0.1115  0.3401 -0.0980
10054TIP3    H151577   4.997   1.333   3.641 -4.0916 -0.8857  1.2264
10054TIP3    H251578   5.059   1.195   3.635 -1.1488  0.4203 -0.6557
10055TIP3   OH251579   4.535   1.561  13.842 -0.4356  0.4995 -0.1493
10055TIP3    H151580   4.599   1.542  13.911 -1.9271 -0.6922  0.9863
10055TIP3    H251581   4.585   1.607  13.775  1.5339 -0.1223  0.8112
10056TIP3   OH251582   1.986   2.117  11.628 -0.1628  0.3303  0.2823
10056TIP3    H151583   1.948   2.030  11.641 -1.8947  0.9029 -0.6923
10056TIP3    H251584   2.031   2.111  11.544 -0.5394  0.4524  0.0700
10057TIP3   OH251585   3.409   0.408   5.152  0.5780  0.3632 -0.0757
10057TIP3    H151586   3.463   0.482   5.182 -1.1314  1.6777 -0.1055
10057TIP3    H251587   3.320   0.432   5.177 -0.3111 -0.6734 -2.0605
10058TIP3   OH251588   1.577   1.038   0.726 -0.3975  0.0346 -0.2147
10058TIP3    H151589   1.535   0.951   0.727 -0.4445  0.0592  0.1610
10058TIP3    H251590   1.507   1.098   0.701 -0.7487  0.1531  1.0144
10059TIP3   OH251591   5.920   5.370  13.665  0.4805  0.3245  0.1881
10059TIP3    H151592   5.987   5.388  13.599  0.2227 -1.2285 -0.5262
10059TIP3    H251593   5.843   5.416  13.632  0.8136  0.9895  0.3152
10060TIP3   OH251594   2.112   1.674   3.516 -0.2643  0.2634  0.1456
10060TIP3    H151595   2.093   1.582   3.499  0.2008  0.1466  0.2411
10060TIP3    H251596   2.188   1.672   3.575 -0.6009  0.6949  0.6011
10061TIP3   OH251597   2.153   1.052   1.751 -0.4611 -0.0076 -0.2408
10061TIP3    H151598   2.096   1.128   1.742 -1.2371 -0.5975 -0.4477
10061TIP3    H251599   2.109   0.983   1.700  1.2832 -0.0177 -1.8513
10062TIP3   OH251600   4.548   6.731   0.259 -0.0532  0.3465 -0.0994
10062TIP3    H151601   4.629   6.768   0.225 -0.3179 -0.6282 -1.9190
10062TIP3    H251602   4.537   6.772   0.345  1.6889  1.4441 -0.3513
10063TIP3   OH251603   0.987   4.937  16.106  0.2224 -0.4947  0.2957
10063TIP3    H151604   0.922   4.987  16.056 -0.9482 -0.8574  1.3959
10063TIP3    H251605   1.012   4.995  16.178  3.3245  0.7887 -1.6163
10064TIP3   OH251606   5.625   4.947   1.664  0.1167  0.7148 -0.6826
10064TIP3    H151607   5.562   4.997   1.716  2.4467  0.5235  2.5839
10064TIP3    H251608   5.687   5.012   1.632 -0.3018  0.5989 -1.7646
10065TIP3   OH251609   2.734   4.159   5.994  0.4614  0.5833 -0.1021
10065TIP3    H151610   2.644   4.148   6.026  0.8781 -0.0431  0.9037
10065TIP3    H251611   2.726   4.160   5.899 -0.7699  1.9484 -0.0121
10066TIP3   OH251612   4.194   4.658   3.050  0.4362 -0.1504  0.2897
10066TIP3    H151613   4.188   4.707   3.132 -0.5106 -0.4646  0.4251
10066TIP3    H251614   4.111   4.676   3.005  1.4531  1.0107 -1.1797
10067TIP3   OH251615   4.096   3.792  10.729 -0.6175  0.0288 -0.7314
10067TIP3    H151616   4.123   3.855  10.797  1.2847 -0.6468 -0.8198
10067TIP3    H251617   4.078   3.847  10.652 -1.5808  0.6807 -0.0764
10068TIP3   OH251618   3.931   2.706  17.227  0.4020 -0.2461  0.3210
10068TIP3    H151619   3.947   2.722  17.320 -0.9368  1.8620  0.2581
10068TIP3    H251620   3.846   2.662  17.225 -0.0003  0.5416  0.0520
10069TIP3   OH251621   2.371   5.372   3.458 -0.0415  0.3853  0.5441
10069TIP3    H151622   2.421   5.353   3.538  1.3495  1.5644 -0.0079
10069TIP3    H251623   2.346   5.286   3.424  0.4693 -0.1822  1.5492
10070TIP3   OH251624   4.029   3.206   1.957 -0.0040 -0.0391  0.3595
10070TIP3    H151625   4.120   3.196   1.928 -0.2299  2.8436 -1.7992
10070TIP3    H251626   4.031   3.280   2.018 -0.6935 -1.1463  1.7862
10071TIP3   OH251627   4.106   2.817  14.653  0.7990 -0.3793  0.4017
10071TIP3    H151628   4.127   2.811  14.746  2.8934 -0.6449 -0.0362
10071TIP3    H251629   4.099   2.911  14.636  2.0698 -0.2324  0.5387
10072TIP3   OH251630   0.846   5.436  12.692 -0.6391  0.0308 -0.0168
10072TIP3    H151631   0.844   5.378  12.616 -1.3629 -0.8079  0.6262
10072TIP3    H251632   0.939   5.439  12.718 -0.1602  1.3537 -1.6674
10073TIP3   OH251633   3.111   6.103  10.460 -0.5907  0.1325 -0.3172
10073TIP3    H151634   3.099   6.017  10.420  0.2737 -0.4295  0.6007
10073TIP3    H251635   3.021   6.133  10.478 -0.8934 -0.6052 -0.5606
10074TIP3   OH251636   2.448   4.366  11.924  0.1794 -0.0948 -0.4897
10074TIP3    H151637   2.450   4.437  11.988 -2.3012 -0.2133 -0.1844
10074TIP3    H251638   2.526   4.314  11.943  0.6125  1.0506  1.0436
10075TIP3   OH251639   3.744   4.008   2.052  0.9391 -0.0527  0.0697
10075TIP3    H151640   3.702   3.931   2.016  1.6239 -1.1135  1.4383
10075TIP3    H251641   3.724   4.078   1.990 -1.1589 -0.9316 -0.3069
10076TIP3   OH251642   1.124   3.764  14.365 -0.4771  0.5258 -0.0202
10076TIP3    H151643   1.189   3.706  14.326 -2.7597 -2.6965  0.5715
10076TIP3    H251644   1.078   3.803  14.291 -0.2771 -0.1094 -0.4842
10077TIP3   OH251645   3.827   4.696  14.056  0.1521 -0.1281  0.4785
10077TIP3    H151646   3.814   4.723  13.965  1.8193  0.6506  0.4369
10077TIP3    H251647   3.804   4.603  14.056  0.1949 -0.1629 -0.7531
10078TIP3   OH251648   5.030   5.836  17.184  0.9008  0.0925 -0.0063
10078TIP3    H151649   5.080   5.915  17.162  1.0199  0.3155  1.0337
10078TIP3    H251650   4.950   5.868  17.225  0.4071 -0.3033 -0.6275
10079TIP3   OH251651   0.885   4.913  16.667 -0.3046 -0.1765 -0.1789
10079TIP3    H151652   0.976   4.933  16.687  0.0991  0.4259 -2.3254
10079TIP3    H251653   0.882   4.817  16.661  0.0950 -0.2169  0.2492
10080TIP3   OH251654   6.651   0.719  12.449  0.0049 -0.5262 -0.4070
10080TIP3    H151655   6.718   0.780  12.418  0.6363 -0.7511  0.4778
10080TIP3    H251656   6.693   0.633  12.444 -0.4418 -0.7422 -0.4504
10081TIP3   OH251657   5.015   3.081  16.647  0.2338  0.2451  0.0305
10081TIP3    H151658   4.965   3.095  16.566  0.1107  1.1190  0.2471
10081TIP3    H251659   5.060   3.164  16.662 -0.3704  0.3688  1.2800
10082TIP3   OH251660   3.524   6.474  12.666  0.5881  0.1272  0.0110
10082TIP3    H151661   3.517   6.384  12.698  2.7903  0.4421  1.6131
10082TIP3    H251662   3.618   6.490  12.661  0.2632  1.8864 -1.6841
10083TIP3   OH251663   4.083   6.746  15.411 -0.6028  0.2731  0.4179
10083TIP3    H151664   4.013   6.745  15.476 -0.3091  0.8892  0.7520
10083TIP3    H251665   4.056   6.812  15.347 -1.2225 -0.8019 -0.4799
10084TIP3   OH251666   1.920   5.638  16.395 -0.0681  0.6859 -0.1465
10084TIP3    H151667   1.955   5.555  16.360 -2.4897 -0.3220 -0.3936
10084TIP3    H251668   1.944   5.703  16.329 -1.8934 -0.6476 -2.2770
10085TIP3   OH251669   3.767   6.457   3.096  0.2613 -0.2522  0.0406
10085TIP3    H151670   3.757   6.483   3.188  0.3225 -2.3105  0.6835
10085TIP3    H251671   3.821   6.378   3.100 -0.2730 -0.7363 -1.7224
10086TIP3   OH251672   2.121   3.339   4.130 -0.5993 -0.0299  0.1746
10086TIP3    H151673   2.197   3.383   4.093 -1.1600  0.2486 -0.6733
10086TIP3    H251674   2.158   3.278   4.195  0.6876 -2.3553 -2.5231
10087TIP3   OH251675   6.650   6.474   5.612 -0.6714 -0.4115 -0.0203
10087TIP3    H151676   6.619   6.560   5.640  0.4206  0.3431 -1.0316
10087TIP3    H251677   6.730   6.460   5.662 -1.1622 -1.1319  0.5872
10088TIP3   OH251678   4.722   6.707  15.773  0.8870  0.1163 -0.0737
10088TIP3    H151679   4.693   6.629  15.726  1.8687 -0.6229  0.4925
10088TIP3    H251680   4.793   6.743  15.720  1.5665 -0.3566  0.4826
10089TIP3   OH251681   5.347   6.552  11.938  0.0202  0.1213  0.2786
10089TIP3    H151682   5.258   6.534  11.971  0.2479 -1.8608 -0.0439
10089TIP3    H251683   5.333   6.611  11.863 -1.1256 -0.7803 -0.2603
10090TIP3   OH251684   5.041   2.468  16.550 -0.0153  0.7188  0.4405
10090TIP3    H151685   5.028   2.559  16.574 -0.6171  0.7685 -0.0392
10090TIP3    H251686   4.979   2.420  16.605  0.7315  0.5334  1.1336
10091TIP3   OH251687   6.635   2.993   4.527  0.3296 -0.1676  0.3459
10091TIP3    H151688   6.619   3.023   4.616  1.5509 -1.0223  0.8950
10091TIP3    H251689   6.646   3.073   4.476 -0.8782  0.3385  0.8461
10092TIP3   OH251690   3.721   0.773   1.535 -0.2615  0.6684 -1.0533
10092TIP3    H151691   3.681   0.689   1.514 -1.3242  0.8999 -0.0476
10092TIP3    H251692   3.795   0.751   1.592 -0.3587  0.3960 -1.0329
10093TIP3   OH251693   1.534   4.942   6.393 -0.4992 -0.3265 -0.2090
10093TIP3    H151694   1.472   5.015   6.405 -0.1010  0.4304 -2.2846
10093TIP3    H251695   1.600   4.977   6.333 -0.5239 -2.5112 -1.6325
10094TIP3   OH251696   4.394   1.657   2.163 -0.2196  0.7531  0.3134
10094TIP3    H151697   4.452   1.729   2.189  1.0926  0.4517 -1.6286
10094TIP3    H251698   4.339   1.695   2.094 -0.1005  0.1115 -0.1338
10095TIP3   OH251699   0.670   6.133   4.955 -0.0777  0.2353 -0.3227
10095TIP3    H151700   0.758   6.124   4.992  0.0190  1.5206 -0.1934
10095TIP3    H251701   0.680   6.111   4.863  0.6895  1.7530 -0.6236
10096TIP3   OH251702   4.304   5.032  15.229 -0.4016  0.0934  0.9081
10096TIP3    H151703   4.281   5.006  15.140 -0.6930 -0.7819  1.2293
10096TIP3    H251704   4.248   5.107  15.248 -0.8860 -0.1946  0.6264
10097TIP3   OH251705   4.166   2.430   0.869 -0.0168 -0.1373 -0.1419
10097TIP3    H151706   4.199   2.446   0.958 -0.7370 -0.7023  0.2454
10097TIP3    H251707   4.208   2.348   0.843 -0.4439 -0.4101  0.0154
10098TIP3   OH251708   1.164   2.812  14.205  0.6395 -0.9788  0.0098
10098TIP3    H151709   1.201   2.757  14.136  0.5459  1.2897 -1.9557
10098TIP3    H251710   1.074   2.830  14.177  0.3958 -0.5214  1.0413
10099TIP3   OH251711   3.354   0.985   6.187 -0.1231 -0.2236  0.0482
10099TIP3    H151712   3.402   0.983   6.105 -1.9950 -1.0639 -1.0918
10099TIP3    H251713   3.262   0.997   6.161 -0.5822  1.3744  2.1185
10100TIP3   OH251714   1.325   4.978  12.285  0.5352 -0.1585  0.1122
10100TIP3    H151715   1.256   4.954  12.346  0.5955  0.4545  0.4343
10100TIP3    H251716   1.306   4.928  12.205 -0.4661  0.2531  0.0834
10101TIP3   OH251717   1.531   1.978  11.223 -0.1810  0.4359  0.1515
10101TIP3    H151718   1.603   2.040  11.236  0.0834  0.3502 -0.8077
10101TIP3    H251719   1.517   1.938  11.309 -1.4378  2.9446  1.2022
10102TIP3   OH251720   6.659   1.641   1.920 -0.4657  0.3191 -0.1408
10102TIP3    H151721   6.622   1.712   1.973  0.6471  0.4706  0.4631
10102TIP3    H251722   6.642   1.562   1.971  2.3319  0.6623  1.4961
10103TIP3   OH251723   2.204   6.271  10.906 -0.2801 -0.3616  0.7167
10103TIP3    H151724   2.163   6.294  10.822  0.9749 -1.4732 -0.2447
10103TIP3    H251725   2.131   6.262  10.966 -1.0447  4.2286  0.8168
10104TIP3   OH251726   4.712   3.313  16.928 -0.2088  0.0299 -0.0144
10104TIP3    H151727   4.622   3.330  16.901 -1.2104 -0.0026  2.9320
10104TIP3    H251728   4.704   3.271  17.014  2.6154  1.4073  1.0597
10105TIP3   OH251729   1.968   0.217  17.236 -0.9039  0.1525 -0.8139
10105TIP3    H151730   1.960   0.273  17.314 -1.0148  1.4747 -1.7460
10105TIP3    H251731   2.060   0.221  17.213  0.0498 -3.4188  1.4470
10106TIP3   OH251732   5.061   1.034   3.521 -0.1855  0.0820  0.1622
10106TIP3    H151733   5.148   1.057   3.489  0.1135  0.7159  1.3863
10106TIP3    H251734   5.014   1.004   3.443  0.1963  2.4973 -1.0716
10107TIP3   OH251735   4.927   5.390  15.363 -0.3332  0.1209 -0.1812
10107TIP3    H151736   5.009   5.437  15.352 -0.8326  0.7912 -1.2376
10107TIP3    H251737   4.912   5.348  15.278  0.4282 -2.5701  0.8951
10108TIP3   OH251738   2.989   4.245   1.343 -0.0984  0.3829  0.3322
10108TIP3    H151739   2.901   4.239   1.381  0.1363 -0.9198  0.7170
10108TIP3    H251740   3.047   4.251   1.419  0.3949 -2.4422  0.2706
10109TIP3   OH251741   1.160   3.294  12.751 -0.0563  0.1330  0.4261
10109TIP3    H151742   1.110   3.214  12.761  0.8505 -0.3614  1.1729
10109TIP3    H251743   1.155   3.315  12.657 -1.7749  0.2026  0.5192
10110TIP3   OH251744   3.688   2.648  14.964  0.1425  0.1316  0.3313
10110TIP3    H151745   3.693   2.742  14.981  0.5703  0.4560 -1.4312
10110TIP3    H251746   3.629   2.640  14.889  0.8694 -0.9236 -0.1436
10111TIP3   OH251747   4.919   4.011  16.416 -0.0686 -0.0636 -0.5277
10111TIP3    H151748   5.007   3.983  16.441 -0.3978 -0.1072  0.6072
10111TIP3    H251749   4.867   4.005  16.496  0.1358  5.0840  0.3436
10112TIP3   OH251750   2.430   5.326  11.741  0.4010 -0.1313 -0.1106
10112TIP3    H151751   2.369   5.300  11.810  0.9899 -0.8022  0.1650
10112TIP3    H251752   2.436   5.421  11.749 -0.5978 -0.0523 -0.1390
10113TIP3   OH251753   1.583   5.422  11.514  0.0148 -0.2058  0.3220
10113TIP3    H151754   1.539   5.362  11.574 -0.2420 -1.8297 -1.3756
10113TIP3    H251755   1.557   5.509  11.543 -2.4541 -1.0159  0.7871
10114TIP3   OH251756   6.675   3.789   2.624  0.0109  0.1760 -0.3218
10114TIP3    H151757   6.636   3.843   2.555  0.9645  0.3295 -0.7544
10114TIP3    H251758   6.734   3.730   2.578 -1.8313 -2.0769  0.0191
10115TIP3   OH251759   2.023   1.815   2.412 -0.0443 -0.1271  0.1857
10115TIP3    H151760   2.114   1.785   2.408 -0.2418 -0.7097 -0.1243
10115TIP3    H251761   2.017   1.885   2.346  0.0595 -0.4322 -0.1527
10116TIP3   OH251762   4.454   6.279   1.117  0.0687  0.1541  0.5468
10116TIP3    H151763   4.398   6.217   1.164 -1.2236 -0.6193 -1.8033
10116TIP3    H251764   4.414   6.364   1.133  0.0757  0.0007  1.4023
10117TIP3   OH251765   6.028   5.284   3.873  0.2669 -0.5095  0.3771
10117TIP3    H151766   5.975   5.273   3.794  0.4304 -0.5311  0.2703
10117TIP3    H251767   6.016   5.202   3.921 -2.5792  0.7589  2.0495
10118TIP3   OH251768   2.291   0.279  16.243  0.8434 -0.6637  0.2958
10118TIP3    H151769   2.261   0.312  16.158 -1.7597 -0.9441  1.0385
10118TIP3    H251770   2.314   0.188  16.226 -0.1648 -0.8702 -0.0161
10119TIP3   OH251771   4.964   4.696  13.562  0.0265  0.0838 -0.2424
10119TIP3    H151772   4.891   4.680  13.502 -0.5007  0.8231  0.1750
10119TIP3    H251773   5.010   4.613  13.568 -2.2427 -1.1637  1.4360
10120TIP3   OH251774   2.764   3.438   0.077 -0.4757  0.4019  0.2250
10120TIP3    H151775   2.722   3.471   0.157 -0.9889 -3.4103  1.7152
10120TIP3    H251776   2.858   3.441   0.096 -0.4750  1.2754  0.1509
10121TIP3   OH251777   4.425   5.322  11.270  0.3476 -0.0031 -0.2992
10121TIP3    H151778   4.433   5.378  11.193  2.1003  0.7211  0.3629
10121TIP3    H251779   4.490   5.253  11.258  0.4526 -0.0381  0.3975
10122TIP3   OH251780   6.699   1.069  16.292 -0.5464  0.2940 -0.5282
10122TIP3    H151781   6.752   1.018  16.231  0.4017  1.9498 -1.1564
10122TIP3    H251782   6.754   1.080  16.369 -0.1621  1.5349 -0.9566
10123TIP3   OH251783   5.771   3.135  16.626  0.8055  0.4441  0.0035
10123TIP3    H151784   5.722   3.215  16.606  0.1832  0.4488  1.4701
10123TIP3    H251785   5.705   3.066  16.626  0.4934  0.6265  3.2333
10124TIP3   OH251786   5.375   4.042   2.295 -0.3913 -0.0364 -0.2071
10124TIP3    H151787   5.336   4.116   2.248  0.3921  0.7532  0.3577
10124TIP3    H251788   5.364   4.065   2.388  1.5560  0.3006 -0.0250
10125TIP3   OH251789   5.232   5.267  16.172  0.3139 -0.1982 -0.0588
10125TIP3    H151790   5.159   5.276  16.111  1.7890 -0.2798 -1.9178
10125TIP3    H251791   5.223   5.341  16.232 -0.9399  0.1232 -0.6245
10126TIP3   OH251792   6.334   5.253  17.392  0.1694 -0.3399  0.4768
10126TIP3    H151793   6.280   5.251  17.313 -0.7712  0.3157  1.0908
10126TIP3    H251794   6.298   5.184  17.448 -1.3229  1.3512  1.6896
10127TIP3   OH251795   4.726   1.786  16.458 -0.0106 -0.2556  0.2986
10127TIP3    H151796   4.727   1.821  16.547  0.9867 -1.6013  0.8633
10127TIP3    H251797   4.686   1.699  16.467  0.1625 -0.4312 -0.5420
10128TIP3   OH251798   1.524   6.289   3.649 -0.1976  0.7484 -0.1077
10128TIP3    H151799   1.453   6.225   3.640 -1.0943  1.7218 -0.2174
10128TIP3    H251800   1.547   6.311   3.558  1.0310 -0.3849 -0.0891
10129TIP3   OH251801   0.862   3.309  11.267  0.0027  0.3783  0.6651
10129TIP3    H151802   0.929   3.327  11.333  0.2157 -1.8948  1.1628
10129TIP3    H251803   0.910   3.306  11.184  0.0148  1.5271  0.6106
10130TIP3   OH251804   5.207   2.622   1.226 -0.1098  0.3699 -0.2029
10130TIP3    H151805   5.241   2.533   1.239  0.4919  1.0148  3.7096
10130TIP3    H251806   5.232   2.643   1.136  1.8834 -2.5126 -0.4782
10131TIP3   OH251807   1.538   2.621  11.973  0.3989 -0.4763  0.3791
10131TIP3    H151808   1.592   2.599  11.897  0.9048 -0.6376  0.7746
10131TIP3    H251809   1.548   2.716  11.983 -0.2023 -0.3572 -0.1528
10132TIP3   OH251810   1.263   5.279  12.911  0.2713  0.5083  0.5362
10132TIP3    H151811   1.187   5.272  12.968 -0.6400  1.7367 -0.4449
10132TIP3    H251812   1.334   5.307  12.968 -0.2963  0.4140  1.2941
10133TIP3   OH251813   0.238   3.963  16.169 -0.6455 -0.4596  0.5094
10133TIP3    H151814   0.273   3.887  16.216  0.0975  0.6432  1.8084
10133TIP3    H251815   0.312   4.022  16.161 -0.8086 -0.4993 -1.9191
10134TIP3   OH251816   4.080   2.105   3.585  0.1905 -0.1012 -0.2143
10134TIP3    H151817   4.070   2.192   3.548  1.1626  0.0844 -0.0651
10134TIP3    H251818   4.054   2.046   3.514 -2.1438  0.2985  0.2256
10135TIP3   OH251819   0.403   1.083   3.201 -0.4137 -0.2809 -0.6509
10135TIP3    H151820   0.366   1.167   3.228  0.5835  0.2860 -1.0374
10135TIP3    H251821   0.418   1.092   3.107 -0.7932 -1.0847 -0.7959
10136TIP3   OH251822   4.145   4.274   1.234 -0.0991 -0.4247  0.6034
10136TIP3    H151823   4.109   4.285   1.322  0.9795  3.0746  0.7597
10136TIP3    H251824   4.093   4.332   1.178 -0.3586 -2.1050 -1.0123
10137TIP3   OH251825   2.317   4.413   4.668  0.3560 -0.8689  0.2159
10137TIP3    H151826   2.250   4.465   4.623 -1.3338 -1.8263  1.5096
10137TIP3    H251827   2.365   4.476   4.722  0.2200 -0.2374 -0.3875
10138TIP3   OH251828   3.580   5.314   2.564  0.2147 -0.1863 -0.5083
10138TIP3    H151829   3.622   5.265   2.634 -0.3474 -0.8772 -0.6369
10138TIP3    H251830   3.634   5.392   2.552  1.2123 -0.8484 -0.3936
10139TIP3   OH251831   3.978   2.219  13.599  0.1801  0.2453 -0.2248
10139TIP3    H151832   3.916   2.265  13.542  1.0058  1.2190 -0.3686
10139TIP3    H251833   4.062   2.264  13.586  0.9051 -0.9528  0.0611
10140TIP3   OH251834   5.777   4.431   0.347 -0.0051  0.0359  0.2962
10140TIP3    H151835   5.684   4.447   0.365  0.0068 -0.6365  1.0117
10140TIP3    H251836   5.782   4.337   0.330  0.3860  0.2455 -0.8445
10141TIP3   OH251837   4.947   5.354   4.481  0.0820 -0.7191 -0.2073
10141TIP3    H151838   4.900   5.312   4.553 -1.3780  1.3075  0.1295
10141TIP3    H251839   4.890   5.343   4.405  0.8878 -1.5045 -0.7145
10142TIP3   OH251840   0.114   1.758  12.833 -0.1321  0.7505 -0.3868
10142TIP3    H151841   0.193   1.714  12.801 -0.9117 -1.9787  1.1427
10142TIP3    H251842   0.146   1.821  12.898  0.8719  0.8828 -0.9870
10143TIP3   OH251843   4.562   5.963   1.955  0.7646  0.0729  0.1900
10143TIP3    H151844   4.587   5.871   1.941  0.6120  0.3223 -2.2940
10143TIP3    H251845   4.548   5.970   2.049 -0.0520 -2.6812  0.3774
10144TIP3   OH251846   1.040   0.531  16.402 -0.1550 -0.5028  0.1962
10144TIP3    H151847   0.958   0.578  16.389  0.1503  0.0204  0.1304
10144TIP3    H251848   1.060   0.493  16.317 -0.2477 -0.4979  0.1735
10145TIP3   OH251849   2.408   4.911   0.227  0.4411 -0.0675  0.6379
10145TIP3    H151850   2.398   4.832   0.174  0.5634 -1.2191  2.2616
10145TIP3    H251851   2.502   4.915   0.244  0.3132 -0.1620  1.3976
10146TIP3   OH251852   1.730   1.140  17.005 -0.0391  0.1429  0.1151
10146TIP3    H151853   1.811   1.102  16.971 -0.9919  0.7632 -3.2073
10146TIP3    H251854   1.754   1.229  17.032  0.3909  0.3884 -1.0297
10147TIP3   OH251855   6.429   0.593  14.328  0.2311  0.1830 -0.6434
10147TIP3    H151856   6.456   0.644  14.404 -0.2342 -0.4532 -0.0291
10147TIP3    H251857   6.507   0.588  14.272  0.4230  1.1106 -0.4732
10148TIP3   OH251858   0.805   2.917  16.075  0.3943 -0.2246  0.5230
10148TIP3    H151859   0.745   2.976  16.030 -0.8089 -2.6387 -1.2868
10148TIP3    H251860   0.748   2.855  16.121  1.4823 -1.7250 -0.0720
10149TIP3   OH251861   3.765   4.465   4.296  0.2978 -0.1417 -0.5010
10149TIP3    H151862   3.712   4.418   4.232  2.0970 -1.1265 -1.3459
10149TIP3    H251863   3.838   4.406   4.315  1.6101  1.5166 -0.1214
10150TIP3   OH251864   0.447   4.694   1.151  0.2525  0.1055  0.1797
10150TIP3    H151865   0.439   4.612   1.199  1.5292 -0.1219  0.0384
10150TIP3    H251866   0.377   4.691   1.086  0.8412 -1.3131 -0.4333
10151TIP3   OH251867   4.897   3.595   3.242  0.2894  0.1930  0.2498
10151TIP3    H151868   4.879   3.606   3.335 -1.1030  0.5886 -0.0419
10151TIP3    H251869   4.889   3.500   3.227  1.1339  0.0541  0.6371
10152TIP3   OH251870   1.832   2.152  14.961 -0.0439 -0.4697 -0.0337
10152TIP3    H151871   1.874   2.155  15.047 -1.4519 -1.9512  0.7551
10152TIP3    H251872   1.881   2.086  14.912  0.0640 -0.4152 -0.0011
10153TIP3   OH251873   1.890   4.961  16.322 -0.0896  0.2839  0.1507
10153TIP3    H151874   1.974   4.936  16.284  0.3937  1.5299  0.3453
10153TIP3    H251875   1.874   4.897  16.391  1.0121  0.4137  0.5365
10154TIP3   OH251876   3.543   5.194   0.186 -0.0881  0.2945 -0.5028
10154TIP3    H151877   3.571   5.102   0.190 -1.5815 -0.1831 -0.4729
10154TIP3    H251878   3.617   5.239   0.146  0.7942 -0.8656 -0.2650
10155TIP3   OH251879   2.436   5.086   1.163  0.4833  0.4668  0.4094
10155TIP3    H151880   2.367   5.103   1.099  1.3362  2.4689 -0.0362
10155TIP3    H251881   2.475   5.004   1.135 -0.3321  0.3897 -0.5656
10156TIP3   OH251882   4.236   4.396  13.961  0.4396 -0.4245 -0.3205
10156TIP3    H151883   4.289   4.422  13.886  1.2129 -0.6459  0.1469
10156TIP3    H251884   4.299   4.365  14.026 -0.1195  0.9602  0.9225
10157TIP3   OH251885   5.769   0.575   3.265  0.6056 -0.4538 -0.2714
10157TIP3    H151886   5.684   0.563   3.223  0.1261  1.0291  0.1877
10157TIP3    H251887   5.832   0.567   3.194 -0.0543  0.0835 -0.9456
10158TIP3   OH251888   5.535   4.872   1.053  0.3365  0.3166  0.4642
10158TIP3    H151889   5.555   4.853   1.144 -2.0467 -0.3103  0.9203
10158TIP3    H251890   5.509   4.964   1.053  2.0557  0.8387  0.0522
10159TIP3   OH251891   3.943   5.538   4.134  0.4257  0.2024  0.2542
10159TIP3    H151892   4.002   5.479   4.181 -1.4174 -0.2066  2.2577
10159TIP3    H251893   3.876   5.481   4.097  0.5027  0.7651 -0.7981
10160TIP3   OH251894   0.371   3.571   1.370  0.1076  0.2045 -1.2286
10160TIP3    H151895   0.373   3.631   1.444 -1.6488  1.8231 -2.4096
10160TIP3    H251896   0.454   3.523   1.376  0.1190  0.3909  1.6268
10161TIP3   OH251897   5.288   5.067  15.031 -0.1969 -0.3790  0.4542
10161TIP3    H151898   5.352   5.130  14.999 -0.4134 -0.8717 -1.0286
10161TIP3    H251899   5.262   5.018  14.953 -3.0673  0.4173  0.7957
10162TIP3   OH251900   4.404   4.722  15.103  0.0078  0.4107 -0.2790
10162TIP3    H151901   4.405   4.752  15.194  0.4475 -0.3790 -0.0071
10162TIP3    H251902   4.399   4.802  15.051 -0.8964  0.8471  0.4460
10163TIP3   OH251903   4.444   4.855   2.051  0.1007 -0.1583 -0.3637
10163TIP3    H151904   4.362   4.890   2.085  0.5004  0.4758 -0.0226
10163TIP3    H251905   4.440   4.761   2.069 -2.2688 -0.9232 -3.8323
10164TIP3   OH251906   1.324   5.585  15.425 -0.2856  1.0050 -0.4752
10164TIP3    H151907   1.402   5.572  15.371 -1.2858 -1.7595 -1.4203
10164TIP3    H251908   1.261   5.626  15.366 -0.7259 -0.1849 -0.8556
10165TIP3   OH251909   1.937   3.590  13.041  0.4392 -0.0908 -0.1891
10165TIP3    H151910   1.855   3.636  13.024  0.5990  0.7394  1.1615
10165TIP3    H251911   2.005   3.653  13.014  0.6402 -0.1072  0.2649
10166TIP3   OH251912   6.452   1.579   4.058 -0.1169 -0.1260  0.7398
10166TIP3    H151913   6.497   1.606   4.137  0.1381  1.2949  0.1403
10166TIP3    H251914   6.484   1.639   3.990  0.8921 -2.2852 -0.8065
10167TIP3   OH251915   0.387   6.264  12.189  0.0443 -0.1768  0.6808
10167TIP3    H151916   0.422   6.200  12.126 -0.7853  0.2730 -0.2625
10167TIP3    H251917   0.465   6.300  12.231  0.8742  1.2370 -1.8013
10168TIP3   OH251918   4.527   5.959  14.261  0.4555 -0.1209 -0.0545
10168TIP3    H151919   4.599   5.974  14.200  1.1095  0.1337  0.7750
10168TIP3    H251920   4.504   5.867  14.248 -0.7875  0.3887 -2.1368
10169TIP3   OH251921   5.971   5.750  17.214  0.4055 -0.1053 -0.3377
10169TIP3    H151922   5.934   5.838  17.212  1.6384  0.4385 -2.3646
10169TIP3    H251923   6.047   5.758  17.272 -0.7624 -0.4635  1.3265
10170TIP3   OH251924   0.763   3.789   1.969 -0.0374 -0.2324 -0.3349
10170TIP3    H151925   0.747   3.840   2.048 -0.5414  1.0276 -1.2189
10170TIP3    H251926   0.805   3.850   1.908 -0.7349 -0.8273 -1.4664
10171TIP3   OH251927   5.081   4.296  16.894  0.2557  0.2268  0.0340
10171TIP3    H151928   5.043   4.343  16.968  1.1423  1.6973 -0.3991
10171TIP3    H251929   5.018   4.227  16.874 -0.5069  0.4733  1.4729
10172TIP3   OH251930   3.502   6.489  13.137  0.1632  0.4277 -0.1136
10172TIP3    H151931   3.498   6.510  13.231 -0.6396  0.0716 -0.0565
10172TIP3    H251932   3.415   6.455  13.117  0.0514  1.2938 -1.1857
10173TIP3   OH251933   1.873   0.137   3.113 -0.3104  0.2045  0.2060
10173TIP3    H151934   1.789   0.117   3.072 -0.5219 -1.0129  1.1778
10173TIP3    H251935   1.932   0.068   3.083  0.0948  0.4918  0.3190
10174TIP3   OH251936   3.355   5.219   5.768 -0.2832 -0.0752 -0.5943
10174TIP3    H151937   3.403   5.243   5.848  1.3048 -1.8507 -0.9495
10174TIP3    H251938   3.287   5.286   5.761  2.5324  3.1020 -0.4523
10175TIP3   OH251939   6.489   4.640   1.082  0.1427 -0.3557 -0.4720
10175TIP3    H151940   6.430   4.694   1.029  0.3538 -0.8611 -1.2390
10175TIP3    H251941   6.541   4.702   1.132 -2.2037  0.1058  1.5664
10176TIP3   OH251942   2.924   1.991   1.352 -0.6896  0.4733  0.1391
10176TIP3    H151943   2.991   1.968   1.417  0.6333 -0.4188 -1.4537
10176TIP3    H251944   2.934   1.926   1.283 -1.2469  2.0507 -1.5182
10177TIP3   OH251945   1.938   2.265  16.218  0.0054  0.0065 -0.6986
10177TIP3    H151946   2.011   2.269  16.156  1.7206  0.7051  1.2589
10177TIP3    H251947   1.959   2.192  16.275 -2.2659 -1.5399 -1.6572
10178TIP3   OH251948   4.152   4.104  14.908 -0.0596 -0.2319  0.0179
10178TIP3    H151949   4.196   4.171  14.961 -0.7692  0.5348 -0.3559
10178TIP3    H251950   4.186   4.021  14.943  1.8442  0.3285 -0.4013
10179TIP3   OH251951   4.266   5.250   2.081 -0.0664  0.2665  0.0565
10179TIP3    H151952   4.324   5.326   2.080  0.5821 -0.2180  0.3651
10179TIP3    H251953   4.253   5.229   1.989  2.0628 -0.9655 -0.0234
10180TIP3   OH251954   3.522   3.020  14.734  0.4082  0.1103 -0.3732
10180TIP3    H151955   3.503   2.954  14.667  1.1752 -0.6494  0.1567
10180TIP3    H251956   3.585   3.079  14.692 -0.2677  0.5312 -0.8387
10181TIP3   OH251957   3.657   3.379  13.570 -0.1078 -0.5688 -0.1867
10181TIP3    H151958   3.718   3.314  13.535 -0.4352 -1.4338  0.7677
10181TIP3    H251959   3.698   3.408  13.652  0.2057  0.7191 -0.7870
10182TIP3   OH251960   3.237   0.896   2.191 -0.6106  0.8548 -0.6238
10182TIP3    H151961   3.143   0.907   2.176 -0.8080 -2.4570 -2.8858
10182TIP3    H251962   3.270   0.985   2.205 -3.7264  2.3464 -1.8777
10183TIP3   OH251963   0.855   3.860  14.706 -0.6635 -0.3136  0.1447
10183TIP3    H151964   0.841   3.873  14.612  0.5139  0.0800  0.0076
10183TIP3    H251965   0.945   3.828  14.713 -0.2200  1.0763  1.2420
10184TIP3   OH251966   5.330   3.833  14.499  0.1759 -0.4699 -0.5434
10184TIP3    H151967   5.357   3.801  14.413 -0.1965 -3.3566  0.3403
10184TIP3    H251968   5.413   3.845  14.547  0.3781  1.0665 -1.2153
10185TIP3   OH251969   3.973   2.279  13.874  0.5477  0.7822  0.0503
10185TIP3    H151970   3.961   2.199  13.926  2.1892  0.4025 -0.1020
10185TIP3    H251971   3.940   2.256  13.787  0.3646  0.4977  0.1911
10186TIP3   OH251972   1.817   3.768   5.305 -0.5939 -0.6856 -0.4490
10186TIP3    H151973   1.855   3.854   5.324 -0.0251 -1.0901  0.2817
10186TIP3    H251974   1.890   3.716   5.273 -0.8512 -1.0237 -0.4923
10187TIP3   OH251975   4.086   2.221  13.050  0.1897  0.3423 -0.0863
10187TIP3    H151976   4.175   2.189  13.064  0.8029  2.1941  0.5700
10187TIP3    H251977   4.030   2.157  13.095  1.2221 -0.5178  0.0207
10188TIP3   OH251978   2.569   0.759   0.095 -0.0114  0.1478 -0.0460
10188TIP3    H151979   2.499   0.768   0.030  0.6879  0.7359 -0.7395
10188TIP3    H251980   2.570   0.842   0.141 -0.0899 -0.0368  0.2866
10189TIP3   OH251981   2.984   5.071   6.248 -0.2738 -0.0471 -0.2292
10189TIP3    H151982   2.918   5.010   6.217 -0.0654 -0.1095 -0.5556
10189TIP3    H251983   2.938   5.155   6.256 -0.1199  0.2007 -1.6533
10190TIP3   OH251984   3.424   1.474  12.933  0.1894  0.0055  0.0890
10190TIP3    H151985   3.390   1.530  12.863  1.5595  2.1854  1.0311
10190TIP3    H251986   3.381   1.506  13.013  3.6401  2.4571  1.2211
10191TIP3   OH251987   2.087   6.231   2.839 -0.7161 -0.0382  0.1577
10191TIP3    H151988   2.124   6.228   2.927  2.0834  0.2524 -0.9262
10191TIP3    H251989   2.127   6.307   2.798 -0.6337 -1.1161 -1.9073
10192TIP3   OH251990   1.059   2.750   3.696  0.2481 -0.2608 -0.2700
10192TIP3    H151991   1.127   2.810   3.725  1.0280 -1.3895  0.2947
10192TIP3    H251992   1.014   2.724   3.776 -1.0631  0.6864 -0.6653
10193TIP3   OH251993   2.249   2.069   3.239  0.3803 -0.5660  0.1085
10193TIP3    H151994   2.194   2.111   3.172  0.7987 -0.1707  0.0044
10193TIP3    H251995   2.218   2.105   3.322  0.5095 -0.3126  0.0468
10194TIP3   OH251996   3.671   5.033  15.615  0.0537 -0.0549  0.3003
10194TIP3    H151997   3.723   4.963  15.578 -0.1862 -0.4204  0.6446
10194TIP3    H251998   3.618   4.991  15.683 -1.1543  0.1796 -0.4560
10195TIP3   OH251999   3.799   5.264  13.511 -0.5000  0.3592  0.3694
10195TIP3    H152000   3.884   5.227  13.535 -1.5275 -1.4395  1.5015
10195TIP3    H252001   3.791   5.248  13.417  0.6031  1.0124  0.1534
10196TIP3   OH252002   3.023   2.061  13.643 -0.0556  0.2124  0.0909
10196TIP3    H152003   3.082   2.125  13.684 -1.8275  1.1108  1.3361
10196TIP3    H252004   3.082   2.002  13.596  1.7250  2.2551 -0.4431
10197TIP3   OH252005   6.042   4.773  12.754 -0.6112 -0.3219 -0.1164
10197TIP3    H152006   5.971   4.715  12.725 -0.3753 -0.5749 -0.1876
10197TIP3    H252007   6.090   4.721  12.818 -0.5742 -0.0963  0.0415
10198TIP3   OH252008   5.231   4.581  14.412 -0.1084 -0.1324  0.0104
10198TIP3    H152009   5.314   4.604  14.454  0.1467 -0.6175 -0.2292
10198TIP3    H252010   5.245   4.494  14.375 -0.9418 -0.5081  0.5524
10199TIP3   OH252011   1.377   1.249   0.739 -0.3317 -0.3656 -0.4855
10199TIP3    H152012   1.316   1.323   0.740  0.6308  0.5008  1.7756
10199TIP3    H252013   1.447   1.275   0.799  1.4153 -2.0357 -1.6875
10200TIP3   OH252014   0.957   1.972  15.245  0.4352 -0.0916 -0.3240
10200TIP3    H152015   0.962   1.968  15.150  1.8110 -0.5569 -0.2558
10200TIP3    H252016   0.869   1.940  15.266  0.4576 -0.8941 -1.3900
10201TIP3   OH252017   1.890   1.219   3.076  0.4697  0.2894  0.0842
10201TIP3    H152018   1.892   1.314   3.065 -3.2791  0.5218 -0.0171
10201TIP3    H252019   1.879   1.184   2.987 -0.1909 -0.0749  0.3030
10202TIP3   OH252020   4.060   0.098   0.466  0.2942 -0.3674  0.0859
10202TIP3    H152021   3.999   0.037   0.508 -0.8097 -0.4875 -1.5887
10202TIP3    H252022   4.129   0.042   0.431  0.3839 -0.4271  0.3527
10203TIP3   OH252023   1.579   2.128  12.767 -0.2636 -0.2651 -0.5173
10203TIP3    H152024   1.612   2.217  12.757  1.8730 -0.7576  1.3741
10203TIP3    H252025   1.596   2.087  12.682 -0.9108  1.0001 -1.2766
10204TIP3   OH252026   6.729   0.882   0.199 -0.2670  0.0895  0.6381
10204TIP3    H152027   6.778   0.803   0.178 -0.1719  0.6306 -1.4709
10204TIP3    H252028   6.643   0.852   0.228 -0.2010 -0.8056 -0.0637
10205TIP3   OH252029   1.715   3.454  15.688 -0.6456  0.0020  0.9164
10205TIP3    H152030   1.649   3.406  15.739  0.5290 -0.6617  1.8669
10205TIP3    H252031   1.775   3.386  15.658 -1.1345  0.4239 -1.1335
10206TIP3   OH252032   0.116   2.648  12.434  0.0238  0.7739  0.2272
10206TIP3    H152033   0.037   2.700  12.417 -0.3854  0.2416  0.4728
10206TIP3    H252034   0.089   2.558  12.418  0.5058  0.5607  0.5963
10207TIP3   OH252035   2.287   4.617   4.153 -0.3087 -0.4807  0.1900
10207TIP3    H152036   2.234   4.550   4.197 -3.0072  0.7466 -0.9227
10207TIP3    H252037   2.321   4.574   4.075  0.9765 -1.4996  1.2873
10208TIP3   OH252038   1.875   0.868   2.350 -0.3273  0.2738 -0.1732
10208TIP3    H152039   1.905   0.934   2.287  0.0073 -0.3283 -0.6469
10208TIP3    H252040   1.924   0.789   2.328 -0.1475  0.0727  0.9019
10209TIP3   OH252041   6.143   2.054  16.734 -0.3121  0.0415  0.6534
10209TIP3    H152042   6.092   2.079  16.811 -0.1658 -0.5045  0.9255
10209TIP3    H252043   6.234   2.056  16.763 -0.0325  2.1631 -0.1328
10210TIP3   OH252044   1.140   3.053   0.603 -0.3956 -0.0500 -0.0055
10210TIP3    H152045   1.102   3.061   0.516  1.2752  0.6142 -0.7148
10210TIP3    H252046   1.185   3.136   0.618  0.8117 -0.8075  0.7439
10211TIP3   OH252047   6.678   0.520   6.296  0.1089  0.2824 -0.4445
10211TIP3    H152048   6.669   0.425   6.309  1.9570  0.0342 -0.7443
10211TIP3    H252049   6.638   0.559   6.374 -1.2398 -0.6937 -0.6045
10212TIP3   OH252050   0.677   1.765  17.332 -0.6434  0.0873  0.0809
10212TIP3    H152051   0.710   1.836  17.276  2.1924 -0.9235  0.3583
10212TIP3    H252052   0.699   1.793  17.421  2.2728 -1.8826  0.0883
10213TIP3   OH252053   4.914   3.371  15.153  0.2528  0.1683  0.2074
10213TIP3    H152054   4.946   3.343  15.238 -0.5619  1.2680  0.9082
10213TIP3    H252055   4.883   3.461  15.167  0.0756  0.3646 -1.2392
10214TIP3   OH252056   6.383   4.286   3.017  0.0642 -0.3521 -0.5668
10214TIP3    H152057   6.435   4.351   3.063 -0.6944  1.3614 -2.0111
10214TIP3    H252058   6.445   4.242   2.959  0.7598 -1.6055  1.0653
10215TIP3   OH252059   1.836   1.905  12.060 -0.0003 -0.1894 -0.2478
10215TIP3    H152060   1.749   1.882  12.093 -0.4070  0.2881 -0.9564
10215TIP3    H252061   1.826   1.994  12.026  0.5888 -0.3861 -0.9719
10216TIP3   OH252062   6.220   4.216  15.401 -0.1549 -0.0684 -0.5389
10216TIP3    H152063   6.296   4.266  15.432 -0.4359 -0.1585  0.3172
10216TIP3    H252064   6.254   4.129  15.381  0.1270  0.1407 -0.9985
10217TIP3   OH252065   2.128   2.227   3.063  0.0680 -0.2825 -0.4607
10217TIP3    H152066   2.083   2.253   2.983 -0.3298  0.8907  0.1135
10217TIP3    H252067   2.072   2.259   3.134  1.4643  0.6988  0.2820
10218TIP3   OH252068   2.170   0.108   5.271  0.0437  0.3121  0.2597
10218TIP3    H152069   2.117   0.140   5.197  0.7422 -0.0630 -0.4184
10218TIP3    H252070   2.156   0.173   5.340 -0.2662  0.9250 -0.3621
10219TIP3   OH252071   5.357   1.481   0.310 -0.4469 -0.3711 -0.2001
10219TIP3    H152072   5.310   1.461   0.229 -2.4650  1.3418  0.4579
10219TIP3    H252073   5.449   1.467   0.288 -1.0167 -0.9618 -2.4704
10220TIP3   OH252074   0.320   5.611   5.199 -0.1890  0.3876 -0.3883
10220TIP3    H152075   0.398   5.666   5.196  0.0218  0.1266  0.1846
10220TIP3    H252076   0.331   5.558   5.278  0.7584 -2.1370 -2.0782
10221TIP3   OH252077   2.993   0.394   0.731 -0.2000 -0.1248  0.5595
10221TIP3    H152078   2.906   0.422   0.757  0.6500  1.9737  1.3352
10221TIP3    H252079   3.027   0.466   0.677  0.5376 -1.5317 -0.9498
10222TIP3   OH252080   2.336   3.710   1.822 -0.1556  0.3853  0.2679
10222TIP3    H152081   2.322   3.772   1.751 -0.6547  1.2152  1.0784
10222TIP3    H252082   2.378   3.761   1.891  1.2244 -0.6381  0.2256
10223TIP3   OH252083   2.513   6.582   1.920  0.1540 -0.1452  0.5638
10223TIP3    H152084   2.520   6.498   1.965  0.5721 -0.5990 -0.3111
10223TIP3    H252085   2.515   6.648   1.990 -0.0422 -0.8554  1.2466
10224TIP3   OH252086   5.539   3.060  13.032  0.3891 -0.1294  0.1141
10224TIP3    H152087   5.531   3.154  13.046  2.0570 -0.0929  1.0271
10224TIP3    H252088   5.528   3.022  13.120 -0.1198 -0.7927 -0.2258
10225TIP3   OH252089   4.651   0.750  11.586  0.4837  0.0371 -0.3682
10225TIP3    H152090   4.735   0.740  11.541  1.2614  0.1544  1.0274
10225TIP3    H252091   4.600   0.807  11.528  1.7672  0.8755 -0.7259
10226TIP3   OH252092   0.453   5.079   1.103 -0.4453  0.5984  0.7426
10226TIP3    H152093   0.493   5.015   1.043  2.1815  2.5189  0.2256
10226TIP3    H252094   0.449   5.034   1.187  0.7822 -0.4506  0.2743
10227TIP3   OH252095   2.293   2.733  16.629 -0.2730  0.3204  0.0592
10227TIP3    H152096   2.199   2.733  16.612  0.0947 -0.2608 -2.2470
10227TIP3    H252097   2.320   2.642  16.613  0.7977  0.6293  0.0603
10228TIP3   OH252098   5.207   1.748  14.955 -0.0055  0.3093  0.6598
10228TIP3    H152099   5.231   1.840  14.953 -2.8118  1.1471 -2.1187
10228TIP3    H252100   5.127   1.745  15.007  0.0339 -0.5603  0.6941
10229TIP3   OH252101   2.805   6.467  15.164 -0.5315  0.6533 -0.1740
10229TIP3    H152102   2.783   6.475  15.257  3.5155  0.3035  0.9890
10229TIP3    H252103   2.860   6.544  15.145  1.6456 -1.0533 -1.2217
10230TIP3   OH252104   4.148   6.123   2.413 -0.3971 -0.0022  0.2912
10230TIP3    H152105   4.215   6.187   2.436  0.1411  0.0130 -1.2377
10230TIP3    H252106   4.196   6.049   2.378 -1.0391 -1.1583  1.7494
10231TIP3   OH252107   1.270   0.881  17.180  0.4282  0.9347  0.1932
10231TIP3    H152108   1.320   0.800  17.172  1.1508  1.3422  0.4199
10231TIP3    H252109   1.219   0.870  17.261  0.9374  0.9200  0.5154
10232TIP3   OH252110   6.068   6.542  14.664  0.0131 -0.5346  0.2842
10232TIP3    H152111   6.116   6.529  14.583  0.4345 -0.0986  0.4632
10232TIP3    H252112   5.981   6.570  14.637  0.5403  0.8993  0.0030
10233TIP3   OH252113   4.377   0.849   5.458 -0.3067 -0.0022 -0.0561
10233TIP3    H152114   4.359   0.917   5.523 -3.1760 -0.8062  0.0929
10233TIP3    H252115   4.361   0.891   5.374  2.4216  0.7413 -0.2962
10234TIP3   OH252116   5.589   2.733  14.749  0.0836 -0.7288  0.2910
10234TIP3    H152117   5.543   2.762  14.828 -0.3413 -0.7026  0.0338
10234TIP3    H252118   5.682   2.737  14.773  0.0167  0.3174  0.4474
10235TIP3   OH252119   5.023   6.587   3.444 -0.3960 -0.2451 -0.3747
10235TIP3    H152120   5.010   6.659   3.505  1.5953  0.2555 -0.4777
10235TIP3    H252121   5.102   6.543   3.476 -1.3843 -2.2493 -0.4772
10236TIP3   OH252122   0.566   5.306   0.079 -0.1026 -0.6278  0.0668
10236TIP3    H152123   0.584   5.278  -0.011  0.3571  0.0523 -0.0690
10236TIP3    H252124   0.645   5.353   0.105 -0.2948 -0.6910  0.7763
10237TIP3   OH252125   0.431   1.349  12.340  0.3557 -0.2462  0.4198
10237TIP3    H152126   0.338   1.356  12.320 -0.0189 -1.5014  1.5494
10237TIP3    H252127   0.471   1.425  12.298 -0.5790 -1.6847 -3.5068
10238TIP3   OH252128   2.591   5.667  14.323 -0.0653 -0.3141 -0.1654
10238TIP3    H152129   2.658   5.670  14.391 -0.6689  0.8795  0.4043
10238TIP3    H252130   2.626   5.606  14.258  1.8937  0.7790 -0.2210
10239TIP3   OH252131   5.995   1.880   3.719  0.1517 -0.0395 -0.2576
10239TIP3    H152132   6.049   1.908   3.793 -1.0441  1.5163  0.0798
10239TIP3    H252133   6.057   1.840   3.658  1.3084 -0.4426  1.1284
10240TIP3   OH252134   0.034   4.739   5.115  0.5608 -0.0482 -0.2581
10240TIP3    H152135   0.117   4.698   5.136 -0.2383 -1.4872  0.2204
10240TIP3    H252136  -0.027   4.666   5.102 -0.7585  0.9691 -0.0397
10241TIP3   OH252137   3.435   5.906   2.945  0.0092 -0.2070 -0.1809
10241TIP3    H152138   3.367   5.838   2.953  0.6249 -0.6916  1.4664
10241TIP3    H252139   3.429   5.955   3.027 -1.7580  3.1258 -2.0687
10242TIP3   OH252140   4.885   1.687  13.809  0.4319 -0.2759  0.4262
10242TIP3    H152141   4.876   1.776  13.843  0.8437 -0.4724  1.0688
10242TIP3    H252142   4.968   1.656  13.845  0.4087 -0.8361  0.0083
10243TIP3   OH252143   3.643   3.297  12.297 -0.1585 -0.0475 -0.1289
10243TIP3    H152144   3.634   3.308  12.203 -0.4606  0.0046 -0.0960
10243TIP3    H252145   3.635   3.385  12.333  0.9110  0.0590 -0.1202
10244TIP3   OH252146   6.220   5.970   1.236  0.1157  0.1653  0.6549
10244TIP3    H152147   6.303   5.979   1.190 -0.2815  0.1830 -0.0579
10244TIP3    H252148   6.173   5.901   1.189 -0.2648  0.1349  1.0714
10245TIP3   OH252149   3.637   6.321   1.846  0.7207 -0.3260  0.0131
10245TIP3    H152150   3.594   6.253   1.794  0.9261  0.2133 -0.8779
10245TIP3    H252151   3.714   6.346   1.794 -0.0474  1.5024 -0.3264
10246TIP3   OH252152   5.370   0.227   5.881 -0.1341  0.2609  0.1802
10246TIP3    H152153   5.372   0.310   5.929 -1.4229  0.1448  0.4634
10246TIP3    H252154   5.436   0.173   5.925  0.1901  0.8728  0.4664
10247TIP3   OH252155   1.524   2.131  14.238 -0.3205 -0.0944  0.0151
10247TIP3    H152156   1.594   2.168  14.292 -1.1076 -1.0199  1.7450
10247TIP3    H252157   1.536   2.036  14.243 -1.4813 -0.2620  0.0826
10248TIP3   OH252158   3.864   4.386   5.014 -0.3609 -0.1290 -0.5814
10248TIP3    H152159   3.855   4.463   5.070  2.0826  0.8820 -1.4476
10248TIP3    H252160   3.953   4.356   5.029 -0.7530 -1.8581 -1.4669
10249TIP3   OH252161   5.092   4.319  13.890 -0.3758 -0.8826 -0.6518
10249TIP3    H152162   5.061   4.391  13.835 -1.1497 -0.3131  0.5004
10249TIP3    H252163   5.186   4.313  13.871  0.3462  2.3035  1.2469
10250TIP3   OH252164   1.879   5.200  16.223 -0.1491 -0.2226  0.2972
10250TIP3    H152165   1.788   5.199  16.192  0.2766 -1.3326 -1.0236
10250TIP3    H252166   1.890   5.116  16.267  0.0841  0.1494  0.9597
10251TIP3   OH252167   1.285   0.871  11.847  0.5925  0.6352 -0.2375
10251TIP3    H152168   1.328   0.894  11.929  0.0733 -0.3358  0.3173
10251TIP3    H252169   1.199   0.838  11.873  0.0707  1.1624 -1.2359
10252TIP3   OH252170   4.194   3.513  12.203  0.2158  0.3697 -0.4096
10252TIP3    H152171   4.112   3.492  12.247  0.5523 -0.6014 -0.2161
10252TIP3    H252172   4.214   3.435  12.152  0.9964  0.6170 -0.4976
10253TIP3   OH252173   4.289   1.317  10.439 -0.2614 -0.4985 -0.2011
10253TIP3    H152174   4.269   1.234  10.396 -0.4282 -0.1831 -0.7421
10253TIP3    H252175   4.219   1.328  10.504 -1.1535 -0.0279 -1.2075
10254TIP3   OH252176   0.162   5.432   0.973  0.3901 -0.3790 -0.8652
10254TIP3    H152177   0.219   5.431   0.896 -1.0704 -1.0851 -1.9988
10254TIP3    H252178   0.136   5.524   0.983 -1.0302 -0.5311 -2.5444
10255TIP3   OH252179   1.722   6.211   0.901  0.4496 -0.0306 -0.2599
10255TIP3    H152180   1.683   6.224   0.815  0.2166 -0.1297 -0.1686
10255TIP3    H252181   1.814   6.235   0.889 -0.0986  2.5869  0.1074
10256TIP3   OH252182   6.139   1.935   3.982  0.3712  0.0596 -0.2538
10256TIP3    H152183   6.098   1.951   4.067  1.2877  0.7534  0.0788
10256TIP3    H252184   6.216   1.991   3.982  0.9410 -0.6923 -1.1355
10257TIP3   OH252185   6.612   6.472  15.833 -0.3501 -0.2076  0.4031
10257TIP3    H152186   6.573   6.550  15.872  1.3297  1.4292 -0.9665
10257TIP3    H252187   6.669   6.437  15.902 -0.4970  0.2452  0.7618
10258TIP3   OH252188   5.677   3.142   5.650  0.3017 -0.0620 -0.6162
10258TIP3    H152189   5.700   3.164   5.740  0.1035 -0.3044 -0.5064
10258TIP3    H252190   5.645   3.052   5.654  0.6483 -0.2059 -0.9896
10259TIP3   OH252191   2.591   6.403   3.294 -0.3313  0.1333 -0.4607
10259TIP3    H152192   2.555   6.349   3.364  1.8132  0.8029  1.2924
10259TIP3    H252193   2.571   6.493   3.319 -1.0951  0.3347 -1.6913
10260TIP3   OH252194   1.275   6.067   4.593  0.1098 -0.1765  0.3007
10260TIP3    H152195   1.320   6.149   4.616 -1.8572  0.7470  1.0911
10260TIP3    H252196   1.327   5.999   4.635  0.4593  0.9081  1.7214
10261TIP3   OH252197   6.645   5.203   2.093 -0.1823 -0.0298  0.2881
10261TIP3    H152198   6.655   5.216   2.187  0.0625 -0.5925  0.3441
10261TIP3    H252199   6.712   5.138   2.071 -0.4840 -0.1749 -0.2069
10262TIP3   OH252200   6.040   5.651  12.315 -0.1062  1.1390  0.0646
10262TIP3    H152201   5.952   5.674  12.345  0.0889  0.8632  0.8825
10262TIP3    H252202   6.038   5.665  12.220 -1.1989  0.5924 -0.0089
10263TIP3   OH252203   3.645   0.639  15.165  0.0513  0.4327 -0.3404
10263TIP3    H152204   3.719   0.584  15.191 -0.5049  0.0287  0.4581
10263TIP3    H252205   3.668   0.726  15.195  0.6169  0.5052 -0.9552
10264TIP3   OH252206   0.375   0.311   3.474  0.2212 -0.2245 -0.0914
10264TIP3    H152207   0.402   0.301   3.382 -1.4469 -0.1723 -0.6139
10264TIP3    H252208   0.284   0.281   3.476  0.4167 -0.7791  1.6816
10265TIP3   OH252209   5.361   1.315   6.313 -0.8464 -0.0909  0.2107
10265TIP3    H152210   5.334   1.388   6.369 -0.4849 -1.0397  1.6781
10265TIP3    H252211   5.393   1.356   6.233  1.7062  1.5507  1.9254
10266TIP3   OH252212   3.618   1.373   5.629  0.5690  0.4652 -0.3223
10266TIP3    H152213   3.542   1.430   5.638 -0.1878 -0.2914 -1.5448
10266TIP3    H252214   3.585   1.297   5.580  1.8615 -0.3842  0.0696
10267TIP3   OH252215   3.480   0.936  14.349  0.3846  0.0873  0.3713
10267TIP3    H152216   3.503   0.862  14.406 -0.1450 -0.1321  0.3135
10267TIP3    H252217   3.498   1.014  14.401 -0.7582 -0.1240  1.1106
10268TIP3   OH252218   1.838   1.761  11.844 -0.6689  0.1055  0.3898
10268TIP3    H152219   1.861   1.815  11.920  0.5661  0.1796 -0.0089
10268TIP3    H252220   1.742   1.766  11.838 -0.8219 -0.2041  2.1527
10269TIP3   OH252221   2.223   2.975  13.881 -0.5965 -0.4133 -0.8586
10269TIP3    H152222   2.222   2.973  13.976  0.3973 -1.6703 -0.8499
10269TIP3    H252223   2.180   2.893  13.855 -3.1533  1.0605 -1.5583
10270TIP3   OH252224   4.482   5.087   5.680 -0.2700 -0.5275  0.1454
10270TIP3    H152225   4.483   5.026   5.754 -1.6298 -0.8142 -0.0375
10270TIP3    H252226   4.425   5.159   5.709  1.0372  0.5172  0.2292
10271TIP3   OH252227   3.418   6.408   2.577 -0.3524 -0.2064 -0.0793
10271TIP3    H152228   3.333   6.425   2.618 -0.3566  0.1177 -0.2156
10271TIP3    H252229   3.456   6.495   2.564 -0.0215 -0.3460 -0.0678
10272TIP3   OH252230   2.741   2.311  15.359 -0.3068  0.8939 -0.1658
10272TIP3    H152231   2.681   2.340  15.292  0.9416 -0.8461 -2.1657
10272TIP3    H252232   2.823   2.356  15.340  0.1902  0.0369 -0.1434
10273TIP3   OH252233   4.225   2.450  14.239  0.3241  0.1689 -0.2212
10273TIP3    H152234   4.207   2.448  14.333  2.9244 -0.6766  0.3389
10273TIP3    H252235   4.223   2.359  14.211 -0.8663  0.4383 -1.1456
10274TIP3   OH252236   3.041   3.234   6.552  0.1488 -0.0256  0.5002
10274TIP3    H152237   3.094   3.161   6.584 -1.7123 -1.3834  0.6848
10274TIP3    H252238   3.035   3.220   6.458 -0.8953 -0.6505  0.6371
10275TIP3   OH252239   6.743   4.920   2.284 -0.2358  0.1246 -0.1304
10275TIP3    H152240   6.773   4.840   2.326 -2.2625 -0.0554  1.0957
10275TIP3    H252241   6.814   4.982   2.297  0.3128 -0.7400  1.1623
10276TIP3   OH252242   5.705   4.465   0.806 -0.1212  0.3613  0.1599
10276TIP3    H152243   5.665   4.460   0.892  1.1934 -0.4094  0.7561
10276TIP3    H252244   5.681   4.552   0.773 -1.8073  0.1247  0.6883
10277TIP3   OH252245   0.583   4.313  16.796 -0.2304 -0.2443 -0.3163
10277TIP3    H152246   0.600   4.223  16.769  0.9303 -0.0623 -0.2676
10277TIP3    H252247   0.549   4.356  16.718  0.9109 -0.2940 -0.8542
10278TIP3   OH252248   1.830   6.379  15.258  0.1775  0.5120  0.2288
10278TIP3    H152249   1.890   6.452  15.271  0.1755  0.4592  0.5517
10278TIP3    H252250   1.860   6.337  15.177  0.4612  0.5959  0.2903
10279TIP3   OH252251   1.266   1.865  12.998 -0.6303 -0.1474  0.6591
10279TIP3    H152252   1.177   1.901  13.005  0.3631  2.2580  2.0068
10279TIP3    H252253   1.318   1.938  12.964  0.6162 -1.9785 -1.5980
10280TIP3   OH252254   2.524   0.260  10.646  0.2393  0.2023 -0.1462
10280TIP3    H152255   2.599   0.281  10.589  0.5500 -1.1985 -0.3061
10280TIP3    H252256   2.560   0.199  10.711 -1.0382 -1.7200 -1.1385
10281TIP3   OH252257   0.928   3.979  13.873 -0.0373 -0.0727  0.0821
10281TIP3    H152258   0.993   4.041  13.842  1.7466 -1.7828  0.2097
10281TIP3    H252259   0.870   3.965  13.799  0.1746  0.9201 -0.2762
10282TIP3   OH252260   4.216   4.995   5.054  0.0665  0.5271  0.1272
10282TIP3    H152261   4.129   5.030   5.033 -0.8208 -0.5756  1.6780
10282TIP3    H252262   4.230   5.021   5.145 -0.4285 -2.5208  1.2042
10283TIP3   OH252263   1.127   1.364  11.644 -0.1261  0.4048  0.1302
10283TIP3    H152264   1.190   1.386  11.576 -0.1996 -1.7513 -0.7004
10283TIP3    H252265   1.063   1.307  11.601 -1.3944  0.7146  1.4980
10284TIP3   OH252266   3.674   4.019   5.629  0.2107 -0.6640 -0.5579
10284TIP3    H152267   3.664   4.012   5.724  0.6655 -1.4563 -0.5641
10284TIP3    H252268   3.727   4.098   5.616 -0.3100 -0.2439 -0.1877
10285TIP3   OH252269   5.899   2.138  11.975 -0.0396  0.1677 -0.4805
10285TIP3    H152270   5.856   2.213  12.016  1.2997  0.6622  0.0826
10285TIP3    H252271   5.895   2.069  12.041  0.4390  0.3621 -0.2463
10286TIP3   OH252272   1.548   5.239   4.874  0.0443  0.0762  0.1422
10286TIP3    H152273   1.612   5.265   4.940  0.1792  0.2592 -0.0591
10286TIP3    H252274   1.478   5.196   4.923  0.0011  0.4830  0.4389
10287TIP3   OH252275   0.006   0.492  11.843  0.9559  0.5352 -0.2432
10287TIP3    H152276   0.001   0.397  11.838 -0.6727  0.5760 -0.0361
10287TIP3    H252277   0.098   0.511  11.857  1.5225 -0.9296 -1.6832
10288TIP3   OH252278   4.891   6.466  16.684 -0.0386 -0.1665  0.6661
10288TIP3    H152279   4.849   6.543  16.722  1.2534  0.0438  1.7524
10288TIP3    H252280   4.820   6.404  16.669 -1.2670  1.5380 -1.1341
10289TIP3   OH252281   5.624   5.686  17.039 -1.0452 -0.4286 -0.2616
10289TIP3    H152282   5.654   5.644  16.959  1.0628  1.5322 -0.5977
10289TIP3    H252283   5.680   5.762  17.049 -2.3706  0.3454  2.1941
10290TIP3   OH252284   5.272   3.362   3.857 -0.4073  0.1800  0.1521
10290TIP3    H152285   5.215   3.404   3.793  1.3052 -0.7413 -2.1547
10290TIP3    H252286   5.251   3.269   3.850 -0.0383  0.0435  0.7731
10291TIP3   OH252287   4.058   1.470  15.079 -1.0840  0.2360  0.0727
10291TIP3    H152288   4.069   1.448  14.986  1.9925 -0.9232  0.5811
10291TIP3    H252289   4.105   1.552  15.090 -0.5382 -0.1607  0.7760
10292TIP3   OH252290   4.780   0.183   1.204 -0.2583 -0.1657  0.5763
10292TIP3    H152291   4.820   0.269   1.213  1.0539 -0.8130  1.3758
10292TIP3    H252292   4.839   0.124   1.252 -1.7923 -1.3178  1.1519
10293TIP3   OH252293   4.494   5.949   1.113  0.3618  0.4721 -0.3246
10293TIP3    H152294   4.460   5.861   1.096 -1.3034  0.9457  0.4296
10293TIP3    H252295   4.500   5.989   1.026  0.1967 -0.0493 -0.5831
10294TIP3   OH252296   1.402   1.300   3.197  0.3536  0.3325  0.0915
10294TIP3    H152297   1.476   1.254   3.239  0.9920  1.6500  0.4683
10294TIP3    H252298   1.442   1.373   3.151 -0.3416 -1.0168 -2.8723
10295TIP3   OH252299   0.100   2.311  13.271  0.1169 -0.2798  0.0986
10295TIP3    H152300   0.067   2.400  13.280  0.4361 -0.0721 -0.7083
10295TIP3    H252301   0.030   2.264  13.225 -0.2950 -0.6014  1.0311
10296TIP3   OH252302   2.740   0.808  14.596  0.3050 -0.0677  0.2853
10296TIP3    H152303   2.771   0.729  14.551  0.6697  0.8261 -1.0907
10296TIP3    H252304   2.798   0.877  14.566 -0.3269  0.8341  1.0726
10297TIP3   OH252305   2.780   0.760   5.762 -0.6320  0.0227  0.1977
10297TIP3    H152306   2.687   0.765   5.737 -0.5738 -2.8673 -0.9961
10297TIP3    H252307   2.779   0.708   5.843 -0.0747  0.2829  0.3708
10298TIP3   OH252308   0.236   3.022   0.708 -0.5861  0.0855  0.2524
10298TIP3    H152309   0.279   2.950   0.662 -0.0564  1.1810 -1.0512
10298TIP3    H252310   0.307   3.083   0.729 -1.0478  0.3382  1.1480
10299TIP3   OH252311   3.014   3.752  14.879  0.2325  0.2903 -0.2022
10299TIP3    H152312   2.954   3.810  14.924 -0.9831 -0.0072 -1.3666
10299TIP3    H252313   2.958   3.695  14.826  1.5398  0.2229 -1.6040
10300TIP3   OH252314   4.164   3.305   4.338 -0.1490 -0.5240 -0.1833
10300TIP3    H152315   4.169   3.393   4.301 -0.6578  0.2458  1.4826
10300TIP3    H252316   4.144   3.319   4.431  0.0600 -2.3904  0.1801
10301TIP3   OH252317   5.952   2.095  16.982 -0.1222  0.0546 -1.1939
10301TIP3    H152318   5.906   2.067  17.061 -0.0141  0.5472 -0.9482
10301TIP3    H252319   6.003   2.171  17.010 -0.1166  0.2611 -1.7487
10302TIP3   OH252320   0.976   6.683  13.273 -0.3418 -0.4152  0.0924
10302TIP3    H152321   0.909   6.636  13.224 -0.5137  0.7730 -0.8777
10302TIP3    H252322   1.011   6.747  13.210  0.0534  0.5679  1.2671
10303TIP3   OH252323   0.853   4.296  14.196  0.1669  0.7068 -0.1590
10303TIP3    H152324   0.913   4.301  14.121 -0.4105  2.2981 -0.5572
10303TIP3    H252325   0.902   4.247  14.262  0.5206 -1.1700 -1.7055
10304TIP3   OH252326   3.538   5.283  12.200  0.2010 -0.1426 -0.1341
10304TIP3    H152327   3.515   5.251  12.112 -0.1720  0.9313 -0.4442
10304TIP3    H252328   3.495   5.369  12.206 -0.6922 -0.6711  1.5300
10305TIP3   OH252329   4.513   2.694  17.226 -0.5756 -0.0637 -0.0634
10305TIP3    H152330   4.581   2.675  17.290 -0.0183  1.3962 -0.1856
10305TIP3    H252331   4.472   2.609  17.209  0.7750 -0.8650  0.5017
10306TIP3   OH252332   4.153   2.083   0.921 -0.0782  0.1013 -0.4560
10306TIP3    H152333   4.193   2.142   0.857  0.3788  2.6025  1.9471
10306TIP3    H252334   4.226   2.050   0.973 -0.6491  0.5996  0.7098
10307TIP3   OH252335   0.137   5.125   1.432  0.0834  0.6432 -0.1261
10307TIP3    H152336   0.051   5.084   1.421  1.1385 -2.1532  1.1446
10307TIP3    H252337   0.168   5.139   1.342 -1.3707  1.0602 -0.5970
10308TIP3   OH252338   3.413   2.824   5.799 -0.3195  0.2646 -0.6986
10308TIP3    H152339   3.507   2.808   5.788 -0.6609 -1.8444 -1.0997
10308TIP3    H252340   3.404   2.855   5.888  0.6453 -0.8999 -0.1616
10309TIP3   OH252341   2.598   5.384   4.055  0.2432 -0.0941  0.0629
10309TIP3    H152342   2.566   5.299   4.027 -2.9568  0.6649  1.0196
10309TIP3    H252343   2.602   5.436   3.975 -1.8974  0.0157 -0.0131
10310TIP3   OH252344   1.906   5.873   0.957 -0.4603 -0.4801  0.0854
10310TIP3    H152345   1.860   5.809   1.010 -0.7613 -0.9556 -0.7397
10310TIP3    H252346   1.867   5.866   0.870 -0.4380  0.7542 -0.0517
10311TIP3   OH252347   6.404   1.498  17.339 -0.2592  0.1378  0.0853
10311TIP3    H152348   6.472   1.543  17.288  1.0213 -1.0805  0.6470
10311TIP3    H252349   6.336   1.478  17.275  0.4325  0.3493 -0.7524
10312TIP3   OH252350   1.755   1.497   0.070 -0.1281  0.1081 -0.2280
10312TIP3    H152351   1.778   1.558  -0.001 -1.3629  1.5404  0.5650
10312TIP3    H252352   1.839   1.474   0.109  0.3263  2.4398  0.3475
10313TIP3   OH252353   2.878   2.560   2.216  0.6551  0.3800 -0.0873
10313TIP3    H152354   2.898   2.654   2.223  1.6974  0.2149 -0.7107
10313TIP3    H252355   2.840   2.551   2.129  1.9033  0.0060 -0.6120
10314TIP3   OH252356   1.893   3.261   0.263 -0.3288  0.4604 -0.5111
10314TIP3    H152357   1.972   3.291   0.219  0.6770  0.3728  1.1567
10314TIP3    H252358   1.882   3.170   0.234  0.2556  0.4268 -0.6371
10315TIP3   OH252359   2.403   1.027   5.622  0.8573 -0.0587  0.2741
10315TIP3    H152360   2.408   0.931   5.627 -1.9055 -0.5287 -2.5385
10315TIP3    H252361   2.327   1.049   5.676 -1.2997 -0.1207 -2.5045
10316TIP3   OH252362   2.981   0.353  11.971 -0.3102 -0.3030 -0.0098
10316TIP3    H152363   2.965   0.445  11.993  0.0723 -0.6484  1.9334
10316TIP3    H252364   3.055   0.355  11.911 -1.2301  0.7176 -1.1577
10317TIP3   OH252365   5.271   1.080  12.600  0.0404  0.1113 -0.5394
10317TIP3    H152366   5.195   1.033  12.567  1.4160 -2.9105  0.1706
10317TIP3    H252367   5.248   1.104  12.690 -0.1352 -0.7578 -0.3417
10318TIP3   OH252368   4.326   3.747   1.002  0.3875 -0.0176  0.4038
10318TIP3    H152369   4.271   3.813   1.045 -1.1816  1.2106 -3.1125
10318TIP3    H252370   4.374   3.796   0.935  2.9696 -1.7293  0.8727
10319TIP3   OH252371   2.371   5.626  10.729 -0.0700 -0.3922  0.1705
10319TIP3    H152372   2.452   5.644  10.682 -0.0716  1.8709  0.9295
10319TIP3    H252373   2.321   5.570  10.668  1.5323 -0.8658 -0.7878
10320TIP3   OH252374   5.353   1.868   2.884 -0.2102 -0.3724 -0.4424
10320TIP3    H152375   5.388   1.812   2.815 -1.4148 -0.3441 -1.0963
10320TIP3    H252376   5.287   1.921   2.841  1.5088  2.2471 -0.0557
10321TIP3   OH252377   0.637   5.637   0.175 -0.4715 -0.1716 -0.5214
10321TIP3    H152378   0.640   5.640   0.079 -1.0593 -2.2869 -0.6456
10321TIP3    H252379   0.705   5.574   0.200 -1.0314 -0.4437  0.3727
10322TIP3   OH252380   3.146   4.762   3.262 -0.1834  0.2892  0.3605
10322TIP3    H152381   3.071   4.763   3.321 -1.5168  0.8081 -1.2824
10322TIP3    H252382   3.213   4.814   3.307 -0.6329 -0.5202  2.0268
10323TIP3   OH252383   6.742   1.020   4.602 -0.1623 -0.1279  0.2862
10323TIP3    H152384   6.771   0.947   4.548 -1.4275 -1.4473  1.3055
10323TIP3    H252385   6.713   1.086   4.540  0.3773 -0.7419 -0.6557
10324TIP3   OH252386   6.046   0.412   0.222 -0.2394  0.7852  0.3423
10324TIP3    H152387   6.053   0.332   0.171  2.3466 -0.2785  2.1489
10324TIP3    H252388   6.075   0.386   0.310 -1.1407  3.3033  1.4659
10325TIP3   OH252389   2.859   0.183  10.984 -0.2352  0.8270  0.4585
10325TIP3    H152390   2.926   0.213  10.923  0.2478 -2.0793 -0.5985
10325TIP3    H252391   2.785   0.158  10.929 -1.3710  1.8360  1.4443
10326TIP3   OH252392   3.122   2.929   3.545  0.1169  0.4028 -0.1811
10326TIP3    H152393   3.211   2.904   3.521 -0.1470  0.6641 -1.5398
10326TIP3    H252394   3.133   3.003   3.606  0.8255  0.7512 -0.7163
10327TIP3   OH252395   6.610   0.110   3.523 -0.0079  0.2421  0.0387
10327TIP3    H152396   6.608   0.032   3.578 -0.0046  0.0132 -0.2825
10327TIP3    H252397   6.672   0.169   3.566  1.2566 -0.5956 -0.5972
10328TIP3   OH252398   6.059   1.061  11.125  0.0285  0.2334 -0.3662
10328TIP3    H152399   6.051   0.986  11.066  0.1426 -0.2368  0.2097
10328TIP3    H252400   6.010   1.131  11.082 -1.6702 -0.7014 -0.0189
10329TIP3   OH252401   6.440   0.432   6.557 -0.8289 -0.1567 -0.4122
10329TIP3    H152402   6.483   0.517   6.557  0.8931 -0.9561  1.3032
10329TIP3    H252403   6.356   0.447   6.600  0.0860  0.4368  1.2552
10330TIP3   OH252404   6.508   3.675   5.217 -0.3140 -0.3833  0.2493
10330TIP3    H152405   6.553   3.703   5.297 -0.4843 -1.2210  0.6555
10330TIP3    H252406   6.531   3.741   5.152 -0.9369  0.8388  1.2237
10331TIP3   OH252407   3.981   0.200   4.609  0.0451 -0.2157  0.7345
10331TIP3    H152408   3.945   0.274   4.559  0.5979 -0.7694 -0.5387
10331TIP3    H252409   3.969   0.125   4.552  1.6563 -0.6942  0.9834
10332TIP3   OH252410   5.540   1.048  12.518 -0.0928 -0.0854  0.4353
10332TIP3    H152411   5.448   1.056  12.543 -0.7732  1.7522 -2.2655
10332TIP3    H252412   5.581   1.128  12.553 -0.5739  1.3590 -2.0683
10333TIP3   OH252413   2.241   4.000  15.544 -0.7619  0.2239  1.1212
10333TIP3    H152414   2.310   3.985  15.479 -1.4204 -1.8606  0.8329
10333TIP3    H252415   2.282   3.978  15.628 -0.6849  0.3118  1.1062
10334TIP3   OH252416   3.248   0.781  13.687 -0.6111 -0.2474  0.2817
10334TIP3    H152417   3.172   0.734  13.652 -2.2204  1.5765  1.1160
10334TIP3    H252418   3.215   0.823  13.766  1.5258 -0.0298  1.0989
10335TIP3   OH252419   4.193   0.526  14.849  0.1205 -0.0619 -0.6082
10335TIP3    H152420   4.125   0.553  14.910  0.9863  1.6366 -0.3335
10335TIP3    H252421   4.224   0.442  14.883 -0.5479  0.0590  0.3357
10336TIP3   OH252422   4.599   3.570  10.583 -0.3818 -0.5372  0.1692
10336TIP3    H152423   4.608   3.573  10.678  0.0435  0.8908  0.1095
10336TIP3    H252424   4.685   3.543  10.551 -0.3830 -0.5396  0.1682
10337TIP3   OH252425   1.046   0.362   5.750 -0.2103 -0.0580  0.1186
10337TIP3    H152426   1.087   0.396   5.670 -0.8744 -0.5419 -0.4365
10337TIP3    H252427   1.119   0.325   5.801 -0.0069 -1.5248 -1.1649
10338TIP3   OH252428   3.229   5.469  14.719  0.0097 -0.3644  0.0932
10338TIP3    H152429   3.293   5.401  14.699 -0.3376 -0.5471 -0.4039
10338TIP3    H252430   3.276   5.529  14.777  0.3382 -0.9874  0.4847
10339TIP3   OH252431   4.444   0.454   0.062 -0.0626  0.8230 -0.3718
10339TIP3    H152432   4.356   0.419   0.047  1.6795 -3.1211 -3.2958
10339TIP3    H252433   4.475   0.410   0.141  0.5143 -0.8175 -1.4703
10340TIP3   OH252434   3.578   2.682  11.501  0.7633 -0.2858 -0.3955
10340TIP3    H152435   3.647   2.748  11.501 -0.2569  0.8319  0.9692
10340TIP3    H252436   3.582   2.643  11.588 -1.1328  0.7112  0.1959
10341TIP3   OH252437   4.317   0.967   5.191  0.1106  0.1750  0.5013
10341TIP3    H152438   4.221   0.972   5.192  0.0527 -0.2930 -0.7413
10341TIP3    H252439   4.336   0.876   5.167  0.8781  0.0968  1.3523
10342TIP3   OH252440   1.596   0.328  15.636 -0.5270  0.2155 -0.2849
10342TIP3    H152441   1.594   0.349  15.543 -0.2956  0.0415 -0.3308
10342TIP3    H252442   1.669   0.266  15.645 -0.4730  0.3230  0.0292
10343TIP3   OH252443   2.947   4.936  12.427 -0.5913  0.1306 -0.4471
10343TIP3    H152444   2.989   4.949  12.512  3.8433 -2.1038 -1.9752
10343TIP3    H252445   2.878   4.871  12.445 -0.2423  0.2429  1.5459
10344TIP3   OH252446   6.610   1.196   0.533  0.3757 -0.6555 -1.1918
10344TIP3    H152447   6.607   1.251   0.612  4.6830  0.7137 -1.6893
10344TIP3    H252448   6.632   1.109   0.565 -0.5661 -0.7431 -0.7568
10345TIP3   OH252449   6.144   5.946  16.598  0.4558 -0.0989  0.1541
10345TIP3    H152450   6.134   6.034  16.562 -2.4216 -0.6272 -0.5482
10345TIP3    H252451   6.085   5.891  16.546  1.6689 -2.3347  1.0065
10346TIP3   OH252452   5.783   5.735   4.113 -0.2503  0.1814  0.7319
10346TIP3    H152453   5.820   5.755   4.028 -1.6776  1.5178  0.3829
10346TIP3    H252454   5.816   5.647   4.134  0.1800 -0.1340 -1.1403
10347TIP3   OH252455   3.390   1.895   3.290 -0.2945 -0.3607 -0.3147
10347TIP3    H152456   3.430   1.863   3.370 -0.6375 -1.4148 -0.5571
10347TIP3    H252457   3.334   1.823   3.259 -0.4477  0.1559 -1.3023
10348TIP3   OH252458   1.906   5.992   5.248  0.2264  0.1178 -0.2049
10348TIP3    H152459   1.885   6.019   5.337 -2.4216  0.5995 -0.8815
10348TIP3    H252460   1.853   5.914   5.233 -0.1523  0.6128 -1.6474
10349TIP3   OH252461   6.161   6.649  13.408  0.2003 -0.0623  0.0439
10349TIP3    H152462   6.076   6.651  13.364  0.4639 -0.8992 -0.5291
10349TIP3    H252463   6.146   6.599  13.488 -0.3026  1.5468  1.0062
10350TIP3   OH252464   5.796   6.313  17.286 -0.4979 -0.2318 -0.6784
10350TIP3    H152465   5.793   6.402  17.250 -1.4614 -0.0995 -0.2915
10350TIP3    H252466   5.706   6.283  17.282 -1.1784  0.6576  3.7661
10351TIP3   OH252467   3.981   1.868   0.639 -0.5392 -0.4474  0.1215
10351TIP3    H152468   3.971   1.925   0.562 -1.4196 -2.1941 -1.1212
10351TIP3    H252469   4.075   1.867   0.656 -0.4284  0.7350 -0.2970
10352TIP3   OH252470   4.228   0.139   2.816  0.5500 -0.3008  0.4098
10352TIP3    H152471   4.208   0.113   2.726 -1.3440  1.4094  0.2639
10352TIP3    H252472   4.309   0.191   2.809  1.0100 -1.0632 -0.1132
10353TIP3   OH252473   2.052   3.866   5.097  0.3959  0.0790  0.3185
10353TIP3    H152474   1.970   3.885   5.053  1.5242  0.2975 -1.7920
10353TIP3    H252475   2.052   3.923   5.174 -0.9423  0.8552 -0.2269
10354TIP3   OH252476   1.149   0.711   1.404 -0.2048  0.4026 -0.0286
10354TIP3    H152477   1.139   0.696   1.310  0.6287 -3.4585  0.3022
10354TIP3    H252478   1.242   0.726   1.417  0.0527 -1.2048  0.2768
10355TIP3   OH252479   2.463   4.266  13.117 -0.3502  0.1096  0.3090
10355TIP3    H152480   2.481   4.324  13.043  0.7203  1.4340  1.5311
10355TIP3    H252481   2.440   4.182  13.078  1.4684  0.4026 -1.5297
10356TIP3   OH252482   4.732   5.338   4.317 -0.0718 -0.0701  0.0773
10356TIP3    H152483   4.726   5.427   4.283  2.2925 -0.7729 -2.6321
10356TIP3    H252484   4.665   5.289   4.269  0.4815 -0.2526 -0.5257
10357TIP3   OH252485   0.007   1.283  16.659 -0.0705  0.0283  0.2896
10357TIP3    H152486   0.003   1.350  16.727 -1.0224  1.3546 -1.0273
10357TIP3    H252487  -0.041   1.320  16.585 -0.6646 -2.1159 -0.4842
10358TIP3   OH252488   5.014   4.507   5.266 -0.3899 -0.6305 -0.2384
10358TIP3    H152489   4.953   4.477   5.333 -0.4404 -1.1400 -0.5081
10358TIP3    H252490   5.079   4.436   5.260  1.2979  0.6789  1.3574
10359TIP3   OH252491   0.953   6.732  12.374 -0.6224 -0.5372 -0.3272
10359TIP3    H152492   0.923   6.690  12.455 -1.6477  0.2434 -0.2747
10359TIP3    H252493   0.949   6.826  12.393 -0.4773 -0.3527 -1.1525
10360TIP3   OH252494   0.116   5.673   5.790  0.0114  0.0548  0.3067
10360TIP3    H152495   0.038   5.617   5.787 -1.4599  1.8724  1.9535
10360TIP3    H252496   0.157   5.661   5.704 -2.0819 -0.9519 -0.6329
10361TIP3   OH252497   6.302   5.336  11.398  0.0826 -0.0994 -0.2061
10361TIP3    H152498   6.327   5.411  11.344  0.3999  0.0292  0.1124
10361TIP3    H252499   6.244   5.373  11.465  1.4053  0.1513  0.8520
10362TIP3   OH252500   3.595   2.366   4.726 -0.3371 -0.6779  0.6170
10362TIP3    H152501   3.616   2.396   4.638  1.6213 -1.3746  0.7767
10362TIP3    H252502   3.625   2.438   4.783  1.6972 -1.6211  0.8431
10363TIP3   OH252503   5.397   4.505   2.406 -0.3995  0.4856  0.7478
10363TIP3    H152504   5.304   4.490   2.389 -0.3989  0.7295  0.5346
10363TIP3    H252505   5.406   4.600   2.410  0.0227  0.5003 -0.2654
10364TIP3   OH252506   5.336   4.005  13.740 -0.0264  0.0725  0.4357
10364TIP3    H152507   5.371   4.094  13.741 -1.8562  0.8741 -0.8418
10364TIP3    H252508   5.303   3.992  13.829 -1.3267  1.4080  0.2023
10365TIP3   OH252509   2.680   5.900  13.603  0.0724  0.3446  0.2571
10365TIP3    H152510   2.775   5.910  13.608  0.1790 -0.2435 -0.4381
10365TIP3    H252511   2.648   5.990  13.595  0.5772  0.5436  0.3846
10366TIP3   OH252512   4.809   5.723   0.693 -0.0052  0.0248  0.7161
10366TIP3    H152513   4.779   5.751   0.607 -0.6343 -3.2960 -0.2664
10366TIP3    H252514   4.735   5.739   0.751 -0.9980 -1.1793 -0.1778
10367TIP3   OH252515   2.780   1.316  16.143 -0.0975  0.1725 -0.5926
10367TIP3    H152516   2.800   1.349  16.231  0.1209  0.4499 -0.7440
10367TIP3    H252517   2.697   1.357  16.120  0.8525  1.7727 -1.3563
10368TIP3   OH252518   2.237   1.837   3.091  0.8655  0.5752 -0.4648
10368TIP3    H152519   2.255   1.914   3.145  0.1933  1.3448 -1.3064
10368TIP3    H252520   2.143   1.840   3.076  1.0199  0.2860 -1.5418
10369TIP3   OH252521   2.225   6.621   1.898  0.5919 -0.0611 -0.0631
10369TIP3    H152522   2.201   6.544   1.847 -0.1724  0.3884 -0.3829
10369TIP3    H252523   2.321   6.621   1.896  0.6476 -1.5836  0.8104
10370TIP3   OH252524   5.749   2.077  13.676  0.1113 -0.1477 -0.0778
10370TIP3    H152525   5.732   2.132  13.600 -0.5695  1.6711  1.3202
10370TIP3    H252526   5.783   2.138  13.742 -2.2270 -1.0244  2.0979
10371TIP3   OH252527   1.772   2.303   5.180  0.5332 -0.1311 -0.5413
10371TIP3    H152528   1.840   2.370   5.183 -0.6437  1.0551  1.1575
10371TIP3    H252529   1.690   2.351   5.170 -0.1254 -1.5412 -2.5728
10372TIP3   OH252530   1.828   2.808  14.096 -0.1283 -0.0305  0.1701
10372TIP3    H152531   1.872   2.870  14.155 -2.7731  2.3592 -0.1506
10372TIP3    H252532   1.897   2.778  14.037  2.2455 -1.1207  3.2059
10373TIP3   OH252533   1.567   4.231  12.972 -0.2300 -0.3841  0.1613
10373TIP3    H152534   1.618   4.301  13.011  0.0391  0.4908 -1.6509
10373TIP3    H252535   1.628   4.159  12.962 -0.1837 -0.4500  0.8717
10374TIP3   OH252536   1.753   3.060  15.100  0.0503 -0.5602  0.1297
10374TIP3    H152537   1.677   3.116  15.091 -0.2784 -0.7517  1.4238
10374TIP3    H252538   1.767   3.054  15.195  0.7794 -1.7121 -0.0280
10375TIP3   OH252539   3.919   5.545   6.160 -0.3093 -0.0991  0.5953
10375TIP3    H152540   3.874   5.579   6.238 -1.6046 -1.6554  0.5918
10375TIP3    H252541   3.981   5.481   6.194 -1.2179 -1.1417  0.3783
10376TIP3   OH252542   5.024   3.937   0.220 -0.3854  0.1340 -0.4648
10376TIP3    H152543   5.010   3.896   0.135  0.4767 -0.4616 -0.3343
10376TIP3    H252544   4.942   3.985   0.237 -0.4803  0.4586 -1.7184
10377TIP3   OH252545   4.018   2.921   3.959 -0.1997  0.3929  0.2189
10377TIP3    H152546   4.002   2.977   3.884  1.4878 -0.1418 -0.6121
10377TIP3    H252547   4.088   2.965   4.008 -0.6621  0.2945  0.9810
10378TIP3   OH252548   4.285   5.186   2.581 -0.3367 -0.1580  0.8646
10378TIP3    H152549   4.305   5.225   2.496 -1.0536  0.6649  1.0600
10378TIP3    H252550   4.367   5.189   2.628  0.2251 -1.1896 -0.0078
10379TIP3   OH252551   6.067   6.276  15.071 -0.2898 -0.3919  0.5097
10379TIP3    H152552   6.105   6.313  14.991 -0.0991 -2.9146 -0.6407
10379TIP3    H252553   5.978   6.253  15.047 -0.1300 -1.4610  0.8976
10380TIP3   OH252554   3.784   3.915   4.765 -0.2946 -0.3202 -0.2897
10380TIP3    H152555   3.833   3.897   4.685 -2.7650 -0.8000 -1.7892
10380TIP3    H252556   3.802   4.007   4.784 -0.0354 -0.0803 -1.6354
10381TIP3   OH252557   5.729   3.348   1.266 -0.1583  0.2229 -0.1184
10381TIP3    H152558   5.773   3.318   1.187  1.4788 -0.4723  0.9847
10381TIP3    H252559   5.753   3.440   1.274  1.2971 -0.1915  0.5583
10382TIP3   OH252560   3.048   3.220   5.813  0.9328 -0.1106 -0.5267
10382TIP3    H152561   3.094   3.296   5.849  0.5899  0.5525 -1.4610
10382TIP3    H252562   2.987   3.257   5.750  1.3617 -1.2238 -1.6196
10383TIP3   OH252563   4.012   0.684   0.691  0.3682  0.3158 -0.1762
10383TIP3    H152564   3.924   0.647   0.699  0.4583  0.0355 -0.4785
10383TIP3    H252565   3.997   0.774   0.663  0.1804  0.2322 -0.3478
10384TIP3   OH252566   0.297   0.989   6.046  0.1071 -0.1162 -0.7737
10384TIP3    H152567   0.209   1.023   6.029  0.0064 -1.1545 -2.5567
10384TIP3    H252568   0.295   0.964   6.139 -1.2598  0.4719 -0.6164
10385TIP3   OH252569   3.131   1.856  16.330 -0.1367  0.2256 -0.4083
10385TIP3    H152570   3.049   1.837  16.376  0.3309 -0.3181  0.2288
10385TIP3    H252571   3.105   1.876  16.241 -0.8916 -0.8968 -0.4582
10386TIP3   OH252572   4.075   3.761  16.882  0.1943 -0.3889  0.2836
10386TIP3    H152573   3.993   3.805  16.860 -0.0633 -0.1751  1.5947
10386TIP3    H252574   4.087   3.695  16.813 -0.3858  0.4683 -0.6456
10387TIP3   OH252575   3.851   0.286  11.374  0.2023 -0.2154  0.6537
10387TIP3    H152576   3.806   0.371  11.369 -1.0619 -0.8988 -0.1432
10387TIP3    H252577   3.941   0.305  11.347 -0.3902  0.6614 -0.8474
10388TIP3   OH252578   1.050   4.859   3.507 -0.3452  0.5269  0.3298
10388TIP3    H152579   1.117   4.916   3.545  0.8981 -0.9526  0.4511
10388TIP3    H252580   0.982   4.853   3.574 -0.7206  2.1789  0.1419
10389TIP3   OH252581   4.453   6.431  12.499 -0.1762  0.0575  0.1167
10389TIP3    H152582   4.389   6.480  12.550 -0.3254 -1.8025  1.8627
10389TIP3    H252583   4.538   6.457  12.534 -0.2611 -0.9381  1.1290
10390TIP3   OH252584   4.330   2.666   5.043 -0.3910  0.2256 -0.5411
10390TIP3    H152585   4.399   2.722   5.009 -0.1198  1.5882  2.0133
10390TIP3    H252586   4.250   2.700   5.003 -0.0468  1.4739 -0.2106
10391TIP3   OH252587   4.399   5.420  16.165 -0.3870 -0.4972 -0.2098
10391TIP3    H152588   4.422   5.439  16.075  2.9226 -1.5716  0.2900
10391TIP3    H252589   4.419   5.327  16.177 -1.0968 -0.4772  1.5396
10392TIP3   OH252590   2.658   0.702   3.053 -0.2828  0.1647 -0.0122
10392TIP3    H152591   2.664   0.696   3.148  3.2947 -1.3374 -0.1945
10392TIP3    H252592   2.662   0.796   3.035 -0.7870  0.4546  1.2787
10393TIP3   OH252593   3.619   3.709  13.565  0.1877 -0.4674 -0.1932
10393TIP3    H152594   3.665   3.634  13.526 -1.0831 -0.9330 -0.8606
10393TIP3    H252595   3.648   3.785  13.515  1.4793 -0.5007  0.4795
10394TIP3   OH252596   4.227   4.530  15.242  0.4143  0.4906 -0.4189
10394TIP3    H152597   4.302   4.492  15.288  0.1500  0.8138  0.2787
10394TIP3    H252598   4.267   4.585  15.174  0.8084  0.2105 -0.4187
10395TIP3   OH252599   1.157   3.609   2.242  0.1395 -0.7559  0.1531
10395TIP3    H152600   1.117   3.669   2.180 -0.4962  0.2474  1.4849
10395TIP3    H252601   1.084   3.561   2.281  0.5516 -1.5891 -0.0657
10396TIP3   OH252602   6.370   2.172  15.459 -0.5939 -0.1412  0.2268
10396TIP3    H152603   6.326   2.249  15.423  1.3704  0.8518 -0.2146
10396TIP3    H252604   6.343   2.169  15.551  0.5146  2.0960  0.6960
10397TIP3   OH252605   3.240   4.420   5.162 -0.4876  0.5410 -0.1845
10397TIP3    H152606   3.318   4.366   5.149 -0.5459  0.0826  1.1910
10397TIP3    H252607   3.271   4.497   5.209 -0.9023  0.1648  0.7354
10398TIP3   OH252608   1.826   4.702  12.974  0.3965  0.3635 -0.5013
10398TIP3    H152609   1.855   4.664  13.057  2.2593 -0.7971 -1.6294
10398TIP3    H252610   1.879   4.781  12.965  0.3128  0.4010 -0.6595
10399TIP3   OH252611   0.279   4.429  12.178  0.1846 -0.6008  0.3882
10399TIP3    H152612   0.191   4.394  12.188  0.4367 -2.3981 -2.5487
10399TIP3    H252613   0.270   4.500  12.114  1.0165 -1.8781 -1.2144
10400TIP3   OH252614   0.899   4.294   1.676 -0.3611 -0.5118  0.1733
10400TIP3    H152615   0.859   4.351   1.611  2.5967  0.1526 -1.2352
10400TIP3    H252616   0.893   4.206   1.638  0.5518 -0.2449 -0.6277
10401TIP3   OH252617   5.467   0.555  11.589  0.0062 -0.4747  0.0730
10401TIP3    H152618   5.518   0.587  11.664  0.0559  0.1366 -0.2145
10401TIP3    H252619   5.495   0.611  11.516 -0.9982 -0.2062 -0.1130
10402TIP3   OH252620   1.522   1.484  17.270 -0.5932  0.2289 -0.0812
10402TIP3    H152621   1.517   1.574  17.304  0.9263 -0.1959  1.4255
10402TIP3    H252622   1.453   1.437  17.316 -2.4919  0.9075 -2.0713
10403TIP3   OH252623   4.290   4.847   4.657 -0.3571  0.0923 -0.1013
10403TIP3    H152624   4.230   4.812   4.592 -1.7021 -2.3923  2.2407
10403TIP3    H252625   4.344   4.772   4.682 -0.5969  0.6366  2.3073
10404TIP3   OH252626   2.599   2.377  14.302  0.5095 -0.1519 -0.0140
10404TIP3    H152627   2.640   2.336  14.378 -0.9372 -0.5907  0.5679
10404TIP3    H252628   2.617   2.470  14.312  3.0241 -0.4588 -0.8478
10405TIP3   OH252629   2.151   6.305  10.605  0.0557 -0.5464  0.3439
10405TIP3    H152630   2.233   6.353  10.619 -0.8616  1.5779 -1.0880
10405TIP3    H252631   2.082   6.371  10.614 -1.5375 -2.2590  1.3955
10406TIP3   OH252632   4.736   1.566  11.638  0.2277  0.2208  0.6843
10406TIP3    H152633   4.806   1.501  11.643 -0.0215 -0.0592  0.5640
10406TIP3    H252634   4.754   1.614  11.557 -0.6332 -0.9207 -0.2123
10407TIP3   OH252635   3.014   5.046   2.873  0.1097  0.8223 -0.6005
10407TIP3    H152636   3.008   5.095   2.791  0.4413 -0.6014 -1.5087
10407TIP3    H252637   2.963   4.967   2.857  0.3787  0.4139  0.4918
10408TIP3   OH252638   1.220   5.495   1.382 -0.3440 -0.2253  0.5672
10408TIP3    H152639   1.260   5.580   1.403  0.4966 -0.3909 -0.2747
10408TIP3    H252640   1.134   5.499   1.422 -1.4059  2.0988 -1.6023
10409TIP3   OH252641   4.334   5.467  13.961 -0.0774  0.0805 -0.1892
10409TIP3    H152642   4.343   5.493  13.869 -0.6298  0.2691 -0.1953
10409TIP3    H252643   4.336   5.372  13.960 -1.1168  0.0541 -0.5184
10410TIP3   OH252644   5.565   2.824  11.674  0.2873 -0.4851 -0.3035
10410TIP3    H152645   5.504   2.818  11.748  1.3249 -0.8375  0.5455
10410TIP3    H252646   5.551   2.912  11.639  0.0049 -0.1923  0.5130
10411TIP3   OH252647   6.477   1.382   5.748 -0.0556 -0.0873 -0.6577
10411TIP3    H152648   6.540   1.396   5.819  0.1019 -1.8281 -0.4262
10411TIP3    H252649   6.521   1.322   5.687 -0.0603  1.5916 -2.4276
10412TIP3   OH252650   6.419   0.113  15.682 -0.1005  0.2658 -0.2339
10412TIP3    H152651   6.385   0.198  15.710 -1.2063  0.1652 -1.2057
10412TIP3    H252652   6.425   0.119  15.587 -0.1581 -0.7219 -0.3162
10413TIP3   OH252653   3.408   4.333  16.005 -0.5788  0.0680 -0.6142
10413TIP3    H152654   3.351   4.403  15.974 -1.4213  0.3841  1.4954
10413TIP3    H252655   3.359   4.253  15.990 -0.2722  0.0444 -1.5758
10414TIP3   OH252656   6.647   0.025  16.426  0.4202  0.4742 -0.0755
10414TIP3    H152657   6.637  -0.005  16.335 -0.7130  0.3587  0.0754
10414TIP3    H252658   6.721  -0.025  16.459 -0.1938 -0.7285 -0.4474
10415TIP3   OH252659   4.547   5.541  12.524  0.0264 -0.0320 -0.5709
10415TIP3    H152660   4.482   5.530  12.593 -1.7145 -0.6387 -2.2060
10415TIP3    H252661   4.615   5.596  12.563 -0.0283 -1.6957  2.1164
10416TIP3   OH252662   5.332   2.285  15.892 -0.2910 -0.0687 -0.0135
10416TIP3    H152663   5.300   2.247  15.974 -0.5338 -0.4226 -0.2709
10416TIP3    H252664   5.372   2.368  15.918  0.4670 -0.6110  0.5904
10417TIP3   OH252665   1.450   4.742   2.680 -0.4569 -0.7401  0.3322
10417TIP3    H152666   1.492   4.668   2.636  0.8935  0.7454 -1.0346
10417TIP3    H252667   1.522   4.803   2.697 -1.7829  1.1267 -0.4696
10418TIP3   OH252668   6.482   0.124   0.147  0.2624  0.3208  0.1256
10418TIP3    H152669   6.498   0.126   0.241  1.3215  0.0356 -0.0401
10418TIP3    H252670   6.394   0.161   0.137  1.8597  4.9631  0.8378
10419TIP3   OH252671   5.159   2.230   3.620 -0.6514 -0.4639 -0.5901
10419TIP3    H152672   5.074   2.232   3.575 -0.4675 -2.4020 -1.1348
10419TIP3    H252673   5.222   2.207   3.551  0.7860  3.1737 -0.7095
10420TIP3   OH252674   4.676   1.880  13.741  0.2642 -0.3419  0.4063
10420TIP3    H152675   4.639   1.961  13.776 -0.0884  0.1266 -0.9713
10420TIP3    H252676   4.731   1.846  13.811 -0.2747  0.6287  1.3307
10421TIP3   OH252677   3.302   1.314   5.095 -0.3740  0.1448  0.4274
10421TIP3    H152678   3.217   1.356   5.081 -0.9152 -1.2207 -0.6185
10421TIP3    H252679   3.359   1.354   5.030 -0.5233  0.2274  0.3467
10422TIP3   OH252680   2.954   3.355   0.364 -0.5505 -0.2560  0.0284
10422TIP3    H152681   2.961   3.277   0.309  0.4377  0.9800 -1.7331
10422TIP3    H252682   2.987   3.328   0.449 -0.6335 -1.8615 -0.4251
10423TIP3   OH252683   0.589   2.023  14.059 -0.0364 -0.1456  0.2923
10423TIP3    H152684   0.513   2.008  14.003 -0.9910  1.7231  1.0199
10423TIP3    H252685   0.563   2.094  14.117  1.5456 -0.8732  1.9757
10424TIP3   OH252686   0.518   5.561  16.464 -0.2392 -0.1415 -0.3192
10424TIP3    H152687   0.539   5.473  16.495 -0.8459 -0.8228 -1.7484
10424TIP3    H252688   0.427   5.575  16.491  0.0869  0.3675  0.5597
10425TIP3   OH252689   5.926   2.415  12.257 -0.6336 -0.4204  0.5425
10425TIP3    H152690   5.851   2.394  12.313 -0.5573  1.0409  1.2378
10425TIP3    H252691   5.999   2.369  12.297 -1.2394 -2.4376 -0.5420
10426TIP3   OH252692   6.042   3.572  15.340 -0.6409 -0.5277 -0.3334
10426TIP3    H152693   6.098   3.505  15.379 -0.1601  1.1303  2.0402
10426TIP3    H252694   6.102   3.630  15.295 -0.9729 -1.2062 -1.6880
10427TIP3   OH252695   6.548   6.745  15.124  0.2129 -0.0543 -0.1676
10427TIP3    H152696   6.454   6.726  15.122  0.0975  0.4796 -2.4412
10427TIP3    H252697   6.589   6.658  15.122 -0.2438 -0.2738 -0.2669
10428TIP3   OH252698   5.004   6.450   5.820 -0.0707  0.2410 -0.1834
10428TIP3    H152699   4.981   6.403   5.740  0.5463  0.7898 -0.6996
10428TIP3    H252700   5.067   6.393   5.865 -1.3420 -0.6327  0.5487
10429TIP3   OH252701   0.899   1.671  14.378  0.6914  0.7823 -0.6303
10429TIP3    H152702   0.844   1.749  14.379 -0.3199  0.0825 -0.0515
10429TIP3    H252703   0.981   1.701  14.339 -0.4034  1.6290 -2.4064
10430TIP3   OH252704   2.255   2.363   0.318 -0.1076  0.1093 -0.3444
10430TIP3    H152705   2.314   2.363   0.393 -1.9802  0.6194  1.2069
10430TIP3    H252706   2.201   2.284   0.329 -1.4947  1.0409 -0.2059
10431TIP3   OH252707   2.546   2.624  15.294 -0.4506  0.0585  0.2638
10431TIP3    H152708   2.511   2.667  15.215 -1.6213 -1.6032 -0.1831
10431TIP3    H252709   2.579   2.540  15.262 -1.2434 -0.7811  1.5833
10432TIP3   OH252710   0.690   0.712   4.658 -0.3831  0.3063  0.0995
10432TIP3    H152711   0.634   0.776   4.703  0.2992 -0.8538  2.8468
10432TIP3    H252712   0.777   0.751   4.659 -0.8031  1.6522 -3.2486
10433TIP3   OH252713   2.654   3.757  12.551 -0.2347 -0.6026 -0.0602
10433TIP3    H152714   2.693   3.844  12.551  0.0107 -0.7087  0.2493
10433TIP3    H252715   2.603   3.754  12.632 -0.2055 -0.7609 -0.0476
10434TIP3   OH252716   2.488   1.878   4.694 -0.7498  0.1450 -0.3499
10434TIP3    H152717   2.396   1.860   4.709 -0.8428  1.4899  0.8419
10434TIP3    H252718   2.509   1.951   4.752  1.0120  0.0208 -0.7589
10435TIP3   OH252719   5.854   3.271  11.232  0.5775 -0.2365 -0.6981
10435TIP3    H152720   5.909   3.247  11.157  1.3297  0.1794 -0.2883
10435TIP3    H252721   5.793   3.336  11.196  1.1277  0.1855 -0.8895
10436TIP3   OH252722   2.795   5.676  11.582 -0.1301  0.0506 -0.2537
10436TIP3    H152723   2.734   5.712  11.518 -1.5709 -2.8189 -0.6539
10436TIP3    H252724   2.828   5.595  11.541 -0.4168 -1.4194  2.2180
10437TIP3   OH252725   5.825   3.926   4.001  0.1296 -0.2237  0.0999
10437TIP3    H152726   5.834   3.884   4.086  0.0856 -0.5187 -0.0391
10437TIP3    H252727   5.765   3.869   3.952 -0.1735  0.1603  0.0129
10438TIP3   OH252728   0.239   4.731   0.981  0.2686  0.0453 -0.2961
10438TIP3    H152729   0.255   4.672   0.907 -0.5259 -0.1559 -0.3138
10438TIP3    H252730   0.152   4.767   0.964  0.1229  0.0737  0.4924
10439TIP3   OH252731   3.122   0.386  16.015 -0.0789  0.6093 -0.7720
10439TIP3    H152732   3.162   0.326  15.953 -1.0238 -1.3129  0.3734
10439TIP3    H252733   3.050   0.427  15.966  1.4101  1.9048 -1.9665
10440TIP3   OH252734   6.282   6.334   4.088 -0.2208  0.2281  0.3544
10440TIP3    H152735   6.218   6.392   4.129 -0.5318 -0.2329  0.5220
10440TIP3    H252736   6.256   6.329   3.996  0.6206  1.4615  0.0213
10441TIP3   OH252737   1.026   0.193   6.946 -0.0964 -0.1257 -0.4923
10441TIP3    H152738   0.944   0.177   6.898  0.8709 -1.5815 -1.7584
10441TIP3    H252739   1.076   0.253   6.891 -0.1792  0.5455  0.1476
10442TIP3   OH252740   1.393   5.989  17.151  0.3579 -0.3079 -0.1026
10442TIP3    H152741   1.395   6.084  17.159 -1.1075 -0.4013  2.6572
10442TIP3    H252742   1.481   5.965  17.122  1.3251  1.7696  0.8857
10443TIP3   OH252743   4.005   2.593   6.442  0.2429  0.9305 -0.1191
10443TIP3    H152744   3.913   2.612   6.426  0.2023  0.7407 -0.1152
10443TIP3    H252745   4.042   2.582   6.354  0.1272  0.3835 -0.1033
10444TIP3   OH252746   3.019   6.240  11.153 -0.2842  0.0509  0.7886
10444TIP3    H152747   3.051   6.154  11.180 -1.1468 -0.7356 -0.5675
10444TIP3    H252748   3.091   6.279  11.104 -0.2972 -0.3985  0.4093
10445TIP3   OH252749   6.676   1.888   0.848 -0.3157 -0.0804  0.0688
10445TIP3    H152750   6.761   1.934   0.848  0.6138 -1.6162 -2.0120
10445TIP3    H252751   6.611   1.958   0.839  0.8351  1.0292  0.0353
10446TIP3   OH252752   0.588   6.701  11.806  0.2930  0.3529 -0.6261
10446TIP3    H152753   0.608   6.730  11.717  0.3860  0.6194 -0.5187
10446TIP3    H252754   0.496   6.675  11.803  0.5100 -0.4092 -1.0008
10447TIP3   OH252755   3.419   2.457  15.430  0.2866  0.5126 -0.7985
10447TIP3    H152756   3.435   2.551  15.422 -1.0049  0.9024  0.5741
10447TIP3    H252757   3.339   2.443  15.380 -0.2259  0.4090  0.0294
10448TIP3   OH252758   5.513   5.482   0.889 -0.3475  0.4347 -0.0635
10448TIP3    H152759   5.507   5.387   0.878 -0.5870  0.2741  1.3674
10448TIP3    H252760   5.606   5.501   0.879 -0.4329  0.2385 -1.5717
10449TIP3   OH252761   4.984   4.471  13.051 -0.1064 -0.2519 -0.2521
10449TIP3    H152762   5.010   4.406  12.985 -0.4852  1.2476 -1.9409
10449TIP3    H252763   4.902   4.507  13.018  1.1291  2.5666 -0.4813
10450TIP3   OH252764   3.396   0.350   6.322 -0.2709 -0.7597  0.5139
10450TIP3    H152765   3.342   0.383   6.250 -1.7393 -0.9629  1.4869
10450TIP3    H252766   3.335   0.303   6.379  0.9569 -1.0895  1.6090
10451TIP3   OH252767   0.879   6.280  13.966 -0.2120  1.2449 -0.0038
10451TIP3    H152768   0.859   6.201  14.017 -0.7542  1.0665 -0.4838
10451TIP3    H252769   0.898   6.248  13.878 -0.2782  1.6396 -0.1641
10452TIP3   OH252770   0.770   0.747   0.441 -0.3910 -0.6976  0.1711
10452TIP3    H152771   0.858   0.744   0.478 -0.3072  0.4792  0.1243
10452TIP3    H252772   0.755   0.660   0.404  0.9755 -0.7320 -0.3452
10453TIP3   OH252773   2.547   6.220   4.410  0.5579  0.1225 -0.2083
10453TIP3    H152774   2.536   6.216   4.505  1.6469 -0.5042 -0.0995
10453TIP3    H252775   2.636   6.251   4.397 -0.2755  2.3299 -1.0658
10454TIP3   OH252776   3.417   6.730  11.697 -0.2217 -0.0185 -0.1434
10454TIP3    H152777   3.333   6.740  11.653 -1.7113 -1.4655  2.2009
10454TIP3    H252778   3.452   6.647  11.664  0.2388  0.4608 -0.9240
10455TIP3   OH252779   4.771   5.849   3.169  0.0261  0.8040  0.2912
10455TIP3    H152780   4.778   5.809   3.255 -2.5485 -1.1724 -0.3116
10455TIP3    H252781   4.733   5.935   3.186  0.3046  0.7671  1.1560
10456TIP3   OH252782   6.289   5.394   4.857  0.2826 -0.7891 -0.0414
10456TIP3    H152783   6.321   5.408   4.768  1.3130  1.0579  0.5549
10456TIP3    H252784   6.233   5.470   4.874 -1.0629 -1.8358  0.4340
10457TIP3   OH252785   5.118   2.745   4.534 -0.1891  0.2211  0.2060
10457TIP3    H152786   5.158   2.666   4.570  0.1639  0.6492  0.7602
10457TIP3    H252787   5.156   2.754   4.447 -0.4976 -0.4124 -0.0029
10458TIP3   OH252788   5.362   2.023   0.122  0.0990 -0.0675 -0.2073
10458TIP3    H152789   5.411   1.969   0.184 -0.7102  0.8170  1.2627
10458TIP3    H252790   5.338   2.102   0.172 -0.0918  0.9472 -1.8182
10459TIP3   OH252791   3.427   5.521   3.513  0.2235  0.2583 -0.5539
10459TIP3    H152792   3.421   5.588   3.445 -0.3330 -0.3256 -1.0883
10459TIP3    H252793   3.349   5.533   3.566 -0.4352 -0.6365 -1.2883
10460TIP3   OH252794   5.766   0.966  15.140 -0.2082 -0.0408 -0.1191
10460TIP3    H152795   5.680   0.947  15.177 -1.1951  0.4140 -2.0348
10460TIP3    H252796   5.760   1.057  15.110  0.9663  0.0127 -0.2352
10461TIP3   OH252797   3.727   2.342  11.531 -0.2678 -0.4750  0.0195
10461TIP3    H152798   3.751   2.352  11.624  2.3597 -1.8005 -0.3986
10461TIP3    H252799   3.726   2.247  11.517 -0.1839 -0.2870 -1.3963
10462TIP3   OH252800   3.525   3.209  13.298 -0.3678 -0.9857 -0.0897
10462TIP3    H152801   3.561   3.236  13.213 -0.5025 -2.5980 -0.6841
10462TIP3    H252802   3.598   3.167  13.343 -0.0610  0.5818  0.9907
10463TIP3   OH252803   1.165   5.870  12.482 -0.0844  0.1175 -0.3587
10463TIP3    H152804   1.163   5.858  12.577 -1.3814 -0.0706 -0.3905
10463TIP3    H252805   1.228   5.805  12.451  0.0525 -0.0943  0.3440
10464TIP3   OH252806   3.432   6.116   6.329 -0.4643 -0.1062  0.1785
10464TIP3    H152807   3.516   6.089   6.367 -0.4143 -2.5417 -1.4272
10464TIP3    H252808   3.417   6.204   6.365  2.2408  0.0019  1.3356
10465TIP3   OH252809   3.832   0.581  16.936  0.0268 -0.3320 -0.1943
10465TIP3    H152810   3.819   0.501  16.884 -1.6077 -1.4919  1.8700
10465TIP3    H252811   3.921   0.574  16.969 -0.0325 -1.2188 -0.1996
10466TIP3   OH252812   2.561   1.949  14.821  0.6235  0.3590 -0.3898
10466TIP3    H152813   2.550   1.898  14.740 -0.2757  1.3183 -0.8950
10466TIP3    H252814   2.622   2.018  14.797 -1.7424  2.3588 -1.1546
10467TIP3   OH252815   3.105   2.055   0.587 -0.7986 -0.1153  0.2472
10467TIP3    H152816   3.147   2.102   0.658 -0.4469 -0.5425  0.3232
10467TIP3    H252817   3.026   2.106   0.568 -0.8701  0.0272  0.9069
10468TIP3   OH252818   6.723   4.763   2.809 -0.0194  0.4101 -0.0896
10468TIP3    H152819   6.760   4.695   2.865 -0.8478  1.1333  1.3751
10468TIP3    H252820   6.718   4.840   2.865  0.5750  1.6174 -1.6171
10469TIP3   OH252821   1.105   2.560   5.407  0.2716 -0.1073 -0.1704
10469TIP3    H152822   1.083   2.567   5.314 -1.5199 -0.2482  0.2037
10469TIP3    H252823   1.080   2.644   5.444 -0.1312 -0.4681  0.3874
10470TIP3   OH252824   0.954   4.721   4.949  0.1907  0.0577  0.4519
10470TIP3    H152825   0.939   4.681   5.035 -0.3920  1.6094  1.1115
10470TIP3    H252826   1.021   4.788   4.965 -0.8938  1.2999  0.0283
10471TIP3   OH252827   3.597   3.653   6.375 -0.2220 -0.1862  0.3200
10471TIP3    H152828   3.659   3.724   6.386  0.2815 -0.1666 -2.1320
10471TIP3    H252829   3.517   3.684   6.419  0.0988  1.7378 -0.3525
10472TIP3   OH252830   2.387   1.587  13.736  0.5275 -0.1296  0.1514
10472TIP3    H152831   2.344   1.521  13.681  3.1724 -0.4226 -1.7029
10472TIP3    H252832   2.318   1.651  13.754 -0.7765 -0.6157 -2.5781
10473TIP3   OH252833   4.737   4.354  14.079 -0.3012  0.1646 -0.0897
10473TIP3    H152834   4.784   4.282  14.037  0.2275  0.4446  0.0138
10473TIP3    H252835   4.806   4.411  14.113 -0.7114  0.9004 -0.4765
10474TIP3   OH252836   5.002   3.240   1.786  0.2039 -0.1542 -0.1816
10474TIP3    H152837   4.989   3.226   1.880  1.9957 -0.5024  0.0536
10474TIP3    H252838   4.940   3.181   1.744 -1.2163  0.6217  0.7672
10475TIP3   OH252839   1.829   2.892   6.661 -0.7142  0.7053 -0.3898
10475TIP3    H152840   1.789   2.954   6.600 -0.7185  2.5318  1.3935
10475TIP3    H252841   1.878   2.947   6.723  0.7100 -1.1825  0.2641
10476TIP3   OH252842   2.999   4.232  15.806  0.2215  0.0573 -0.2996
10476TIP3    H152843   2.904   4.229  15.803  0.1210 -1.6490  1.9163
10476TIP3    H252844   3.025   4.262  15.719 -2.3863  4.6481  0.1603
10477TIP3   OH252845   2.500   3.358   4.644 -0.2681  0.2001 -0.1819
10477TIP3    H152846   2.555   3.373   4.722  0.6601  0.6946 -0.9061
10477TIP3    H252847   2.475   3.446   4.616  1.1235  0.1892 -1.6106
10478TIP3   OH252848   0.597   6.201   3.874  0.0328 -0.3112  0.3725
10478TIP3    H152849   0.517   6.219   3.825 -0.8012 -2.2921  0.9302
10478TIP3    H252850   0.651   6.148   3.816  0.1581 -0.4935  0.6510
10479TIP3   OH252851   0.572   2.664   0.338 -0.5456 -0.0195  0.2379
10479TIP3    H152852   0.479   2.672   0.319 -0.4825 -0.9882 -0.6378
10479TIP3    H252853   0.599   2.586   0.288  0.5210 -0.3198  1.2442
10480TIP3   OH252854   2.764   3.656   0.659 -0.1047 -0.3418 -0.1652
10480TIP3    H152855   2.796   3.739   0.695  0.5261  0.9424 -3.3661
10480TIP3    H252856   2.672   3.672   0.637 -0.0488 -0.5635 -0.5755
10481TIP3   OH252857   2.897   2.262  12.112  0.5596 -0.6487  0.1054
10481TIP3    H152858   2.836   2.189  12.112 -2.1524  1.4697  0.5744
10481TIP3    H252859   2.948   2.250  12.032 -1.5363 -1.6972 -1.1634
10482TIP3   OH252860   6.555   2.072   4.489  0.1789 -0.2909  0.4465
10482TIP3    H152861   6.528   2.150   4.441 -0.6505 -0.1365  1.1381
10482TIP3    H252862   6.487   2.008   4.470  1.4598 -1.2811 -1.0846
10483TIP3   OH252863   6.606   5.163   4.496 -0.4907  0.1543  0.1884
10483TIP3    H152864   6.678   5.108   4.463 -1.1208 -0.2471 -0.5356
10483TIP3    H252865   6.600   5.141   4.589  1.6470  1.6665  0.7656
10484TIP3   OH252866   1.144   1.696   5.189  0.6095 -0.4837 -0.1667
10484TIP3    H152867   1.129   1.720   5.280 -1.0465 -0.6439 -0.3505
10484TIP3    H252868   1.141   1.780   5.142 -1.5531 -0.6283 -0.3862
10485TIP3   OH252869   6.350   1.547   4.839 -0.7098  0.5034  0.4915
10485TIP3    H152870   6.388   1.537   4.752 -1.1492 -1.2751  0.4720
10485TIP3    H252871   6.393   1.624   4.875  2.4913 -0.9932  0.2308
10486TIP3   OH252872   5.919   5.902  11.840  0.2008 -1.0961  0.2237
10486TIP3    H152873   5.843   5.946  11.804  1.1192 -0.3284 -0.8178
10486TIP3    H252874   5.938   5.949  11.922  0.3285 -0.4599 -0.1680
10487TIP3   OH252875   5.484   1.375   4.134  0.1266 -0.4369  0.2676
10487TIP3    H152876   5.433   1.426   4.197 -1.7112 -0.3542 -1.2167
10487TIP3    H252877   5.571   1.368   4.174 -0.6987  0.4186  2.3482
10488TIP3   OH252878   5.040   1.531   4.726 -0.0648  0.1440 -0.1581
10488TIP3    H152879   5.101   1.519   4.799 -0.6117 -1.8577  0.0267
10488TIP3    H252880   4.954   1.513   4.763 -0.6161  1.2669 -0.8183
10489TIP3   OH252881   0.787   4.997  17.210 -0.1756  0.3333  0.0809
10489TIP3    H152882   0.788   5.002  17.114  2.0710 -0.4648  0.0075
10489TIP3    H252883   0.879   4.987  17.235 -0.8654 -1.8453  2.1886
10490TIP3   OH252884   0.033   2.661   4.844  0.4719  0.1366 -0.0466
10490TIP3    H152885   0.100   2.700   4.900  0.1800  1.0627 -0.3261
10490TIP3    H252886  -0.036   2.632   4.904  0.3969  0.6510  0.1144
10491TIP3   OH252887   6.680   5.899  11.730  0.0027  0.3293 -0.1942
10491TIP3    H152888   6.713   5.860  11.649 -1.2439 -0.3862 -0.3895
10491TIP3    H252889   6.758   5.931  11.775  0.8398 -0.3766 -1.1003
10492TIP3   OH252890   3.604   4.952   4.684  0.6207  0.2762 -0.4506
10492TIP3    H152891   3.557   4.939   4.766  0.5967  0.5005 -0.4306
10492TIP3    H252892   3.565   4.888   4.624 -0.6516  1.3734 -0.8341
10493TIP3   OH252893   1.809   6.034   5.826 -0.0927  0.1251 -0.0054
10493TIP3    H152894   1.885   5.977   5.812 -0.7907 -1.5601  2.3615
10493TIP3    H252895   1.827   6.079   5.908 -0.4402  1.9184 -0.8687
10494TIP3   OH252896   2.614   0.447   0.091 -0.1737  0.2432 -0.2104
10494TIP3    H152897   2.633   0.539   0.111  0.8046  0.3307 -1.4024
10494TIP3    H252898   2.700   0.408   0.077 -0.6594 -0.3873 -1.6162
10495TIP3   OH252899   1.884   6.360  14.109  0.1183  0.2026 -0.1449
10495TIP3    H152900   1.977   6.358  14.128  0.1287 -1.7312 -0.2295
10495TIP3    H252901   1.857   6.268  14.107 -1.6160  0.6734 -0.9582
10496TIP3   OH252902   2.737   0.047   4.831 -0.3756  0.4053 -0.5892
10496TIP3    H152903   2.719   0.118   4.892 -0.2527 -0.6314  0.6957
10496TIP3    H252904   2.830   0.054   4.812 -0.5455  1.1392 -1.2224
10497TIP3   OH252905   4.702   4.095  16.546  0.3506 -0.2419 -0.1818
10497TIP3    H152906   4.666   4.171  16.500 -0.1085 -0.1179  0.3751
10497TIP3    H252907   4.646   4.022  16.520 -0.5762  0.0155  0.9666
10498TIP3   OH252908   2.798   4.833   5.570 -0.1302 -0.2700 -0.6757
10498TIP3    H152909   2.715   4.806   5.531 -0.4658 -0.5160  0.1756
10498TIP3    H252910   2.779   4.838   5.664  0.5509  0.6531 -0.5709
10499TIP3   OH252911   5.181   2.412  13.668  0.0093  0.0260 -0.2282
10499TIP3    H152912   5.202   2.413  13.761  1.1626 -2.6126 -0.3584
10499TIP3    H252913   5.223   2.491  13.633  0.5309  0.4608  1.3149
10500TIP3   OH252914   6.300   0.036  13.213 -0.7654 -0.3517 -0.2718
10500TIP3    H152915   6.227   0.056  13.155 -0.2324 -3.3486 -2.2131
10500TIP3    H252916   6.263  -0.020  13.281 -0.8518  0.8762  0.7262
10501TIP3   OH252917   3.425   2.449  12.279 -0.0468  0.4915 -0.1100
10501TIP3    H152918   3.490   2.495  12.332 -1.1276  2.0058 -0.0498
10501TIP3    H252919   3.390   2.516  12.220 -2.6624  0.1336  0.9101
10502TIP3   OH252920   6.588   3.326  15.423 -0.7306  0.2422 -0.7229
10502TIP3    H152921   6.654   3.308  15.355 -1.1987 -1.1798 -0.8286
10502TIP3    H252922   6.628   3.394  15.477  0.9100 -0.6871 -0.7034
10503TIP3   OH252923   5.140   1.134   5.191 -0.4302 -0.2231 -0.2793
10503TIP3    H152924   5.073   1.108   5.128  0.6163 -0.7048 -1.2253
10503TIP3    H252925   5.161   1.054   5.240 -0.6975 -0.0242  0.1671
10504TIP3   OH252926   3.328   3.000   5.175  0.1015 -0.0331 -0.2092
10504TIP3    H152927   3.274   2.967   5.247 -1.6974 -0.8444 -1.8285
10504TIP3    H252928   3.384   2.926   5.152  0.0499 -0.0721 -0.2103
10505TIP3   OH252929   2.351   6.291   0.324  0.0196 -0.0504 -0.2688
10505TIP3    H152930   2.378   6.363   0.268  0.7813  1.3568  1.8042
10505TIP3    H252931   2.411   6.220   0.303  0.7888  0.7061 -0.6709
10506TIP3   OH252932   5.282   6.398  13.962 -0.0659  0.0032  0.3388
10506TIP3    H152933   5.322   6.484  13.948 -0.4798  0.1114 -0.2149
10506TIP3    H252934   5.195   6.404  13.922 -0.2015 -0.5942  0.5172
10507TIP3   OH252935   0.029   1.020   1.758  0.4734 -0.4324  0.3872
10507TIP3    H152936  -0.002   0.932   1.734 -1.3049 -0.3025  2.0028
10507TIP3    H252937   0.116   1.026   1.718 -0.0429 -2.2793 -1.1727
10508TIP3   OH252938   5.484   1.736  16.381 -0.6366 -0.1971 -0.0554
10508TIP3    H152939   5.445   1.749  16.294  1.6686 -1.1756 -1.3398
10508TIP3    H252940   5.495   1.641  16.388 -1.3182 -0.1848  1.5978
10509TIP3   OH252941   2.890   1.476  11.156 -0.2313 -0.9397 -1.0433
10509TIP3    H152942   2.968   1.434  11.190  0.6748  1.3722 -0.0376
10509TIP3    H252943   2.903   1.478  11.061  0.9938 -0.4813 -0.8723
10510TIP3   OH252944   5.400   1.167  11.795  0.6101  0.2416 -0.1869
10510TIP3    H152945   5.318   1.168  11.745  0.8461 -0.1162 -0.5915
10510TIP3    H252946   5.377   1.127  11.879  0.3227  0.3532 -0.2123
10511TIP3   OH252947   6.389   3.724   1.764  0.2585  0.4578  0.0679
10511TIP3    H152948   6.452   3.792   1.788  0.1300 -0.0443  2.0729
10511TIP3    H252949   6.303   3.762   1.786 -0.0254  0.5516 -1.1514
10512TIP3   OH252950   1.005   6.657   3.664 -0.3879  0.4475  0.1669
10512TIP3    H152951   1.087   6.702   3.639 -0.2255  0.4051  0.6177
10512TIP3    H252952   0.989   6.597   3.592 -0.2990  0.8239 -0.1737
10513TIP3   OH252953   4.131   1.220   1.573 -0.4730  0.0160 -0.0056
10513TIP3    H152954   4.097   1.132   1.588  0.6918 -0.8429 -1.9656
10513TIP3    H252955   4.200   1.230   1.639  0.8511 -1.4392 -1.1080
10514TIP3   OH252956   4.372   3.139  15.837  0.1483  0.4393 -0.1495
10514TIP3    H152957   4.343   3.048  15.851 -0.0460  0.4063 -0.7410
10514TIP3    H252958   4.348   3.184  15.919 -0.9378  0.2449 -0.3349
10515TIP3   OH252959   0.564   2.007  16.093 -0.0994 -0.6408  0.1285
10515TIP3    H152960   0.658   1.989  16.092  0.3654  1.3049  1.9624
10515TIP3    H252961   0.547   2.052  16.011  0.6575 -0.6214 -0.0228
10516TIP3   OH252962   0.263   4.650  15.349 -0.0518  0.6882 -0.7342
10516TIP3    H152963   0.299   4.650  15.260  2.4381  0.5773  0.2050
10516TIP3    H252964   0.331   4.688  15.403 -0.4275 -1.5760  1.5294
10517TIP3   OH252965   6.597   2.705  12.437  0.1727 -0.0500 -0.2351
10517TIP3    H152966   6.541   2.782  12.431  0.0161 -0.1604 -0.1830
10517TIP3    H252967   6.607   2.690  12.531  0.1419 -0.1378 -0.2460
10518TIP3   OH252968   4.356   5.744   5.709 -0.5529 -0.4544 -0.1246
10518TIP3    H152969   4.401   5.827   5.697 -0.5517 -0.5120 -0.5507
10518TIP3    H252970   4.266   5.761   5.680 -0.2451 -0.9239 -1.4473
10519TIP3   OH252971   1.817   2.555   4.151 -0.1971  0.2421  0.1971
10519TIP3    H152972   1.833   2.473   4.199 -2.5929 -0.2884  0.2489
10519TIP3    H252973   1.904   2.587   4.127  0.9636 -0.7662  2.7316
10520TIP3   OH252974   3.577   2.441   3.274 -0.1837  0.1805  0.3792
10520TIP3    H152975   3.494   2.481   3.302 -0.2503 -0.0140  0.4598
10520TIP3    H252976   3.583   2.463   3.181 -0.6910 -0.4249  0.1955
10521TIP3   OH252977   5.673   1.049   1.005 -0.1924 -0.3392  0.1599
10521TIP3    H152978   5.581   1.041   0.980 -0.0952  0.6811 -0.5748
10521TIP3    H252979   5.673   1.030   1.099 -0.9686 -1.4985 -0.0473
10522TIP3   OH252980   5.114   1.046   1.547 -0.7298 -0.2874  0.0473
10522TIP3    H152981   5.036   1.101   1.558  0.4226  1.4894 -0.1875
10522TIP3    H252982   5.140   1.061   1.456 -0.7225 -1.7356 -0.2036
10523TIP3   OH252983   3.622   0.833   2.475  0.0974 -0.2070 -0.1863
10523TIP3    H152984   3.614   0.851   2.381 -2.3627 -0.5966 -0.1195
10523TIP3    H252985   3.647   0.740   2.479 -1.4925 -0.6827 -0.5033
10524TIP3   OH252986   0.621   4.952  12.012 -0.3994 -0.2521  0.1136
10524TIP3    H152987   0.570   4.880  12.048  0.3087 -0.6788  0.2706
10524TIP3    H252988   0.573   4.979  11.933 -1.3262 -0.0788  0.7181
10525TIP3   OH252989   5.174   6.412  14.260 -0.6349  0.1613  0.1500
10525TIP3    H152990   5.081   6.409  14.238 -0.8777  2.1460  0.7024
10525TIP3    H252991   5.219   6.394  14.177 -1.4341 -2.3433  0.1635
10526TIP3   OH252992   5.369   1.049  12.037 -0.7616  0.4141  0.0291
10526TIP3    H152993   5.377   0.994  12.114  0.1213 -1.6852 -1.4624
10526TIP3    H252994   5.297   1.109  12.057 -0.7465 -0.2408  2.3280
10527TIP3   OH252995   0.068   5.494  14.789  0.0814 -0.1916 -0.1109
10527TIP3    H152996   0.036   5.426  14.848  1.2902 -0.5561  0.1457
10527TIP3    H252997   0.039   5.576  14.829  1.8983 -0.3555  1.6846
10528TIP3   OH252998   5.724   0.682   1.197  0.0522 -0.1272 -0.0017
10528TIP3    H152999   5.740   0.623   1.123 -0.7257  0.8196 -0.9568
10528TIP3    H253000   5.707   0.624   1.271  0.3256 -1.0964 -0.6864
10529TIP3   OH253001   4.725   3.583  11.656 -0.3753 -0.1115  0.2420
10529TIP3    H153002   4.818   3.585  11.678  0.0160  0.9722 -1.2902
10529TIP3    H253003   4.688   3.659  11.700 -0.0206  0.8184 -0.9847
10530TIP3   OH253004   0.655   2.693  15.287  0.2553 -0.1972  0.1727
10530TIP3    H153005   0.692   2.679  15.200  1.5147  2.0163  0.2721
10530TIP3    H253006   0.560   2.685  15.275  0.4109  0.1304 -1.4335
10531TIP3   OH253007   0.558   5.503  14.807  0.1024  0.1292  0.4801
10531TIP3    H153008   0.650   5.527  14.802 -0.1486  1.0785  0.3832
10531TIP3    H253009   0.513   5.582  14.838 -0.7407 -0.1724  0.0650
10532TIP3   OH253010   2.511   3.069  15.299  0.2308 -0.3734  0.4477
10532TIP3    H153011   2.445   3.060  15.369  1.1278 -0.4183  1.3135
10532TIP3    H253012   2.590   3.028  15.336  0.2890 -1.9015 -1.2325
10533TIP3   OH253013   5.977   4.316   3.410 -0.2901 -0.3890 -0.0498
10533TIP3    H153014   5.999   4.274   3.327  1.0351  1.1546 -0.5459
10533TIP3    H253015   5.961   4.407   3.387 -0.2723 -0.0132  1.3484
10534TIP3   OH253016   4.414   0.014  16.871 -0.8988 -0.3220 -0.1032
10534TIP3    H153017   4.377  -0.067  16.835  0.5674 -0.1126 -2.2795
10534TIP3    H253018   4.406   0.078  16.800 -1.6515  1.3713  1.4254
10535TIP3   OH253019   1.033   2.620   0.237  0.1090  0.1083 -0.0887
10535TIP3    H153020   1.129   2.621   0.228  0.0751  0.0672 -0.4819
10535TIP3    H253021   1.008   2.712   0.231  0.0467  0.0429 -0.9050
10536TIP3   OH253022   6.232   0.843  15.242 -0.0801  0.6106 -0.3106
10536TIP3    H153023   6.190   0.795  15.171  0.3165 -0.7411  0.3441
10536TIP3    H253024   6.321   0.810  15.245 -0.0194  0.8140  0.6596
10537TIP3   OH253025   5.006   1.446   1.920 -0.4515 -0.3258 -0.2102
10537TIP3    H153026   4.984   1.539   1.930  1.0549 -0.0560  1.0071
10537TIP3    H253027   4.980   1.406   2.003 -2.0335 -1.2426 -1.0998
10538TIP3   OH253028   2.999   1.685  11.312  0.5766 -0.1402 -0.6721
10538TIP3    H153029   3.069   1.682  11.247  1.4274 -1.3188  0.2511
10538TIP3    H253030   2.936   1.620  11.282 -0.3428  1.1579 -1.6866
10539TIP3   OH253031   5.178   3.744   0.400 -0.2545  0.3187  0.0276
10539TIP3    H153032   5.105   3.775   0.347 -0.8238  0.9944  1.1688
10539TIP3    H253033   5.147   3.752   0.490  0.3301 -1.7001  0.4613
10540TIP3   OH253034   4.591   2.560   4.843 -0.8777  0.2401  0.1198
10540TIP3    H153035   4.605   2.497   4.913  0.1188 -0.7649 -0.9554
10540TIP3    H253036   4.505   2.536   4.807  0.0105 -1.3108 -1.0597
10541TIP3   OH253037   0.070   2.485   5.317  0.5460  0.0202 -0.2776
10541TIP3    H153038   0.145   2.486   5.377 -1.0412 -0.1992  1.8401
10541TIP3    H253039   0.083   2.408   5.263  1.6603 -0.2091  0.2915
10542TIP3   OH253040   1.975   1.052   1.497  0.0906 -0.2728 -0.2085
10542TIP3    H153041   1.902   1.065   1.557 -0.7342 -0.7017 -1.0887
10542TIP3    H253042   2.016   0.971   1.525  0.0288 -0.1971  0.0987
10543TIP3   OH253043   1.753   2.482   1.292  0.6167 -0.1146  0.2677
10543TIP3    H153044   1.658   2.479   1.283  0.6765 -0.1691 -0.3913
10543TIP3    H253045   1.769   2.556   1.351  0.2084  0.4620 -0.3248
10544TIP3   OH253046   1.751   3.045  12.732 -0.2616  0.2975 -0.3476
10544TIP3    H153047   1.680   3.051  12.668  0.0266 -1.7955 -0.9450
10544TIP3    H253048   1.716   2.987  12.800  0.9092 -0.9485 -0.7625
10545TIP3   OH253049   0.387   2.734  15.285 -0.2016  0.3587 -0.4525
10545TIP3    H153050   0.391   2.815  15.235 -0.1610 -0.1640 -1.3207
10545TIP3    H253051   0.369   2.762  15.375  0.6298  1.3635 -0.5884
10546TIP3   OH253052   0.519   4.708  13.437  0.2843  0.6733  0.2920
10546TIP3    H153053   0.530   4.706  13.532 -2.2905 -0.9184  0.6366
10546TIP3    H253054   0.569   4.632  13.406 -2.8254 -1.8708  1.0154
10547TIP3   OH253055   2.921   0.301   4.408 -0.7129 -0.3613 -0.1626
10547TIP3    H153056   2.902   0.342   4.492 -1.1832  0.3198 -0.5951
10547TIP3    H253057   2.952   0.373   4.352  0.8218 -1.0190 -0.2095
10548TIP3   OH253058   5.038   2.386  17.363  0.1111 -0.1201 -1.3323
10548TIP3    H153059   5.041   2.429  17.277  0.7903 -1.4130 -1.9759
10548TIP3    H253060   5.065   2.455  17.425  0.2322  0.6482 -2.2214
10549TIP3   OH253061   4.925   6.228  10.773  0.1026 -0.4949  0.3887
10549TIP3    H153062   4.886   6.142  10.760  0.8008 -0.6850 -0.5535
10549TIP3    H253063   4.855   6.280  10.813 -0.7761 -1.1065 -0.3108
10550TIP3   OH253064   0.500   0.456  16.886  0.4754  0.0345 -0.1171
10550TIP3    H153065   0.492   0.469  16.980 -0.4767  0.5399 -0.2571
10550TIP3    H253066   0.453   0.374  16.869 -1.5019  1.1774 -0.4571
10551TIP3   OH253067   1.099   6.476  16.583  0.5720  0.0423 -0.0255
10551TIP3    H153068   1.154   6.465  16.506 -1.3459 -0.9620 -1.3372
10551TIP3    H253069   1.099   6.570  16.600  1.1421  0.2637 -1.1678
10552TIP3   OH253070   4.361   3.145  14.727 -0.3604 -0.3727  0.6552
10552TIP3    H153071   4.442   3.190  14.704  0.7864 -1.2583  2.6526
10552TIP3    H253072   4.321   3.122  14.643  1.1299  0.6277 -0.3793
10553TIP3   OH253073   0.615   4.954  11.443  0.2384  0.1087  0.0398
10553TIP3    H153074   0.636   4.927  11.532  3.3724  0.5368 -0.4603
10553TIP3    H253075   0.562   4.883  11.407  1.0226 -1.2305  1.4510
10554TIP3   OH253076   4.048   6.442  12.518  0.0164 -0.0918  0.1487
10554TIP3    H153077   4.015   6.518  12.469 -3.3549 -0.3617  1.7252
10554TIP3    H253078   4.021   6.459  12.609 -0.1285 -2.7914  0.6810
10555TIP3   OH253079   3.238   3.401  14.688 -0.3623 -0.3019  0.3111
10555TIP3    H153080   3.257   3.470  14.753 -0.5045  0.8455 -0.8189
10555TIP3    H253081   3.252   3.319  14.735  1.5826  0.4787  1.2059
10556TIP3   OH253082   3.922   2.368   0.429  0.1905  0.1206 -0.0516
10556TIP3    H153083   3.942   2.357   0.521 -2.2944 -0.3336  0.5010
10556TIP3    H253084   3.922   2.463   0.416  1.0375  0.1694  0.2836
10557TIP3   OH253085   1.425   5.239   3.949  0.5438 -0.1196  0.2816
10557TIP3    H153086   1.450   5.310   4.008 -0.0566 -0.9195  1.5313
10557TIP3    H253087   1.503   5.224   3.896  0.1014  2.7278 -1.3748
10558TIP3   OH253088   0.328   1.128   3.637 -0.4935  0.1222  0.8025
10558TIP3    H153089   0.303   1.199   3.696  0.3449 -0.1502  1.5088
10558TIP3    H253090   0.346   1.171   3.553 -2.2759  0.4398  0.5523
10559TIP3   OH253091   6.244   2.917   1.837 -0.1119 -0.1039 -0.0083
10559TIP3    H153092   6.249   3.010   1.862 -1.0587 -0.4192  1.4956
10559TIP3    H253093   6.153   2.904   1.812  0.3215 -0.3390 -1.5320
10560TIP3   OH253094   4.684   6.110   5.606  0.2174  0.1139  0.3042
10560TIP3    H153095   4.753   6.165   5.568  0.0239  0.6337  0.6905
10560TIP3    H253096   4.677   6.036   5.546  1.6117 -0.3183  0.6319
10561TIP3   OH253097   4.251   2.492  16.693 -0.3132 -0.0528 -0.1720
10561TIP3    H153098   4.320   2.485  16.759 -0.6678  0.9665  0.3432
10561TIP3    H253099   4.251   2.585  16.668 -0.6655 -0.2855 -1.0809
10562TIP3   OH253100   3.521   4.705  11.319  0.3114 -0.7059 -0.2695
10562TIP3    H153101   3.470   4.708  11.238  0.7278 -0.0167 -0.5054
10562TIP3    H253102   3.577   4.628  11.309  1.5729  0.3261 -1.3699
10563TIP3   OH253103   5.836   4.579  12.811 -0.1115 -0.3877  0.2409
10563TIP3    H153104   5.774   4.652  12.815 -1.1354 -1.2866  1.2373
10563TIP3    H253105   5.818   4.527  12.889  0.6351 -1.6915 -0.4189
10564TIP3   OH253106   0.369   2.548  10.828 -0.3567  0.6415  0.4267
10564TIP3    H153107   0.281   2.582  10.842 -1.5160 -1.6653 -0.8648
10564TIP3    H253108   0.381   2.550  10.733 -0.5734 -2.5472  0.2339
10565TIP3   OH253109   3.027   6.413  14.757 -0.1520  0.2418 -0.0134
10565TIP3    H153110   3.085   6.478  14.798 -0.6589 -1.8202  4.6194
10565TIP3    H253111   3.086   6.360  14.703  1.2621  1.2567  0.4353
10566TIP3   OH253112   6.381   6.540  12.773  0.9285 -0.2695  0.0374
10566TIP3    H153113   6.475   6.537  12.754  0.8476 -0.4149 -0.3461
10566TIP3    H253114   6.376   6.529  12.868  1.4412  2.2208  0.4283
10567TIP3   OH253115   3.920   2.611  14.166  0.0517  0.2036  0.1577
10567TIP3    H153116   4.002   2.562  14.175  0.3806  0.8153  0.5463
10567TIP3    H253117   3.905   2.614  14.071  0.1774 -0.3962  0.1140
10568TIP3   OH253118   4.585   0.999   5.250  0.1392 -0.2714 -0.1986
10568TIP3    H153119   4.499   0.967   5.221  0.2967 -1.1872  0.2952
10568TIP3    H253120   4.578   1.004   5.345  1.0988 -1.9052  0.0168
10569TIP3   OH253121   3.892   1.955   5.640  0.6295 -0.3268  0.2737
10569TIP3    H153122   3.971   1.907   5.615 -0.6112 -1.4229 -1.8144
10569TIP3    H253123   3.907   2.044   5.608  1.5369 -0.1616  1.1049
10570TIP3   OH253124   4.306   0.191   4.336 -0.6325 -0.3719  0.0670
10570TIP3    H153125   4.371   0.140   4.287  1.2394  0.0089  2.0058
10570TIP3    H253126   4.229   0.134   4.341 -0.3583 -0.9967 -1.9662
10571TIP3   OH253127   5.378   6.279   0.049  0.0625 -0.3870  0.4668
10571TIP3    H153128   5.444   6.219   0.014 -0.8143 -1.4596  0.6083
10571TIP3    H253129   5.335   6.229   0.119 -2.4348 -0.5939 -1.0932
10572TIP3   OH253130   2.885   5.973   4.522 -0.3370  0.1464 -0.7716
10572TIP3    H153131   2.825   5.929   4.581 -0.9030  0.0493 -1.4108
10572TIP3    H253132   2.884   6.065   4.551  1.3305 -0.3248  0.9633
10573TIP3   OH253133   5.514   4.569  13.984 -0.1767  0.9292 -0.3209
10573TIP3    H153134   5.556   4.562  14.070  1.2049  1.7395 -0.8994
10573TIP3    H253135   5.440   4.629  13.998 -1.0299 -0.2921  0.6495
10574TIP3   OH253136   1.975   0.987  15.804  0.3668  0.0790  0.0832
10574TIP3    H153137   2.021   1.071  15.802 -1.0488  0.8826  0.3441
10574TIP3    H253138   2.001   0.948  15.888  0.4453  0.5933  0.3028
10575TIP3   OH253139   6.470   2.962   3.311  0.5112 -0.0852 -0.0592
10575TIP3    H153140   6.488   2.877   3.270  0.6806 -0.7653  1.3639
10575TIP3    H253141   6.457   2.941   3.403 -1.9759  1.0905 -0.0636
10576TIP3   OH253142   3.307   2.809  13.071 -0.3964  0.5397  0.0490
10576TIP3    H153143   3.314   2.903  13.051 -0.3323  0.3497 -0.8524
10576TIP3    H253144   3.280   2.769  12.988 -2.3902  0.0038  0.9263
10577TIP3   OH253145   2.343   1.163  14.814 -0.1425 -0.6178  0.1990
10577TIP3    H153146   2.284   1.090  14.796  0.9282 -1.6816  0.8436
10577TIP3    H253147   2.286   1.240  14.815 -1.2512 -1.3803 -0.8230
10578TIP3   OH253148   3.729   4.931  15.247 -0.5134 -0.5315 -0.0248
10578TIP3    H153149   3.758   5.022  15.247  1.3913 -1.0385 -2.5028
10578TIP3    H253150   3.788   4.886  15.307 -0.1428 -0.4755 -0.3456
10579TIP3   OH253151   1.526   0.904   3.167  0.3454 -0.0479  0.5476
10579TIP3    H153152   1.434   0.882   3.172  0.3961 -0.8376 -1.2042
10579TIP3    H253153   1.558   0.856   3.090  2.8545 -2.0035  2.6400
10580TIP3   OH253154   6.632   6.369   3.327  0.3326  0.4643 -0.0312
10580TIP3    H153155   6.722   6.395   3.346  0.5236 -0.6124  0.6241
10580TIP3    H253156   6.578   6.425   3.382  0.7020 -0.0386  0.8725
10581TIP3   OH253157   3.333   6.152   3.896 -0.5126  0.2449 -0.2632
10581TIP3    H153158   3.390   6.153   3.820  1.6208 -1.2062  1.2199
10581TIP3    H253159   3.340   6.063   3.931 -1.1637  0.9379  1.7894
10582TIP3   OH253160   0.513   2.164  11.908  0.6619  0.9709 -0.1709
10582TIP3    H153161   0.608   2.163  11.924  0.6110 -0.0350  0.1481
10582TIP3    H253162   0.504   2.200  11.820  1.2883  1.8002  0.0921
10583TIP3   OH253163   0.074   0.888   5.100  0.4918 -0.0768 -0.9130
10583TIP3    H153164   0.043   0.938   5.025  0.5581  0.7798 -0.3798
10583TIP3    H253165   0.009   0.819   5.111 -2.0967  2.4205  0.9755
10584TIP3   OH253166   3.854   3.718   0.159  0.4854  0.5088 -0.4489
10584TIP3    H153167   3.821   3.628   0.156  1.7066 -0.0461  1.0174
10584TIP3    H253168   3.798   3.767   0.100 -0.9113 -0.9997 -0.4357
10585TIP3   OH253169   2.581   3.040  16.081  0.8623 -0.3844 -0.4022
10585TIP3    H153170   2.623   2.954  16.089 -0.0181 -0.8959 -1.0329
10585TIP3    H253171   2.574   3.071  16.171  0.9347 -1.1134 -0.1329
10586TIP3   OH253172   1.970   0.429   0.698  0.4686  0.3734  0.0823
10586TIP3    H153173   1.911   0.362   0.663 -0.0140  0.8171  0.0463
10586TIP3    H253174   1.936   0.448   0.785  1.4112 -0.4099  0.6542
10587TIP3   OH253175   5.493   2.190   4.861 -0.5435  0.7337  0.5955
10587TIP3    H153176   5.542   2.271   4.845 -0.5661  0.6430  0.0697
10587TIP3    H253177   5.488   2.147   4.776 -2.1916  1.0945  0.4816
10588TIP3   OH253178   3.504   2.555  12.872 -0.7265  0.1452 -0.1649
10588TIP3    H153179   3.570   2.561  12.941  3.6196  0.4953 -3.8522
10588TIP3    H253180   3.467   2.467  12.883  0.8859 -0.3914  1.7186
10589TIP3   OH253181   6.005   4.487   4.546  0.1919  0.7518  0.3867
10589TIP3    H153182   5.928   4.433   4.525 -0.3467  1.4969  0.4142
10589TIP3    H253183   5.983   4.574   4.513  1.9820  0.4807 -1.7141
10590TIP3   OH253184   0.636   5.012   2.720 -0.4504  0.2906 -0.0959
10590TIP3    H153185   0.714   5.016   2.664 -0.3036  1.0386  0.1522
10590TIP3    H253186   0.669   4.980   2.804 -0.4640  0.2903 -0.0906
10591TIP3   OH253187   1.360   4.075  12.281  0.0107 -0.1461  1.0607
10591TIP3    H153188   1.284   4.030  12.318  0.6633 -0.5323  1.9509
10591TIP3    H253189   1.323   4.135  12.216 -1.1143  0.1517  1.9485
10592TIP3   OH253190   6.662   1.378   2.038 -0.4555  0.3945 -0.0278
10592TIP3    H153191   6.572   1.346   2.047  0.0011 -0.6264  1.0967
10592TIP3    H253192   6.688   1.403   2.127  0.2281  1.1109 -0.4169
10593TIP3   OH253193   5.767   0.700  11.553  0.1806  0.2050  0.0469
10593TIP3    H153194   5.787   0.793  11.542  1.4551 -0.2452 -2.0446
10593TIP3    H253195   5.755   0.668  11.464  0.7011 -1.8341  0.6604
10594TIP3   OH253196   3.031   4.860  14.414  0.1925  0.0090  0.6440
10594TIP3    H153197   3.063   4.782  14.460  2.2913 -0.1799 -0.9916
10594TIP3    H253198   3.110   4.910  14.393 -0.7922  0.8502 -1.3506
10595TIP3   OH253199   4.006   6.716   3.334 -0.2862  0.4496  0.1316
10595TIP3    H153200   3.988   6.799   3.378  1.8341  0.8214  0.4274
10595TIP3    H253201   4.059   6.667   3.397 -0.6343 -0.7157 -0.4495
10596TIP3   OH253202   6.025   3.067   3.754  0.1328  0.0786  0.4538
10596TIP3    H153203   6.008   3.130   3.824 -1.5227  0.3132 -0.1203
10596TIP3    H253204   5.988   2.985   3.785  1.8666 -0.5423  0.9979
10597TIP3   OH253205   3.955   6.519  15.643  0.0236  0.3892 -0.0328
10597TIP3    H153206   3.862   6.536  15.635 -0.6340 -2.3503  0.6768
10597TIP3    H253207   3.979   6.477  15.560  0.6863  1.2700 -0.2962
10598TIP3   OH253208   2.090   4.072  14.428  0.4178 -0.1346 -0.6523
10598TIP3    H153209   2.002   4.055  14.396  0.3867  0.1491 -0.7153
10598TIP3    H253210   2.098   4.016  14.505 -0.0457  0.3104 -0.2691
10599TIP3   OH253211   2.211   6.434  17.054 -0.0841 -0.4272 -0.1974
10599TIP3    H153212   2.166   6.491  16.992  1.8163  0.9452 -0.3777
10599TIP3    H253213   2.228   6.353  17.005 -1.0792 -0.4517 -0.5374
10600TIP3   OH253214   2.671   3.350   2.984  0.2852  0.3611 -0.1258
10600TIP3    H153215   2.703   3.267   3.019  1.1599  1.5778  2.1927
10600TIP3    H253216   2.744   3.384   2.933  0.5003  0.3958  0.2013
10601TIP3   OH253217   2.362   0.291  12.266 -0.2355 -0.3798 -0.6052
10601TIP3    H153218   2.295   0.342  12.311  1.1137  0.7540  0.1986
10601TIP3    H253219   2.313   0.236  12.204 -1.8703  0.5161 -0.1648
10602TIP3   OH253220   2.125   1.551   2.220  0.1821  0.2811  0.7523
10602TIP3    H153221   2.165   1.513   2.142 -0.2900  3.0961 -1.0103
10602TIP3    H253222   2.032   1.526   2.214 -0.0032  1.0931 -0.0594
10603TIP3   OH253223   1.658   2.849  11.460  0.1042  0.0887  0.3789
10603TIP3    H153224   1.593   2.780  11.473  1.7583 -1.5100  0.5576
10603TIP3    H253225   1.658   2.864  11.365  2.2253 -2.8391 -0.2211
10604TIP3   OH253226   1.901   2.505  14.155  0.7936 -0.1208  0.6138
10604TIP3    H153227   1.902   2.589  14.201  0.5854  0.5508 -0.5594
10604TIP3    H253228   1.980   2.506  14.101  0.8015 -0.7005  0.6082
10605TIP3   OH253229   2.856   1.184  17.136 -0.2332 -0.0494 -0.5203
10605TIP3    H153230   2.935   1.179  17.190 -0.4304  2.3865  0.0825
10605TIP3    H253231   2.786   1.204  17.198 -1.3407 -1.9256 -1.0797
10606TIP3   OH253232   0.118   5.085  16.879 -0.4792  0.0721  0.7772
10606TIP3    H153233   0.174   5.007  16.880 -1.4262 -0.6226  1.9003
10606TIP3    H253234   0.111   5.111  16.970 -0.8727  0.9695  0.4975
10607TIP3   OH253235   6.641   4.939  17.357  0.2423 -0.5432 -0.0951
10607TIP3    H153236   6.723   4.891  17.371 -0.0215 -1.1492 -0.5741
10607TIP3    H253237   6.573   4.878  17.384 -0.0228  0.8146  2.7224
10608TIP3   OH253238   0.443   4.632   1.871  0.4247 -0.2395  0.4561
10608TIP3    H153239   0.489   4.555   1.837 -0.0710 -1.0178  1.4928
10608TIP3    H253240   0.366   4.596   1.915 -1.0203  0.9953 -0.9115
10609TIP3   OH253241   4.182   0.313  14.258  0.3802  0.3108 -0.3547
10609TIP3    H153242   4.222   0.371  14.323  2.2449 -1.3566  0.0907
10609TIP3    H253243   4.247   0.305  14.188  1.1011 -2.6334  0.4837
10610TIP3   OH253244   4.306   5.224   0.588  0.2936 -0.4097 -0.1179
10610TIP3    H153245   4.363   5.147   0.589 -0.2538 -0.8623  2.2667
10610TIP3    H253246   4.315   5.261   0.676 -1.2009  0.9191 -0.4952
10611TIP3   OH253247   2.705   4.174  14.595 -0.2584 -0.1368 -0.1525
10611TIP3    H153248   2.630   4.187  14.537  0.7144 -0.4735 -1.5336
10611TIP3    H253249   2.775   4.145  14.537  1.2521  1.1660  0.9311
10612TIP3   OH253250   1.830   1.415  12.322 -0.2321  0.0157  0.0439
10612TIP3    H153251   1.831   1.357  12.397  0.3987 -0.5872 -0.4123
10612TIP3    H253252   1.912   1.465  12.329  0.0006 -0.2917 -0.4223
10613TIP3   OH253253   1.525   6.689   5.161 -0.3675 -0.1072 -0.1482
10613TIP3    H153254   1.610   6.645   5.170 -0.0314  0.4007 -0.7545
10613TIP3    H253255   1.547   6.781   5.146 -1.0411  0.1049  0.1290
10614TIP3   OH253256   2.907   1.287   2.143  0.2450 -0.2980 -0.2943
10614TIP3    H153257   2.939   1.365   2.097 -0.9439  1.9593  2.3608
10614TIP3    H253258   2.838   1.253   2.087  0.6241  0.7128 -1.4304
10615TIP3   OH253259   0.759   4.866   2.281  0.0857  0.1817  0.8461
10615TIP3    H153260   0.809   4.794   2.318  0.5410 -0.2951 -0.6466
10615TIP3    H253261   0.684   4.824   2.238  0.0829  0.6325  0.3993
10616TIP3   OH253262   0.414   3.580  13.310  0.0000 -0.2570 -0.6298
10616TIP3    H153263   0.377   3.633  13.240  0.0294 -0.2368 -0.6304
10616TIP3    H253264   0.509   3.587  13.298  0.0279  0.4153 -0.0920
10617TIP3   OH253265   2.524   5.968  16.920 -0.0093 -0.2024 -0.4960
10617TIP3    H153266   2.497   5.971  17.012  0.8473  0.7312 -0.2521
10617TIP3    H253267   2.573   5.886  16.912  2.4616  1.0317  0.6888
10618TIP3   OH253268   6.586   3.148   1.379  0.0304 -0.3550 -0.1610
10618TIP3    H153269   6.553   3.059   1.390 -0.9186 -0.4469 -3.0630
10618TIP3    H253270   6.512   3.204   1.404  0.0451 -0.3959 -0.0198
10619TIP3   OH253271   1.812   3.770   6.498 -0.6302 -0.1407  0.5496
10619TIP3    H153272   1.813   3.736   6.587 -2.5344 -0.8947  0.3294
10619TIP3    H253273   1.822   3.865   6.508  1.5554 -0.4008  1.3643
10620TIP3   OH253274   6.679   4.356  13.476 -0.1045  0.3090 -0.5162
10620TIP3    H153275   6.675   4.292  13.547 -0.3621 -0.7274 -1.4442
10620TIP3    H253276   6.706   4.438  13.519  2.2772 -0.8596  0.4196
10621TIP3   OH253277   5.940   2.181   2.473  0.1352  0.2028 -0.6319
10621TIP3    H153278   5.958   2.159   2.565  1.9992 -0.0483 -1.0088
10621TIP3    H253279   5.917   2.274   2.475 -0.1965  0.1108  0.1353
10622TIP3   OH253280   3.909   6.738   5.062 -0.0114 -0.4141  0.3961
10622TIP3    H153281   3.983   6.798   5.074 -0.7621  0.8714 -1.1683
10622TIP3    H253282   3.921   6.703   4.974 -1.5149  0.1827 -0.0696
10623TIP3   OH253283   4.402   4.897  16.100 -0.5450  0.3786  1.0038
10623TIP3    H153284   4.399   4.885  16.005  1.9991  2.1544  0.6147
10623TIP3    H253285   4.419   4.809  16.134  1.2699  0.0949 -0.4347
10624TIP3   OH253286   0.193   1.687   2.471  0.2436 -0.4846 -0.9604
10624TIP3    H153287   0.243   1.656   2.396 -0.5982 -0.8420 -1.3877
10624TIP3    H253288   0.123   1.740   2.433 -1.2108 -2.0420 -0.5798
10625TIP3   OH253289   0.633   6.200   4.563  0.4805 -0.0169  0.6185
10625TIP3    H153290   0.664   6.110   4.576 -0.1759 -0.1285  1.4790
10625TIP3    H253291   0.586   6.197   4.479  1.6204 -0.1453 -0.0458
10626TIP3   OH253292   2.791   4.497   3.498  0.0553 -0.1959 -0.2193
10626TIP3    H153293   2.782   4.545   3.580  1.8777  1.6645 -1.0139
10626TIP3    H253294   2.703   4.465   3.479 -0.4323 -0.5901  2.3591
10627TIP3   OH253295   4.327   3.850  12.330 -0.0899  0.2017  0.1549
10627TIP3    H153296   4.377   3.929  12.309 -0.8367  0.8874  0.8642
10627TIP3    H253297   4.242   3.864  12.287 -0.4675  0.1154  0.8580
10628TIP3   OH253298   0.925   3.233   2.645 -0.2420  0.7199 -0.2230
10628TIP3    H153299   0.899   3.272   2.728 -0.2933 -1.4201  0.8270
10628TIP3    H253300   0.892   3.144   2.649 -0.9919  0.7859 -2.9257
10629TIP3   OH253301   2.675   1.893   5.921 -0.1223  0.0442 -0.1298
10629TIP3    H153302   2.696   1.968   5.977  0.1015 -0.7611  0.9117
10629TIP3    H253303   2.653   1.823   5.983  0.1118 -0.8738 -1.0588
10630TIP3   OH253304   4.180   2.965   2.068  0.5810 -0.4439 -0.6151
10630TIP3    H153305   4.206   2.902   2.136  0.3773  0.5329  0.3919
10630TIP3    H253306   4.152   3.042   2.117 -1.4245 -0.4038 -1.7656
10631TIP3   OH253307   5.343   5.891  11.706  0.5083  0.1192  0.1037
10631TIP3    H153308   5.376   5.814  11.752 -0.8176  0.7068  2.2058
10631TIP3    H253309   5.355   5.963  11.768 -0.0199  1.2508 -1.0618
10632TIP3   OH253310   5.927   4.990  15.880 -0.4943  0.0668  0.2657
10632TIP3    H153311   5.878   5.045  15.819 -1.0474  0.5055  1.0867
10632TIP3    H253312   5.861   4.933  15.919 -0.2226  0.0833  0.7607
10633TIP3   OH253313   4.937   1.154   0.566  0.5931  0.2106  0.7088
10633TIP3    H153314   4.971   1.214   0.632  0.1056  0.8351  0.4009
10633TIP3    H253315   4.876   1.098   0.614  0.1623  0.7315  0.7821
10634TIP3   OH253316   3.128   0.219   2.419  0.2020  0.1850  0.7365
10634TIP3    H153317   3.139   0.211   2.325 -1.5205 -0.6351  0.5610
10634TIP3    H253318   3.208   0.262   2.450  1.0433 -0.0649 -1.0070
10635TIP3   OH253319   4.374   3.403   0.136  0.1042 -0.1165 -0.0664
10635TIP3    H153320   4.365   3.364   0.049 -1.0689  0.1701 -0.0940
10635TIP3    H253321   4.361   3.329   0.197 -1.2386  0.0366 -0.1293
10636TIP3   OH253322   5.691   2.540  15.052  0.7629  0.1521  0.2895
10636TIP3    H153323   5.660   2.627  15.028 -0.7900 -0.3383  0.4634
10636TIP3    H253324   5.747   2.514  14.978 -0.2210  0.5627 -0.6262
10637TIP3   OH253325   5.973   2.061   4.156 -0.1338  0.1054 -0.0259
10637TIP3    H153326   5.967   2.105   4.071  2.3575 -0.9280 -0.8259
10637TIP3    H253327   5.959   2.132   4.219  1.1290  1.5703 -1.2861
10638TIP3   OH253328   4.237   6.188  15.634  0.1841  0.0132  0.0738
10638TIP3    H153329   4.306   6.126  15.610  0.6014  0.1680  0.8663
10638TIP3    H253330   4.269   6.272  15.603 -1.0545 -0.3148 -2.4114
10639TIP3   OH253331   0.039   1.591   2.897  0.4377  0.4270 -0.3590
10639TIP3    H153332  -0.008   1.652   2.839 -0.6914 -0.1629 -0.1011
10639TIP3    H253333   0.071   1.522   2.839  0.2063  0.3707 -0.4200
10640TIP3   OH253334   0.580   2.248   3.196 -0.0862 -0.2377  0.2396
10640TIP3    H153335   0.534   2.316   3.147  0.8739  1.1069  1.1484
10640TIP3    H253336   0.511   2.190   3.228 -0.9684  0.5781 -0.1499
10641TIP3   OH253337   0.313   6.615  15.087  0.0580  0.3784  0.0219
10641TIP3    H153338   0.405   6.612  15.114  0.4451  0.7157 -1.1908
10641TIP3    H253339   0.306   6.696  15.036 -0.9234  0.3646  0.1147
10642TIP3   OH253340   6.063   1.953  13.518 -0.7541 -0.0002  0.0116
10642TIP3    H153341   6.058   1.884  13.451 -0.5994  0.6334 -0.6701
10642TIP3    H253342   6.009   1.921  13.590  1.2796 -1.9776  0.7627
10643TIP3   OH253343   3.528   5.380  13.499 -0.4755  0.2529 -0.2061
10643TIP3    H153344   3.618   5.347  13.502 -0.2450  0.9187  0.8601
10643TIP3    H253345   3.504   5.391  13.591 -1.3738  0.7979 -0.4971
10644TIP3   OH253346   0.786   6.704  15.402 -0.5425 -0.0809 -0.6047
10644TIP3    H153347   0.749   6.628  15.447  2.3079 -3.4778 -3.4200
10644TIP3    H253348   0.855   6.735  15.460 -0.8699 -0.4457 -0.0144
10645TIP3   OH253349   4.339   4.225  11.991 -0.3344  0.0425  0.2337
10645TIP3    H153350   4.296   4.237  11.906 -0.3193  0.3681  0.2684
10645TIP3    H253351   4.403   4.296  11.996  1.6937 -1.6322 -0.6962
10646TIP3   OH253352   1.187   6.475  16.004 -0.1249 -0.0708  0.2267
10646TIP3    H153353   1.248   6.406  15.977 -1.0844 -0.2880 -1.5449
10646TIP3    H253354   1.237   6.556  15.996  0.7785 -0.4531  1.5964
10647TIP3   OH253355   2.995   1.040  15.469  0.0129 -0.5879 -0.1584
10647TIP3    H153356   2.938   0.969  15.438 -2.3203  0.9714  0.3296
10647TIP3    H253357   3.032   1.007  15.551 -2.3512 -0.6913  0.9409
10648TIP3   OH253358   3.002   4.863  12.695  0.1458 -0.7279  0.0797
10648TIP3    H153359   3.072   4.832  12.752  1.4423 -0.8258 -1.4884
10648TIP3    H253360   2.928   4.805  12.713  1.5541 -2.8494 -0.6143
10649TIP3   OH253361   4.811   2.663  16.809  0.2006 -0.1842 -0.4250
10649TIP3    H153362   4.831   2.582  16.855  0.2099 -0.9560 -1.7574
10649TIP3    H253363   4.893   2.687  16.766  0.1777  0.5049 -0.1089
10650TIP3   OH253364   2.304   0.520   5.294  0.0461 -0.4302  0.5393
10650TIP3    H153365   2.250   0.450   5.333  0.2394 -0.6218  0.4649
10650TIP3    H253366   2.372   0.536   5.360  0.0509 -0.3703  0.5186
10651TIP3   OH253367   5.746   4.531   4.720 -0.0115  0.2152  0.0463
10651TIP3    H153368   5.804   4.459   4.743 -1.3589 -0.5730  1.1025
10651TIP3    H253369   5.719   4.569   4.803 -1.1698  0.4241 -0.4015
10652TIP3   OH253370   0.153   6.048   3.716  0.1392 -0.4756  0.1038
10652TIP3    H153371   0.212   6.111   3.759 -0.7440 -0.2963  1.0821
10652TIP3    H253372   0.069   6.060   3.760 -0.9868  0.1447 -2.0960
10653TIP3   OH253373   4.527   1.811  13.304  0.2831 -0.3667 -0.1770
10653TIP3    H153374   4.572   1.796  13.387  0.1613 -1.7267 -0.3210
10653TIP3    H253375   4.441   1.770  13.317 -0.3592  0.8812 -0.4127
10654TIP3   OH253376   0.123   2.565   2.716  0.3395  0.4577  0.5581
10654TIP3    H153377   0.033   2.594   2.731  0.2825  0.0671  1.0229
10654TIP3    H253378   0.177   2.642   2.734  0.0677  0.8644 -0.3211
10655TIP3   OH253379   5.273   3.691  15.127  0.3434  0.4257 -0.3686
10655TIP3    H153380   5.271   3.608  15.175 -1.7249  0.5524 -0.1479
10655TIP3    H253381   5.186   3.698  15.088 -0.3487  3.5116  1.4403
10656TIP3   OH253382   2.627   1.449   4.021  0.2190 -0.3160 -0.3513
10656TIP3    H153383   2.695   1.431   4.085 -1.7072 -1.1830  1.5737
10656TIP3    H253384   2.605   1.541   4.034  0.2756 -0.3235 -0.2004
10657TIP3   OH253385   3.003   6.593   3.584  0.3722  0.2975 -0.0574
10657TIP3    H153386   2.917   6.583   3.544  0.3297 -0.9091  0.3196
10657TIP3    H253387   3.012   6.518   3.643  1.7482  0.2960 -0.2350
10658TIP3   OH253388   3.570   0.776   4.241  0.1221  0.7168 -0.2430
10658TIP3    H153389   3.495   0.717   4.235  1.0343 -0.5984  0.6930
10658TIP3    H253390   3.540   0.848   4.297  0.0669 -0.7189  1.6610
10659TIP3   OH253391   3.261   5.287   0.074  0.5460  0.6463 -0.4894
10659TIP3    H153392   3.266   5.278  -0.021 -0.2796  0.6987 -0.5410
10659TIP3    H253393   3.348   5.259   0.105  0.9932  1.1277 -1.2833
10660TIP3   OH253394   3.594   5.655  15.456 -0.0002  0.5445  0.1485
10660TIP3    H153395   3.612   5.580  15.513  0.5162 -0.9439 -1.8706
10660TIP3    H253396   3.675   5.705  15.456  0.8321 -0.7450 -1.0940
10661TIP3   OH253397   6.683   0.543  15.900 -0.1024  0.1821  0.5374
10661TIP3    H153398   6.603   0.528  15.950  0.3011 -0.0734  1.1150
10661TIP3    H253399   6.673   0.631  15.865 -0.1168  0.6273  1.6071
10662TIP3   OH253400   3.450   4.726   2.551 -0.4780  0.3026  0.1064
10662TIP3    H153401   3.517   4.770   2.498 -0.7010  0.1675 -0.2963
10662TIP3    H253402   3.497   4.656   2.596 -0.3117  0.3305 -0.0233
10663TIP3   OH253403   6.523   4.598   1.426  0.0900  0.1814 -0.2359
10663TIP3    H153404   6.572   4.634   1.352  0.1072 -0.5337 -0.5872
10663TIP3    H253405   6.444   4.562   1.387  0.1161 -0.2328  0.0819
10664TIP3   OH253406   1.652   5.708   0.124 -0.5154 -0.1829 -0.2781
10664TIP3    H153407   1.691   5.788   0.088 -2.2364  1.3149  1.0158
10664TIP3    H253408   1.568   5.736   0.160 -0.7640 -2.4198  1.0642
10665TIP3   OH253409   0.841   4.043  13.405  0.3173 -0.1735  0.0288
10665TIP3    H153410   0.856   4.093  13.325 -3.1142  1.3001  0.1314
10665TIP3    H253411   0.754   4.003  13.393  1.8587 -4.2752  0.9682
10666TIP3   OH253412   2.126   1.836  17.306  0.3521 -0.0516 -0.0787
10666TIP3    H153413   2.216   1.815  17.282  0.0334  0.0824 -1.5304
10666TIP3    H253414   2.100   1.767  17.367  0.8324 -1.1927 -1.1312
10667TIP3   OH253415   4.078   6.567  14.495  0.1567  0.0305 -0.2498
10667TIP3    H153416   3.996   6.596  14.535  0.7036  0.5392  0.5263
10667TIP3    H253417   4.052   6.533  14.409 -0.4182  4.1208 -1.9367
10668TIP3   OH253418   5.089   1.617  12.972  0.4130  0.2333 -0.1042
10668TIP3    H153419   5.002   1.580  12.955  0.7153 -0.1537 -0.8188
10668TIP3    H253420   5.075   1.677  13.045 -0.0523 -1.3942  1.1938
10669TIP3   OH253421   2.922   4.348   6.032 -0.3483  0.5050 -0.4834
10669TIP3    H153422   2.870   4.427   6.046 -0.0720  0.9259 -1.7293
10669TIP3    H253423   2.863   4.288   5.986  0.0675  0.7495 -1.3429
10670TIP3   OH253424   5.253   1.951  14.370 -0.6730  0.0601 -0.0325
10670TIP3    H153425   5.229   2.041  14.348 -1.4466 -0.1800 -0.1849
10670TIP3    H253426   5.345   1.944  14.344 -0.0607  1.3362  1.5976
10671TIP3   OH253427   5.224   1.862  12.058  0.1403  0.1328 -0.3180
10671TIP3    H153428   5.152   1.921  12.082  0.5092  0.1278  0.8420
10671TIP3    H253429   5.298   1.920  12.039 -1.3992  0.7769 -7.3874
10672TIP3   OH253430   0.678   3.272  12.451 -0.1292 -0.0745 -0.9001
10672TIP3    H153431   0.711   3.234  12.532 -0.9660  1.4682  0.2154
10672TIP3    H253432   0.750   3.264  12.389  0.6479 -0.9716  0.0859
10673TIP3   OH253433   0.575   3.141  15.714  0.2430 -0.0488  0.3554
10673TIP3    H153434   0.519   3.218  15.728  0.1098 -0.1972  0.6498
10673TIP3    H253435   0.662   3.177  15.698 -0.4318  0.3660 -3.2341
10674TIP3   OH253436   0.972   1.509   5.307  0.3780  0.3433 -0.3522
10674TIP3    H153437   1.045   1.450   5.330 -0.3342  0.4167  2.5043
10674TIP3    H253438   1.014   1.580   5.258  2.1327  0.0222  0.5783
10675TIP3   OH253439   6.173   2.477  12.706  0.6970 -0.0858  0.0291
10675TIP3    H153440   6.138   2.455  12.792  1.0808  1.9626  0.7748
10675TIP3    H253441   6.268   2.476  12.718  0.7506  0.2369 -0.3505
10676TIP3   OH253442   5.357   0.565   3.931 -0.7650 -0.6377 -0.4166
10676TIP3    H153443   5.336   0.653   3.899  0.4586 -0.3618 -0.4953
10676TIP3    H253444   5.374   0.578   4.025  1.3617 -0.4094 -0.7863
10677TIP3   OH253445   5.266   4.629   1.820  0.2409  0.4455  0.1383
10677TIP3    H153446   5.278   4.712   1.867 -2.9432  0.3237  1.4391
10677TIP3    H253447   5.242   4.655   1.731  2.7468  0.7586 -0.5095
10678TIP3   OH253448   5.500   3.603  12.639  0.2481 -0.1186  0.3528
10678TIP3    H153449   5.441   3.633  12.569  0.1708 -1.7756 -0.3258
10678TIP3    H253450   5.464   3.641  12.719  0.0006  1.3420 -0.4055
10679TIP3   OH253451   0.111   6.379   3.476 -0.1236 -0.2750 -1.0694
10679TIP3    H153452   0.204   6.362   3.487 -0.0128  0.9862  0.2129
10679TIP3    H253453   0.099   6.470   3.505 -1.6903 -0.2975 -1.5346
10680TIP3   OH253454   1.037   2.021  14.927  0.0114 -0.5736 -0.8210
10680TIP3    H153455   1.010   1.935  14.896  1.6007 -0.5156 -2.5408
10680TIP3    H253456   1.132   2.022  14.917  0.4215  0.3335  2.0367
10681TIP3   OH253457   4.022   4.008   3.923 -0.5531  0.0462  0.0914
10681TIP3    H153458   3.975   4.083   3.886 -1.2458 -0.5638 -0.2997
10681TIP3    H253459   3.954   3.941   3.934  0.1792 -0.7486 -0.1946
10682TIP3   OH253460   2.296   6.098  13.334  0.1197  0.2018  0.1154
10682TIP3    H153461   2.245   6.135  13.262 -0.0792  1.0209  0.6639
10682TIP3    H253462   2.318   6.173  13.388 -1.2668 -0.6051  1.8896
10683TIP3   OH253463   6.722   1.497   1.164 -0.0438 -0.4394  0.0151
10683TIP3    H153464   6.783   1.427   1.141  0.9737  0.2232  0.6194
10683TIP3    H253465   6.757   1.575   1.121 -0.3340 -0.0002  0.5541
10684TIP3   OH253466   6.008   1.713  16.072  0.0347 -0.5930 -0.0785
10684TIP3    H153467   6.063   1.774  16.121 -0.2579 -0.2677 -0.1479
10684TIP3    H253468   5.919   1.744  16.087 -0.0762 -0.6399 -0.6059
10685TIP3   OH253469   4.064   5.857   4.218 -0.6758  0.3498  0.1873
10685TIP3    H153470   3.999   5.833   4.284  0.0548  0.2217  0.8777
10685TIP3    H253471   4.127   5.912   4.265 -0.3238  0.5382 -0.4891
10686TIP3   OH253472   4.654   0.193   2.382  0.2927 -0.3954  0.1645
10686TIP3    H153473   4.715   0.263   2.360  1.8481 -2.4805 -2.9604
10686TIP3    H253474   4.569   0.225   2.354  0.5959  1.0116  0.7683
10687TIP3   OH253475   5.129   5.872  14.092  0.6626  0.2704 -0.2047
10687TIP3    H153476   5.175   5.797  14.054  0.5990 -0.5448  1.2133
10687TIP3    H253477   5.196   5.939  14.103  1.2466 -0.4111  0.5724
10688TIP3   OH253478   4.825   3.336   4.155  0.1891 -0.4808 -0.1368
10688TIP3    H153479   4.840   3.292   4.238  0.9364  0.2842  0.1460
10688TIP3    H253480   4.813   3.265   4.092 -1.1596 -1.0720  0.7360
10689TIP3   OH253481   1.601   1.168  11.288  0.0890 -0.2483 -0.7002
10689TIP3    H153482   1.649   1.180  11.370  0.6330  2.1005 -1.2860
10689TIP3    H253483   1.512   1.196  11.308  0.2650  0.4966 -0.9464
10690TIP3   OH253484   6.255   5.214  13.394 -0.3248  0.2016  0.5536
10690TIP3    H153485   6.277   5.232  13.302 -4.1076 -1.4312 -0.8965
10690TIP3    H253486   6.254   5.118  13.399 -0.4389  0.2656  2.2671
10691TIP3   OH253487   3.127   5.785  14.636 -0.6141 -0.2702  0.2508
10691TIP3    H153488   3.175   5.795  14.718  0.7005 -0.4782 -0.4505
10691TIP3    H253489   3.101   5.873  14.612 -3.0233 -0.4147  1.9845
10692TIP3   OH253490   3.390   4.228   5.734  0.3657  0.8654 -0.0176
10692TIP3    H153491   3.387   4.190   5.646 -0.3944  1.5949 -0.3201
10692TIP3    H253492   3.303   4.264   5.748  0.0571 -0.4123  1.5984
10693TIP3   OH253493   3.710   2.973   5.305 -0.2420  0.6013 -0.0573
10693TIP3    H153494   3.640   2.926   5.260 -0.8373  1.0103  0.4382
10693TIP3    H253495   3.778   2.907   5.318 -1.6238 -0.5483  1.8874
10694TIP3   OH253496   3.726   4.096  17.394 -0.5082 -0.0849 -0.0615
10694TIP3    H153497   3.706   4.002  17.391 -1.8230  0.1992 -1.6404
10694TIP3    H253498   3.645   4.137  17.423 -0.6914  0.7155 -1.5850
10695TIP3   OH253499   4.465   5.855  13.843  0.3757  0.5889  0.1688
10695TIP3    H153500   4.539   5.916  13.844 -0.7915  2.0614  0.7264
10695TIP3    H253501   4.488   5.788  13.907  0.5911  1.8708  1.4940
10696TIP3   OH253502   0.918   0.632  17.260  0.3181  0.2000  0.1544
10696TIP3    H153503   0.943   0.659  17.172  1.1123  0.0272  0.3160
10696TIP3    H253504   0.926   0.536  17.259 -1.1034  0.0653 -0.0109
10697TIP3   OH253505   4.206   6.116   4.351  0.0432  0.6081 -0.1565
10697TIP3    H153506   4.194   6.060   4.427 -2.9554 -0.1258 -1.0171
10697TIP3    H253507   4.299   6.137   4.351  0.5569 -1.1490  2.4190
10698TIP3   OH253508   3.998   4.567  10.931  0.4195 -0.1166 -0.0036
10698TIP3    H153509   4.093   4.552  10.934  0.3012 -0.9996 -0.3933
10698TIP3    H253510   3.982   4.603  10.844  0.2752 -0.9363 -0.3258
10699TIP3   OH253511   3.114   3.624  15.261  0.3042  0.1321 -0.4867
10699TIP3    H153512   3.162   3.601  15.341 -1.4755 -0.2262  0.5236
10699TIP3    H253513   3.178   3.611  15.191  1.0688 -2.4736  0.5761
10700TIP3   OH253514   2.799   3.314  12.717 -0.2899  0.1790  0.4338
10700TIP3    H153515   2.863   3.297  12.648 -0.6555 -1.8245  0.5208
10700TIP3    H253516   2.804   3.409  12.731  0.4722  0.5134 -1.6481
10701TIP3   OH253517   4.183   2.382   4.562 -0.0251 -0.1075 -0.2869
10701TIP3    H153518   4.241   2.306   4.561  2.1460  1.4534 -1.2151
10701TIP3    H253519   4.139   2.381   4.477  1.4009  0.6170 -1.0717
10702TIP3   OH253520   2.305   3.712  11.921 -0.1184  0.9742  0.5273
10702TIP3    H153521   2.349   3.634  11.887 -2.6837 -0.0752 -0.6326
10702TIP3    H253522   2.376   3.776  11.934  1.6828 -0.4482 -1.5841
10703TIP3   OH253523   0.013   5.184  16.489  0.3131 -0.0659  0.1678
10703TIP3    H153524  -0.055   5.223  16.544  0.7697  1.8747 -0.5639
10703TIP3    H253525   0.093   5.191  16.541  0.5468  0.8010 -0.2759
10704TIP3   OH253526   2.566   2.975   0.118 -0.7958  0.4428 -0.3968
10704TIP3    H153527   2.563   2.994   0.212 -2.1735  1.4688 -0.6109
10704TIP3    H253528   2.598   3.057   0.079  0.0856 -0.0881 -0.8052
10705TIP3   OH253529   0.512   1.234   2.972  0.3493 -0.3679  0.2516
10705TIP3    H153530   0.484   1.284   2.895 -0.3877 -1.5565 -0.2754
10705TIP3    H253531   0.604   1.215   2.956  0.9240  1.6117  0.9202
10706TIP3   OH253532   6.332   2.442  10.902  0.0999 -0.1059  0.2807
10706TIP3    H153533   6.391   2.446  10.826 -0.4437 -0.8338 -0.1983
10706TIP3    H253534   6.348   2.523  10.949  0.9387  0.0522 -0.2521
10707TIP3   OH253535   2.953   0.594  15.026 -1.1187 -0.1451  0.0625
10707TIP3    H153536   2.961   0.604  14.931  0.6892  0.1877  0.2142
10707TIP3    H253537   2.991   0.674  15.062  0.4823 -1.2885  1.0781
10708TIP3   OH253538   5.387   4.464  13.328 -0.4797 -0.3121 -0.3097
10708TIP3    H153539   5.403   4.557  13.345 -1.6096  0.0997 -1.3676
10708TIP3    H253540   5.382   4.457  13.233 -2.1567 -1.1341 -0.1995
10709TIP3   OH253541   4.170   3.119   0.141  0.7240  0.2246  0.1712
10709TIP3    H153542   4.237   3.054   0.159 -0.0307 -0.1405  1.8040
10709TIP3    H253543   4.155   3.163   0.224  1.8808  3.2150 -1.0366
10710TIP3   OH253544   1.431   3.991  12.781  0.5839 -0.3939 -0.1796
10710TIP3    H153545   1.390   4.069  12.818 -0.4680 -1.3087  0.6187
10710TIP3    H253546   1.421   3.924  12.848 -1.7253 -2.2138 -2.1818
10711TIP3   OH253547   2.523   4.052  14.085  0.2867 -0.1358  0.2839
10711TIP3    H153548   2.529   3.998  14.164  0.1556  1.3427  1.3551
10711TIP3    H253549   2.525   3.989  14.013 -3.5502 -1.9463  1.4731
10712TIP3   OH253550   0.176   6.110  16.725 -0.2147  0.1906 -1.0498
10712TIP3    H153551   0.271   6.101  16.730 -0.3837 -2.6393 -1.0382
10712TIP3    H253552   0.158   6.129  16.633  0.3740  1.9006 -0.8454
10713TIP3   OH253553   6.512   6.679   5.725  0.0313 -0.4735  0.5033
10713TIP3    H153554   6.426   6.721   5.725 -0.0982 -0.7065  1.4766
10713TIP3    H253555   6.573   6.750   5.705 -0.2272  0.0891  1.6301
10714TIP3   OH253556   0.913   3.886   4.918  0.1243  0.2008 -0.1468
10714TIP3    H153557   0.935   3.910   4.828  1.1466 -0.7468 -0.1725
10714TIP3    H253558   0.985   3.828   4.946 -0.6147 -0.2091  0.9852
10715TIP3   OH253559   5.767   0.689   4.649 -0.6812  0.4474  0.2386
10715TIP3    H153560   5.839   0.640   4.608 -0.8584 -1.2747  1.8628
10715TIP3    H253561   5.689   0.636   4.632 -0.9944  0.4910  1.4723
10716TIP3   OH253562   4.029   6.690  13.183 -0.6425  0.0097 -0.6617
10716TIP3    H153563   4.036   6.753  13.255 -1.5466 -0.2952 -0.2870
10716TIP3    H253564   3.952   6.637  13.205  0.0940 -1.2284 -0.9627
10717TIP3   OH253565   2.508   6.589   1.257  0.1405  0.1631  0.0816
10717TIP3    H153566   2.469   6.676   1.267 -1.0661 -0.3978  0.4683
10717TIP3    H253567   2.583   6.590   1.317 -0.6914  0.4725  1.1401
10718TIP3   OH253568   0.914   3.445  13.499 -0.0638 -0.3395 -0.6045
10718TIP3    H153569   0.899   3.448  13.593 -1.1626 -2.2037 -0.6816
10718TIP3    H253570   0.991   3.389  13.488  1.7485  1.9928 -0.7386
10719TIP3   OH253571   4.135   5.744  14.367  0.3302 -0.4996 -0.2970
10719TIP3    H153572   4.229   5.753  14.383  0.1550 -2.2014  2.3110
10719TIP3    H253573   4.127   5.744  14.272  2.6458  2.1383 -0.6310
10720TIP3   OH253574   5.443   5.760   1.962 -0.0913 -0.2863  0.3817
10720TIP3    H153575   5.439   5.839   2.015  0.3846 -0.1661  0.2404
10720TIP3    H253576   5.365   5.710   1.988 -1.3779  0.9942 -0.7548
10721TIP3   OH253577   1.702   1.109  15.770 -0.6917  0.3507 -0.9907
10721TIP3    H153578   1.684   1.194  15.811 -0.1381 -1.1859  2.7898
10721TIP3    H253579   1.785   1.081  15.808 -1.0598 -2.0896 -1.8370
10722TIP3   OH253580   3.085   5.213   5.288 -0.1805  0.2145  0.0565
10722TIP3    H153581   3.023   5.179   5.352  0.0674  1.2977  0.8807
10722TIP3    H253582   3.171   5.185   5.320 -0.0944  0.2773 -0.1158
10723TIP3   OH253583   6.518   3.578   0.290  0.1522  0.2322  0.2289
10723TIP3    H153584   6.545   3.546   0.204 -1.9632 -0.4684 -0.2388
10723TIP3    H253585   6.568   3.525   0.352  0.8253 -0.0939 -0.5721
10724TIP3   OH253586   4.949   2.352   2.787  0.2610  0.4407  0.6702
10724TIP3    H153587   5.029   2.367   2.738  0.7553 -0.6238  1.1166
10724TIP3    H253588   4.879   2.357   2.722  0.6955  1.2827  0.2629
10725TIP3   OH253589   1.286   6.387  14.249  0.3210  0.7321 -0.2086
10725TIP3    H153590   1.248   6.417  14.331 -2.1694 -0.0772 -0.9805
10725TIP3    H253591   1.363   6.442  14.236  0.0357  1.7369  1.9952
10726TIP3   OH253592   1.371   2.241  12.006 -0.3280 -0.7504  0.1254
10726TIP3    H153593   1.459   2.278  12.000 -0.6436 -0.0846 -0.4332
10726TIP3    H253594   1.348   2.250  12.099 -0.1166 -0.2009  0.1287
10727TIP3   OH253595   4.242   0.426   0.914  0.7151 -0.8462  0.5744
10727TIP3    H153596   4.282   0.488   0.853  0.4336  0.1489  1.3706
10727TIP3    H253597   4.257   0.340   0.875  0.8890 -0.2575 -0.6823
10728TIP3   OH253598   5.761   1.674  12.279  0.4669 -0.1718 -0.2341
10728TIP3    H153599   5.813   1.653  12.357  2.2903 -1.1335 -1.6162
10728TIP3    H253600   5.740   1.589  12.240 -0.0405  0.2981 -1.0218
10729TIP3   OH253601   3.487   3.785  11.385  0.4394 -0.1936  0.0630
10729TIP3    H153602   3.408   3.737  11.362 -0.2265 -0.0483  1.8917
10729TIP3    H253603   3.496   3.851  11.316 -0.9845 -0.2810 -0.2378
10730TIP3   OH253604   5.904   0.519  11.678  0.2079  0.1364  0.1168
10730TIP3    H153605   5.877   0.454  11.613  2.3221  0.2530 -0.9598
10730TIP3    H253606   5.855   0.598  11.654 -0.1454 -0.2312 -0.4135
10731TIP3   OH253607   2.193   4.779   0.867 -0.1576 -0.5004  0.3486
10731TIP3    H153608   2.278   4.753   0.833  0.3635 -0.3693  1.4962
10731TIP3    H253609   2.131   4.720   0.825  0.1799  0.9142 -2.3263
10732TIP3   OH253610   3.819   3.688  17.139 -0.1421 -0.3155 -0.9372
10732TIP3    H153611   3.762   3.720  17.209  0.5161 -0.1537 -0.4775
10732TIP3    H253612   3.773   3.713  17.058 -0.6274 -0.0147 -0.5738
10733TIP3   OH253613   3.523   5.932  11.705  0.4866  0.4522 -0.6308
10733TIP3    H153614   3.591   5.920  11.771  0.5361  1.0968 -0.5527
10733TIP3    H253615   3.450   5.973  11.752 -0.6607 -1.7792 -0.3234
10734TIP3   OH253616   1.128   0.745   3.640 -0.2567 -0.3866  0.7375
10734TIP3    H153617   1.186   0.822   3.639 -2.1905  1.1598 -0.0097
10734TIP3    H253618   1.184   0.673   3.610  1.4057  0.9002  0.5546
10735TIP3   OH253619   0.537   2.063   5.308  0.4403 -0.4366 -0.1169
10735TIP3    H153620   0.626   2.040   5.282  0.7893 -1.4667  1.7611
10735TIP3    H253621   0.540   2.064   5.404 -1.6887 -1.0181  0.0054
10736TIP3   OH253622   4.961   2.535  13.448  0.0402 -0.2671  0.3103
10736TIP3    H153623   5.047   2.531  13.406 -1.0906  0.4696 -2.2791
10736TIP3    H253624   4.909   2.470  13.402 -0.5489 -1.5573  2.6496
10737TIP3   OH253625   5.012   3.078   4.184 -0.3529 -0.4038  0.0540
10737TIP3    H153626   4.954   3.081   4.260 -1.1328 -2.6566 -0.3662
10737TIP3    H253627   5.094   3.118   4.213 -0.1517 -2.4230  2.5431
10738TIP3   OH253628   5.667   0.015   3.541  1.2301  0.3989  0.2286
10738TIP3    H153629   5.607  -0.056   3.565  0.7556  1.7126  3.3371
10738TIP3    H253630   5.731  -0.027   3.483 -1.5042 -1.4807 -1.7034
10739TIP3   OH253631   2.705   6.552  15.692  0.0286  0.2178  0.2894
10739TIP3    H153632   2.666   6.601  15.765  1.4913  0.4559  0.9539
10739TIP3    H253633   2.652   6.473  15.684 -0.4934  0.4612  1.2414
10740TIP3   OH253634   6.348   4.762   1.735 -0.0315  0.1915 -0.3070
10740TIP3    H153635   6.383   4.677   1.708  0.8366  0.4541 -0.0218
10740TIP3    H253636   6.356   4.817   1.657  1.1685  0.5443  0.0448
10741TIP3   OH253637   5.390   5.887   4.523  0.3373  0.3977  0.3775
10741TIP3    H153638   5.477   5.884   4.484  0.8897 -0.7576  1.6041
10741TIP3    H253639   5.396   5.829   4.599 -1.6539 -0.1330  0.1999
10742TIP3   OH253640   6.629   5.505   3.956  0.2229 -0.4273 -0.3526
10742TIP3    H153641   6.577   5.486   4.035 -0.8242 -0.7562 -1.0990
10742TIP3    H253642   6.720   5.496   3.985  0.0572  2.5842  1.6502
10743TIP3   OH253643   0.752   5.665  12.577  0.0375 -0.9206  0.5513
10743TIP3    H153644   0.779   5.578  12.606 -0.2250 -1.3114 -0.3489
10743TIP3    H253645   0.725   5.653  12.486  0.2406  0.1500  0.3340
10744TIP3   OH253646   1.554   5.179  14.132 -0.5873  0.5385  0.3576
10744TIP3    H153647   1.482   5.119  14.147  0.8800 -1.7342 -1.1578
10744TIP3    H253648   1.539   5.214  14.044 -0.7432  1.4108  0.7218
10745TIP3   OH253649   0.439   0.804   3.635  0.2055  0.1366 -0.0235
10745TIP3    H153650   0.504   0.874   3.634  1.1277 -0.6400 -2.3684
10745TIP3    H253651   0.488   0.725   3.610 -1.1404 -1.0279  0.8146
10746TIP3   OH253652   5.747   5.714  14.796  0.5215 -0.0122  0.0494
10746TIP3    H153653   5.755   5.637  14.852  0.8018 -0.7591 -0.9845
10746TIP3    H253654   5.828   5.762  14.809 -0.4018  1.1312  2.1080
10747TIP3   OH253655   1.100   3.934  12.562  0.2857 -0.0346  0.0660
10747TIP3    H153656   1.101   3.923  12.657 -1.5242  0.8728  0.2413
10747TIP3    H253657   1.066   4.023  12.549 -0.9135 -0.6792 -1.4352
10748TIP3   OH253658   1.253   0.132   4.364  0.9276 -0.3034  0.3924
10748TIP3    H153659   1.171   0.111   4.319  0.4562 -1.6678  1.8402
10748TIP3    H253660   1.226   0.170   4.447  1.7660 -0.5791  0.8005
10749TIP3   OH253661   4.086   5.211  15.138 -0.3288 -0.2757  0.2717
10749TIP3    H153662   4.154   5.278  15.130 -0.5477  0.1718  1.7838
10749TIP3    H253663   4.029   5.226  15.062 -0.6828  1.6547  0.8554
10750TIP3   OH253664   0.092   1.894   2.963  0.3983  0.4248  0.2563
10750TIP3    H153665   0.163   1.892   3.027  1.5653 -3.7148 -0.8292
10750TIP3    H253666   0.136   1.890   2.878 -1.0831 -1.0259 -0.5013
10751TIP3   OH253667   3.130   2.963   5.364  0.2134  0.6469  0.3528
10751TIP3    H153668   3.179   2.985   5.443  0.6580 -1.5384  0.7488
10751TIP3    H253669   3.041   2.947   5.395  0.5649 -1.0154  0.5972
10752TIP3   OH253670   2.894   6.425   3.202  0.2310  0.6501  0.0032
10752TIP3    H153671   2.849   6.479   3.138 -0.4467 -0.5917 -0.6028
10752TIP3    H253672   2.827   6.404   3.267  0.3018 -0.0094 -0.1285
10753TIP3   OH253673   6.175   4.791  15.621 -0.3329  0.1899 -0.3574
10753TIP3    H153674   6.088   4.801  15.582 -0.9718 -3.1773 -0.0904
10753TIP3    H253675   6.160   4.745  15.703  1.5403  2.0950  1.1844
10754TIP3   OH253676   5.737   2.869   5.509  0.0289 -0.5941  0.2130
10754TIP3    H153677   5.799   2.905   5.572 -0.0530  0.9014 -0.5206
10754TIP3    H253678   5.652   2.874   5.553 -0.0967  0.8661 -0.1333
10755TIP3   OH253679   2.894   2.728  13.109 -0.3951 -0.0188  0.8752
10755TIP3    H153680   2.868   2.701  13.021 -1.6508 -1.2981  1.5929
10755TIP3    H253681   2.978   2.685  13.124 -0.3976 -0.1598  0.4765
10756TIP3   OH253682   0.801   5.044  13.429 -0.6205 -0.2776  0.2818
10756TIP3    H153683   0.730   5.009  13.483 -1.3480  0.9109  0.1253
10756TIP3    H253684   0.833   5.120  13.477  0.3904 -0.6536  0.2238
10757TIP3   OH253685   4.322   3.570  14.813  0.6363  0.3315 -0.0106
10757TIP3    H153686   4.348   3.559  14.905  1.0258 -0.5640 -0.2103
10757TIP3    H253687   4.342   3.485  14.773 -0.9618  0.1898 -0.5888
10758TIP3   OH253688   2.108   3.190   2.898  0.5421 -0.4867  0.5295
10758TIP3    H153689   2.027   3.146   2.924  0.4760 -1.7814 -1.6633
10758TIP3    H253690   2.089   3.283   2.908 -0.0638 -0.8010  3.1441
10759TIP3   OH253691   6.500   5.654   6.879  0.2381 -0.6065  0.5143
10759TIP3    H153692   6.553   5.576   6.893  0.1717 -1.1076 -1.6773
10759TIP3    H253693   6.476   5.651   6.786 -2.0299  0.6172  0.9946
10760TIP3   OH253694   3.002   1.093   3.346  0.6969  0.0054 -0.0473
10760TIP3    H153695   3.027   1.185   3.358 -0.8004  0.1641  2.4432
10760TIP3    H253696   3.051   1.046   3.414 -0.2774 -0.6866  0.1930
10761TIP3   OH253697   6.728   6.586  17.120  0.1787 -0.6151  0.3094
10761TIP3    H153698   6.722   6.652  17.051 -1.3840 -0.7828  0.2701
10761TIP3    H253699   6.728   6.637  17.202 -0.7788 -0.5401  0.2702
10762TIP3   OH253700   3.159   2.291   2.553  0.2868  0.2236 -0.1427
10762TIP3    H153701   3.193   2.250   2.632 -0.1850 -0.7208 -0.4115
10762TIP3    H253702   3.086   2.345   2.584 -2.0550 -2.6690 -0.2174
10763TIP3   OH253703   2.236   2.597   5.227 -0.2366 -0.3250 -0.3093
10763TIP3    H153704   2.328   2.573   5.238 -0.2766 -0.8258 -1.0011
10763TIP3    H253705   2.219   2.660   5.297  0.5033 -0.5858  0.1161
10764TIP3   OH253706   3.742   6.580  14.459 -0.0042  0.6087  0.4454
10764TIP3    H153707   3.697   6.496  14.449 -1.1026  0.9870  1.8846
10764TIP3    H253708   3.778   6.598  14.372 -1.1494 -0.5654 -0.3088
10765TIP3   OH253709   1.392   1.182   5.614 -0.6434 -0.3012 -0.0199
10765TIP3    H153710   1.402   1.126   5.691  0.1661  1.0507  0.8971
10765TIP3    H253711   1.399   1.271   5.648 -2.7436  0.4203 -1.3128
10766TIP3   OH253712   4.054   3.463   5.119 -0.0535  0.1881  0.0059
10766TIP3    H153713   4.087   3.377   5.146 -0.6263 -0.2883 -0.7758
10766TIP3    H253714   4.117   3.525   5.156  1.7789 -0.6951 -1.4478
10767TIP3   OH253715   1.223   1.813  13.377  0.0135  0.3660  0.0919
10767TIP3    H153716   1.246   1.894  13.332  0.4559 -0.1438 -0.6278
10767TIP3    H253717   1.144   1.834  13.427 -2.1963  0.2590 -3.0597
10768TIP3   OH253718   0.643   2.158   0.172  0.8982  0.4018  0.3050
10768TIP3    H153719   0.696   2.153   0.093 -0.5718 -0.8697 -0.6596
10768TIP3    H253720   0.699   2.201   0.236  2.8346 -0.2919 -0.8539
10769TIP3   OH253721   0.629   3.645   0.318  0.3067 -0.9597  0.5436
10769TIP3    H153722   0.534   3.644   0.329  0.3753 -1.5383  1.1515
10769TIP3    H253723   0.649   3.733   0.287 -0.3724 -0.6536  0.9549
10770TIP3   OH253724   1.898   4.239  15.306 -0.4164 -0.6254  0.1619
10770TIP3    H153725   1.912   4.330  15.282  0.6942 -0.3146  1.8141
10770TIP3    H253726   1.983   4.197  15.291 -0.5625 -1.0917  0.5893
10771TIP3   OH253727   6.348   2.892  12.381  0.0833  0.0715 -0.5171
10771TIP3    H153728   6.329   2.824  12.317 -0.2908  0.2154 -0.5615
10771TIP3    H253729   6.295   2.868  12.457  0.5441 -0.1134 -0.2499
10772TIP3   OH253730   4.253   5.048   5.313 -0.0371 -0.3446  0.0048
10772TIP3    H153731   4.241   5.004   5.397 -0.4568 -1.9090 -0.8304
10772TIP3    H253732   4.344   5.078   5.315  1.0885 -3.3551 -0.2525
10773TIP3   OH253733   0.287   1.115   2.159  0.3308  0.3205  0.0402
10773TIP3    H153734   0.253   1.141   2.244  1.0924 -0.7241  0.6819
10773TIP3    H253735   0.382   1.113   2.170  0.4076 -0.4616 -0.6359
10774TIP3   OH253736   1.925   1.260   5.739  0.0757 -0.4869 -0.5535
10774TIP3    H153737   1.831   1.277   5.738  0.0897  0.1174  1.9664
10774TIP3    H253738   1.935   1.178   5.691 -1.9654 -1.4279  0.4982
10775TIP3   OH253739   6.154   3.057  11.418  0.2877  0.3399  0.0202
10775TIP3    H153740   6.244   3.089  11.426  0.3111 -0.2364  3.0153
10775TIP3    H253741   6.123   3.048  11.508 -2.5861 -0.0835 -0.9000
10776TIP3   OH253742   5.656   2.378   0.460 -0.2638 -0.5750 -0.1235
10776TIP3    H153743   5.610   2.352   0.541  0.5350  0.8320  0.8188
10776TIP3    H253744   5.638   2.472   0.452 -0.8028 -0.7999 -1.9256
10777TIP3   OH253745   3.361   3.845   0.895 -0.2121  0.2179  0.4225
10777TIP3    H153746   3.366   3.921   0.953  0.7482  1.3876 -1.1118
10777TIP3    H253747   3.271   3.846   0.861  0.2795  1.8429 -1.0064
10778TIP3   OH253748   6.046   5.948  15.599  0.1167  0.0895  0.2062
10778TIP3    H153749   6.029   5.893  15.522  3.3564  1.0517 -1.3753
10778TIP3    H253750   6.122   6.001  15.574  1.9511 -0.1897  4.4311
10779TIP3   OH253751   3.175   4.302   5.909 -0.0936 -0.0333 -0.0704
10779TIP3    H153752   3.189   4.388   5.870 -2.5547 -0.1672 -1.5186
10779TIP3    H253753   3.109   4.317   5.978 -0.3439 -0.7028 -0.1507
10780TIP3   OH253754   4.430   0.751   5.848  0.2407  0.2158 -0.2059
10780TIP3    H153755   4.385   0.832   5.823  0.6051  0.3215 -0.5269
10780TIP3    H253756   4.403   0.687   5.782  1.4668  0.5818 -1.0895
10781TIP3   OH253757   6.459   3.916   3.375  0.1199 -0.2198 -0.0424
10781TIP3    H153758   6.426   3.866   3.450 -0.5024  0.2412 -0.0105
10781TIP3    H253759   6.544   3.875   3.355  0.1287 -0.5689  0.6885
10782TIP3   OH253760   1.037   1.045  13.133  0.0438 -0.7545  0.1585
10782TIP3    H153761   1.111   0.994  13.166 -0.8247 -1.7868  0.5630
10782TIP3    H253762   0.965   0.983  13.130 -0.8733  0.2970 -0.0113
10783TIP3   OH253763   0.683   0.141   3.014 -0.2005  0.7686  0.2315
10783TIP3    H153764   0.757   0.082   2.998 -0.6338  0.0622  0.7671
10783TIP3    H253765   0.652   0.164   2.927 -1.6111 -1.8473 -0.0887
10784TIP3   OH253766   0.709   1.691  13.600 -0.6394  0.0288  0.1484
10784TIP3    H153767   0.717   1.735  13.684 -1.5081  0.6591 -0.0809
10784TIP3    H253768   0.702   1.598  13.622  0.5613  0.0425  0.6699
10785TIP3   OH253769   0.018   1.979   1.679 -0.2725  0.6191 -0.3052
10785TIP3    H153770   0.064   1.901   1.649  1.1766  1.8259 -1.3937
10785TIP3    H253771   0.083   2.027   1.730 -1.2988  0.8792  0.8082
10786TIP3   OH253772   6.465   5.588  15.920 -0.4110  0.1391 -0.0595
10786TIP3    H153773   6.506   5.508  15.954  0.1955  0.3743 -0.2131
10786TIP3    H253774   6.512   5.659  15.965  0.0315  0.4423 -0.9649
10787TIP3   OH253775   2.556   3.941  11.108 -0.3694 -0.3686 -0.1778
10787TIP3    H153776   2.499   4.017  11.120  1.3417  0.8633  0.6681
10787TIP3    H253777   2.501   3.876  11.065 -2.5731  0.5003  1.1459
10788TIP3   OH253778   2.692   3.177  16.650  0.5330 -0.3391 -0.3660
10788TIP3    H153779   2.762   3.112  16.639  1.6519  0.5983  0.9303
10788TIP3    H253780   2.666   3.169  16.742  1.2631  1.5749  0.0478
10789TIP3   OH253781   3.835   5.893  10.940 -0.1328 -0.7065  0.0110
10789TIP3    H153782   3.764   5.891  10.875 -0.2746 -1.7014  0.1782
10789TIP3    H253783   3.854   5.986  10.952 -0.8753 -0.4615 -0.6169
10790TIP3   OH253784   0.173   0.600   2.346  0.1359  0.0010 -0.0686
10790TIP3    H153785   0.233   0.644   2.286 -0.6866  1.7804  0.3679
10790TIP3    H253786   0.161   0.662   2.417 -3.6477  0.5271 -0.9901
10791TIP3   OH253787   5.366   4.963   1.537 -0.0716 -0.4903 -0.1117
10791TIP3    H153788   5.306   5.003   1.600 -0.2111 -0.0918 -0.4958
10791TIP3    H253789   5.446   4.947   1.587 -0.6524 -1.4941  0.5481
10792TIP3   OH253790   1.783   2.209   1.485 -0.3938 -0.5510  0.3062
10792TIP3    H153791   1.720   2.185   1.418 -0.1751 -0.5122  0.0831
10792TIP3    H253792   1.864   2.164   1.459 -0.1012  0.0675  0.1251
10793TIP3   OH253793   4.977   5.174   0.770  0.2691  0.0314  0.5865
10793TIP3    H153794   4.994   5.179   0.864 -0.2810  0.6603  0.6586
10793TIP3    H253795   4.958   5.264   0.745 -4.4641 -0.6845  0.7963
10794TIP3   OH253796   3.102   1.216  12.722 -0.2153  0.1946 -0.2738
10794TIP3    H153797   3.141   1.243  12.805 -0.4239  2.5408 -0.8678
10794TIP3    H253798   3.084   1.298  12.676  0.6391 -1.0441 -3.0037
10795TIP3   OH253799   2.178   4.746  14.454  0.3450 -0.8813  0.3039
10795TIP3    H153800   2.238   4.820  14.449 -0.1587 -0.4189  1.0214
10795TIP3    H253801   2.145   4.736  14.365  1.6393 -1.2865 -0.1551
10796TIP3   OH253802   0.213   4.401   0.001 -0.2671  0.0051 -0.4480
10796TIP3    H153803   0.227   4.418   0.094 -2.4116 -0.7852  0.0762
10796TIP3    H253804   0.264   4.469  -0.044 -0.6031  1.5114  1.3280
10797TIP3   OH253805   0.311   6.370  17.318 -0.1189  0.0531  0.2688
10797TIP3    H153806   0.367   6.297  17.293  0.6878  0.9233 -0.5778
10797TIP3    H253807   0.222   6.340  17.300  0.1110 -1.1325  1.0515
10798TIP3   OH253808   2.283   6.127   2.035 -0.0460 -0.4098 -0.0517
10798TIP3    H153809   2.208   6.087   2.078 -1.2757  1.1136 -0.6927
10798TIP3    H253810   2.333   6.168   2.106 -0.2773 -0.7122  0.2847
10799TIP3   OH253811   0.106   2.197   3.862  0.3848 -0.1385 -0.3504
10799TIP3    H153812   0.081   2.208   3.770 -0.1996  0.2343 -0.1478
10799TIP3    H253813   0.200   2.179   3.859  0.1057 -1.7301 -1.1416
10800TIP3   OH253814   5.892   6.288   3.217  0.1295  0.1881  0.0846
10800TIP3    H153815   5.902   6.199   3.181  1.8546  1.0208 -1.6745
10800TIP3    H253816   5.981   6.323   3.219 -0.7228  2.6358 -1.3058
10801TIP3   OH253817   3.570   0.113  14.895  0.1997 -0.8691  0.2536
10801TIP3    H153818   3.513   0.136  14.968  0.1202 -2.6463  0.8032
10801TIP3    H253819   3.593   0.197  14.855 -1.6245 -0.0035  0.8904
10802TIP3   OH253820   0.582   1.891  14.974  0.6437 -0.3698 -0.3706
10802TIP3    H153821   0.513   1.889  14.907  0.8983  1.2815 -0.7201
10802TIP3    H253822   0.662   1.869  14.927  0.7876  0.5663 -0.5740
10803TIP3   OH253823   6.658   0.334   4.710  0.0664 -0.0783  0.7130
10803TIP3    H153824   6.623   0.422   4.719 -0.1919  0.1407 -1.7991
10803TIP3    H253825   6.672   0.305   4.800 -0.4100  2.2706  1.6200
10804TIP3   OH253826   5.922   1.687   5.118 -0.0586  0.4721 -0.2655
10804TIP3    H153827   5.962   1.632   5.185 -0.9811  0.1917  0.0684
10804TIP3    H253828   5.974   1.670   5.039  1.2081  1.0184  0.4305
10805TIP3   OH253829   4.342   6.338   3.280 -0.4942 -0.8361  0.4704
10805TIP3    H153830   4.267   6.280   3.265 -1.9762  0.9383  0.6474
10805TIP3    H253831   4.339   6.358   3.373 -0.7069  0.3607  0.2348
10806TIP3   OH253832   1.237   5.425   5.673 -0.2098  0.0259 -0.1571
10806TIP3    H153833   1.202   5.461   5.592 -1.3404 -1.0087 -0.1525
10806TIP3    H253834   1.231   5.498   5.735  0.1136  0.6485 -0.8408
10807TIP3   OH253835   2.753   5.937   0.077  0.5963 -0.1966  0.9777
10807TIP3    H153836   2.697   6.013   0.091 -3.9525 -2.3795 -2.4952
10807TIP3    H253837   2.818   5.967   0.013  0.8519  1.4083  1.9297
10808TIP3   OH253838   1.362   3.895  16.536  0.4799  0.1108  0.6184
10808TIP3    H153839   1.344   3.965  16.473 -2.0519 -1.8051 -0.9689
10808TIP3    H253840   1.320   3.924  16.617  1.1060  1.2167  0.5775
10809TIP3   OH253841   3.373   1.367   4.017 -0.4680 -0.0091 -1.0095
10809TIP3    H153842   3.365   1.453   3.977 -1.1208  0.3400 -0.1629
10809TIP3    H253843   3.300   1.363   4.079 -0.0667 -0.9172 -0.5841
10810TIP3   OH253844   2.079   0.440   2.391  0.1016  0.2734  0.0887
10810TIP3    H153845   2.024   0.370   2.428  0.3512  0.0341  0.0141
10810TIP3    H253846   2.129   0.473   2.465 -0.7631  1.0779  0.3225
10811TIP3   OH253847   6.598   4.535  14.090  0.0537 -0.0231 -0.4045
10811TIP3    H153848   6.589   4.497  14.003 -0.1378 -0.0199 -0.3858
10811TIP3    H253849   6.587   4.462  14.150 -0.5573  0.1020 -0.3601
10812TIP3   OH253850   2.386   3.713   2.842  0.1891 -0.2550 -0.3025
10812TIP3    H153851   2.402   3.798   2.883 -0.0856 -0.3791  0.0666
10812TIP3    H253852   2.470   3.667   2.849 -0.6089 -1.4411  2.8985
10813TIP3   OH253853   3.933   0.471   6.123 -0.0565  0.6230  0.2371
10813TIP3    H153854   3.856   0.525   6.143 -0.0710  2.0756 -3.1043
10813TIP3    H253855   4.001   0.502   6.183 -0.6292  3.0037 -0.2664
10814TIP3   OH253856   5.084   6.305   1.323 -0.0927 -0.4274  0.3884
10814TIP3    H153857   5.016   6.261   1.271 -1.8526 -0.1557  2.3667
10814TIP3    H253858   5.036   6.362   1.383  1.9575  0.6925  1.0477
10815TIP3   OH253859   5.450   1.524   4.385  0.3364 -0.4683 -0.3231
10815TIP3    H153860   5.477   1.598   4.332 -0.0712 -0.7003 -0.8596
10815TIP3    H253861   5.358   1.508   4.361  0.2353 -0.7657  0.2232
10816TIP3   OH253862   4.130   5.717   1.955  0.2844 -0.1658 -0.1133
10816TIP3    H153863   4.064   5.753   1.895 -0.0155  1.1395  0.9426
10816TIP3    H253864   4.193   5.674   1.898 -0.7241 -0.1840 -1.2599
10817TIP3   OH253865   2.794   0.329  10.568 -0.4168 -0.2130  0.0578
10817TIP3    H153866   2.744   0.402  10.532 -0.4559 -0.1745  0.1896
10817TIP3    H253867   2.859   0.370  10.625  0.0195 -0.2377 -0.4138
10818TIP3   OH253868   3.509   5.689   4.529  0.1928  0.2111 -0.3336
10818TIP3    H153869   3.529   5.696   4.436 -0.3876  0.4561 -0.4488
10818TIP3    H253870   3.503   5.595   4.546  0.2131  0.1677 -0.5667
10819TIP3   OH253871   5.738   1.094  15.834  0.1661 -0.3038  0.1048
10819TIP3    H153872   5.727   1.167  15.772  0.8363 -0.7223 -0.5251
10819TIP3    H253873   5.812   1.120  15.889  1.0597 -0.9281 -0.7695
10820TIP3   OH253874   6.500   3.498   1.299 -0.1035 -0.2712 -0.2167
10820TIP3    H153875   6.522   3.542   1.217  2.4704  0.8487  0.9710
10820TIP3    H253876   6.463   3.566   1.355 -1.8989 -1.0382 -0.3831
10821TIP3   OH253877   0.867   3.196  17.061  0.4810 -0.2614 -0.8846
10821TIP3    H153878   0.906   3.249  16.991  1.8098  1.5698  1.1308
10821TIP3    H253879   0.932   3.198  17.131 -0.3227 -2.9517  0.0536
10822TIP3   OH253880   3.747   2.073  11.481 -0.0239 -0.2289 -0.5504
10822TIP3    H153881   3.722   2.035  11.566 -1.0612  0.4841 -0.5224
10822TIP3    H253882   3.683   2.038  11.420 -0.9431  1.3497 -0.5442
10823TIP3   OH253883   0.913   6.173  12.740 -0.2968  0.4868 -0.3575
10823TIP3    H153884   0.982   6.166  12.806 -0.6738  0.6955  0.0661
10823TIP3    H253885   0.938   6.250  12.688  1.3659 -1.1237 -2.0978
10824TIP3   OH253886   5.932   1.204  15.975  0.1789 -0.0263 -0.4706
10824TIP3    H153887   5.905   1.270  16.039  2.5113 -0.4152  1.0179
10824TIP3    H253888   5.992   1.249  15.916  0.8328 -0.4985 -0.1835
10825TIP3   OH253889   3.807   1.089   3.162  0.2276  0.3802  0.2352
10825TIP3    H153890   3.815   1.171   3.209  0.2533  0.4587  0.0949
10825TIP3    H253891   3.866   1.098   3.087 -2.0067  1.4564 -1.5006
10826TIP3   OH253892   1.942   2.511   5.147  0.4808  0.3498  0.3301
10826TIP3    H153893   1.941   2.585   5.207  0.4413 -0.5848  1.5147
10826TIP3    H253894   2.035   2.493   5.131  0.5330  2.1887 -1.9775
10827TIP3   OH253895   4.475   1.993   1.290 -1.1333 -0.5399  0.3861
10827TIP3    H153896   4.497   1.911   1.334  0.1303 -0.2500  0.3518
10827TIP3    H253897   4.512   2.061   1.347  1.9107 -0.2004 -1.7370
10828TIP3   OH253898   2.336   4.800   3.043 -0.4146 -0.6632  0.6742
10828TIP3    H153899   2.382   4.716   3.041  2.5821  0.8591  0.8481
10828TIP3    H253900   2.321   4.821   2.950 -2.9815 -2.1725  0.6359
10829TIP3   OH253901   3.915   1.600  12.624  0.2817 -0.5343  0.1400
10829TIP3    H153902   3.840   1.656  12.604 -0.2646 -1.2288  0.2021
10829TIP3    H253903   3.878   1.528  12.675  1.0094 -0.8405  0.2442
10830TIP3   OH253904   0.173   5.731  15.010 -0.0901 -0.5058  0.1917
10830TIP3    H153905   0.138   5.820  15.004 -0.5188 -0.5509  1.7488
10830TIP3    H253906   0.120   5.688  15.077  0.3888 -1.8150 -0.2394
10831TIP3   OH253907   3.371   4.656   5.245  0.0849  0.4161  0.1105
10831TIP3    H153908   3.466   4.673   5.246  0.0410  0.8078 -0.8103
10831TIP3    H253909   3.337   4.706   5.319  0.6391 -0.0211  0.6686
10832TIP3   OH253910   3.551   0.388  15.869  0.3127  0.0828 -0.1195
10832TIP3    H153911   3.528   0.312  15.816  3.6443  0.5831 -2.6140
10832TIP3    H253912   3.613   0.355  15.934 -1.5934 -0.0018  1.7659
10833TIP3   OH253913   4.972   1.970  15.346  0.1987 -0.4454  0.1244
10833TIP3    H153914   5.007   1.975  15.435  1.2745  0.1206 -0.3129
10833TIP3    H253915   4.880   1.993  15.355  0.1372 -1.0603  1.1799
10834TIP3   OH253916   5.143   5.118   4.398  0.1150 -0.0698 -0.0411
10834TIP3    H153917   5.181   5.071   4.472 -3.5047 -2.0375  0.7831
10834TIP3    H253918   5.092   5.189   4.439  1.9810  1.9628 -1.0419
10835TIP3   OH253919   5.097   4.196  14.441  0.1771  0.1799  0.0660
10835TIP3    H153920   5.067   4.251  14.513  0.3328 -0.3714  0.5662
10835TIP3    H253921   5.097   4.107  14.477  0.4620 -0.0786 -0.5483
10836TIP3   OH253922   3.863   2.494   4.072 -0.0035  0.0191 -0.1255
10836TIP3    H153923   3.887   2.572   4.022  1.3395  0.8183  1.6605
10836TIP3    H253924   3.926   2.428   4.044 -1.1154 -0.4699 -1.6092
10837TIP3   OH253925   1.485   4.237   2.659 -0.0200  0.2553  0.2747
10837TIP3    H153926   1.437   4.171   2.610 -0.1005 -0.2534  1.0201
10837TIP3    H253927   1.416   4.287   2.704  0.1218 -2.2055  3.5810
10838TIP3   OH253928   0.026   2.213  12.994  0.4512 -0.3542  1.0232
10838TIP3    H153929  -0.040   2.167  13.045 -0.0682 -1.2197 -0.3848
10838TIP3    H253930   0.063   2.146  12.936  1.6264  0.4095  0.8638
10839TIP3   OH253931   2.203   5.612   0.262  0.0425  0.3256 -0.2545
10839TIP3    H153932   2.225   5.630   0.171 -0.1790  1.3962 -0.1034
10839TIP3    H253933   2.139   5.541   0.258  0.4333  0.0091 -0.9003
10840TIP3   OH253934   2.720   1.642  15.237  0.5202  0.2392 -0.5148
10840TIP3    H153935   2.809   1.642  15.202  0.7453  1.6095  0.0159
10840TIP3    H253936   2.681   1.723  15.204 -0.0613  0.3627  0.4479
10841TIP3   OH253937   1.384   4.703   0.774  0.2321  0.0139 -0.5029
10841TIP3    H153938   1.438   4.700   0.696  0.2093  0.3401 -0.5326
10841TIP3    H253939   1.390   4.794   0.804  0.0397 -0.0491 -0.2682
10842TIP3   OH253940   5.990   2.663   6.371 -0.0262 -0.4914  0.2635
10842TIP3    H153941   5.979   2.732   6.306  0.3927 -0.7492 -0.0901
10842TIP3    H253942   6.085   2.653   6.380 -0.0399  0.6210  2.0922
10843TIP3   OH253943   4.001   2.802   0.081  0.0411 -0.0028 -0.5924
10843TIP3    H153944   4.091   2.833   0.085  0.3676 -0.3914 -3.1180
10843TIP3    H253945   3.976   2.787   0.172  1.7754  2.1418  0.3099
10844TIP3   OH253946   0.982   3.295  15.883 -0.1897 -0.7381 -0.2697
10844TIP3    H153947   0.906   3.258  15.929  0.5312 -1.5092  0.3111
10844TIP3    H253948   0.958   3.289  15.790 -1.4778  0.4545 -0.0467
10845TIP3   OH253949   4.279   0.858  15.033  0.6931 -0.4779 -0.2246
10845TIP3    H153950   4.315   0.825  15.116  1.6546  0.3657 -0.2743
10845TIP3    H253951   4.209   0.917  15.060  1.2929  0.1418  0.0398
10846TIP3   OH253952   0.435   4.354  11.427  0.7469 -0.0917 -0.4110
10846TIP3    H153953   0.432   4.259  11.441  2.9362 -0.0417  0.7185
10846TIP3    H253954   0.478   4.364  11.342  3.0504 -0.1312  0.6758
10847TIP3   OH253955   4.372   2.557   6.585 -0.1755 -0.2570  0.0814
10847TIP3    H153956   4.431   2.560   6.660  0.3346 -2.6224 -0.1568
10847TIP3    H253957   4.307   2.491   6.609 -0.0235 -1.0192 -1.5250
10848TIP3   OH253958   1.329   3.063   2.550 -0.1219 -0.7005 -0.3945
10848TIP3    H153959   1.275   3.127   2.597  2.4218  1.0836  0.3529
10848TIP3    H253960   1.382   3.022   2.619  2.7656  1.0392 -1.3612
10849TIP3   OH253961   4.455   4.305  16.474 -0.6493 -0.0321  0.8217
10849TIP3    H153962   4.470   4.396  16.451 -1.1509  0.1442  1.1540
10849TIP3    H253963   4.447   4.306  16.570 -0.6596 -0.4216  0.8262
10850TIP3   OH253964   2.805   4.776   6.794 -0.3287  0.1174 -0.3662
10850TIP3    H153965   2.839   4.742   6.877 -1.3225  0.0732  0.0327
10850TIP3    H253966   2.825   4.707   6.731 -1.0010 -0.5829  0.1580
10851TIP3   OH253967   2.315   3.322  12.097  0.4091  0.1716  0.0550
10851TIP3    H153968   2.234   3.288  12.135  1.4227 -0.4699  1.7267
10851TIP3    H253969   2.364   3.245  12.071  0.8665  0.5234 -0.1337
10852TIP3   OH253970   0.547   0.552  12.404 -0.7649 -0.4521  0.2794
10852TIP3    H153971   0.610   0.612  12.443  0.5893  0.0066 -2.3604
10852TIP3    H253972   0.463   0.596  12.413 -0.1602  0.6561  0.6639
10853TIP3   OH253973   6.443   6.595   2.150 -0.0164 -0.3261  0.2945
10853TIP3    H153974   6.448   6.571   2.058 -0.1154 -2.5445  0.8125
10853TIP3    H253975   6.391   6.525   2.190 -1.3443  1.4090  1.7880
10854TIP3   OH253976   4.000   3.892   5.673 -0.1732  0.3783 -0.7877
10854TIP3    H153977   3.945   3.966   5.699  0.7687  0.9575 -0.3501
10854TIP3    H253978   3.977   3.822   5.734  0.8789  1.2177  0.6526
10855TIP3   OH253979   2.650   1.543  13.553  0.1258  0.5412 -0.3669
10855TIP3    H153980   2.573   1.529  13.498  0.0944  0.7728 -0.3853
10855TIP3    H253981   2.633   1.490  13.631 -1.4915  2.8880  1.0015
10856TIP3   OH253982   6.330   5.824  15.674 -0.0310 -0.4898 -0.0936
10856TIP3    H153983   6.250   5.796  15.628 -0.4540  2.7831 -1.6261
10856TIP3    H253984   6.298   5.860  15.757 -0.0767  0.0760 -0.3536
10857TIP3   OH253985   2.954   5.546  12.730  0.2140  0.0127  0.0135
10857TIP3    H153986   2.983   5.473  12.784 -0.7159 -0.8275 -0.5813
10857TIP3    H253987   2.956   5.622  12.788  2.4351 -0.1951  0.2993
10858TIP3   OH253988   6.341   2.880   1.338 -0.0180  0.6728 -0.0679
10858TIP3    H153989   6.372   2.800   1.297 -0.9433  0.7369 -0.9521
10858TIP3    H253990   6.362   2.870   1.430 -0.8071 -0.9410 -0.0274
10859TIP3   OH253991   4.009   3.932   0.572  0.0217 -0.1777  0.0726
10859TIP3    H153992   3.963   3.994   0.515  0.6424  0.2862  0.0613
10859TIP3    H253993   4.003   3.848   0.527 -1.9708 -0.4399  0.7060
10860TIP3   OH253994   6.590   6.594   2.416  0.0290  0.4542  1.1072
10860TIP3    H153995   6.550   6.566   2.334 -0.0506  1.2902  0.8623
10860TIP3    H253996   6.672   6.544   2.420 -1.1574 -1.5761  1.8145
10861TIP3   OH253997   4.618   5.279   1.842  0.6957  0.2719 -1.0003
10861TIP3    H153998   4.634   5.237   1.758 -0.5356 -2.5253  0.0532
10861TIP3    H253999   4.597   5.208   1.901 -2.0754  2.4047  0.8521
10862TIP3   OH254000   3.437   4.262  11.046  0.0375 -0.0799 -0.8483
10862TIP3    H154001   3.360   4.313  11.073 -0.0590  0.3755 -1.9618
10862TIP3    H254002   3.506   4.327  11.034  0.2362 -0.3423 -1.1338
10863TIP3   OH254003   6.100   2.142   5.993 -1.1449  0.3744  0.8511
10863TIP3    H154004   6.079   2.138   6.087  0.3427 -1.5044  1.1789
10863TIP3    H254005   6.036   2.203   5.956 -2.7251  0.0203  2.8311
10864TIP3   OH254006   0.215   5.497   4.404  0.0789 -0.4137 -0.1505
10864TIP3    H154007   0.220   5.586   4.368 -0.0099 -0.6121 -0.6647
10864TIP3    H254008   0.195   5.510   4.496 -0.0388  0.1022 -0.2420
10865TIP3   OH254009   4.753   2.015  11.396  0.3272  0.5810 -0.2278
10865TIP3    H154010   4.670   1.986  11.359  0.2295  0.2184  0.2625
10865TIP3    H254011   4.736   2.020  11.491  1.1135 -0.3422 -0.0297
10866TIP3   OH254012   2.941   4.248  12.962  0.5896 -0.3659  0.9680
10866TIP3    H154013   3.034   4.265  12.970  0.5584  0.3286 -0.0100
10866TIP3    H254014   2.905   4.272  13.048  1.1992  0.1540  1.0870
10867TIP3   OH254015   0.973   2.222   2.245  0.1635 -0.3443 -0.1791
10867TIP3    H154016   1.032   2.297   2.244  1.2662 -1.1802  0.2738
10867TIP3    H254017   0.947   2.210   2.154 -0.0149  0.5686 -0.2541
10868TIP3   OH254018   3.289   3.523   0.206 -0.5706  0.0065 -0.2755
10868TIP3    H154019   3.309   3.611   0.174 -1.4343  0.4151  0.2853
10868TIP3    H254020   3.365   3.500   0.260 -0.1072  0.1940 -0.8427
10869TIP3   OH254021   6.443   3.535   2.415  0.6408  0.7011 -0.3279
10869TIP3    H154022   6.527   3.532   2.461  0.1305  2.2095  0.7919
10869TIP3    H254023   6.383   3.486   2.472  0.3029  1.4165 -0.0656
10870TIP3   OH254024   2.826   1.180  14.548 -0.6158  0.5585  0.8881
10870TIP3    H154025   2.732   1.164  14.536 -0.3744  0.1628 -0.7715
10870TIP3    H254026   2.868   1.107  14.502  0.4955  1.1429  0.9647
10871TIP3   OH254027   3.978   0.410   2.665  0.1581  0.0736 -0.3741
10871TIP3    H154028   4.066   0.378   2.649  0.9978  0.9567  2.0243
10871TIP3    H254029   3.932   0.338   2.708 -0.7003 -0.7516 -2.5180
10872TIP3   OH254030   3.569   0.076   0.447  0.3098  0.2580  0.3573
10872TIP3    H154031   3.553   0.100   0.355  0.7405  0.3811  0.3126
10872TIP3    H254032   3.603   0.156   0.487 -0.7415  0.4829  0.8563
10873TIP3   OH254033   0.994   4.768  12.692 -0.0659  0.0736  0.0062
10873TIP3    H154034   0.946   4.740  12.770 -1.0974 -1.4280 -1.1115
10873TIP3    H254035   0.931   4.760  12.621  1.4046 -0.5094 -1.2868
10874TIP3   OH254036   1.657   4.242   4.332 -0.7331  0.2513  0.0569
10874TIP3    H154037   1.596   4.191   4.386 -1.4845 -0.0258 -1.0137
10874TIP3    H254038   1.604   4.312   4.295 -1.1948 -1.6076 -3.1597
10875TIP3   OH254039   3.954   3.970  15.768 -0.5734  0.0026  0.0992
10875TIP3    H154040   3.949   4.059  15.733  0.2805  0.3803  0.8821
10875TIP3    H254041   4.011   3.978  15.845  0.9230 -1.5148 -0.7798
10876TIP3   OH254042   3.124   5.882  13.327 -0.3868  0.0427 -0.0880
10876TIP3    H154043   3.215   5.898  13.351  0.1137  1.1012 -2.3864
10876TIP3    H254044   3.088   5.969  13.310 -1.3452 -0.4598 -0.7457
10877TIP3   OH254045   0.303   3.454   4.429 -0.0761 -0.0613 -0.2833
10877TIP3    H154046   0.276   3.381   4.485  0.3317  0.2994  0.3984
10877TIP3    H254047   0.323   3.414   4.345  0.5489 -0.8082  0.2043
10878TIP3   OH254048   3.972   1.805   3.700 -0.5694  0.2177  0.0237
10878TIP3    H154049   3.988   1.879   3.642 -0.5405 -0.0813 -0.3510
10878TIP3    H254050   3.949   1.733   3.642  0.9679 -0.5056  0.2689
10879TIP3   OH254051   0.092   5.559   2.373  0.0423  0.2737 -0.3902
10879TIP3    H154052   0.168   5.576   2.428 -0.7096  0.4048  0.6418
10879TIP3    H254053   0.058   5.646   2.352 -0.6442  0.1993  0.3549
10880TIP3   OH254054   3.830   4.507  16.257 -0.0016  0.0755  0.5744
10880TIP3    H154055   3.839   4.591  16.213  1.0516 -0.9521 -1.2738
10880TIP3    H254056   3.736   4.500  16.278 -1.0401 -0.2698 -3.4590
10881TIP3   OH254057   1.821   1.061  15.214  0.2842  0.4795  0.1815
10881TIP3    H154058   1.845   1.102  15.297  0.9215 -0.3176  0.4077
10881TIP3    H254059   1.777   1.130  15.165  0.2660  1.0803  1.0165
10882TIP3   OH254060   1.268   4.473  16.931  0.3034  0.3757  0.0501
10882TIP3    H154061   1.263   4.434  16.844 -1.4036 -0.3460  0.4431
10882TIP3    H254062   1.246   4.565  16.917 -0.1918  0.2123 -0.2481
10883TIP3   OH254063   6.274   3.179   1.948  0.0293  0.3437 -0.3922
10883TIP3    H154064   6.324   3.253   1.914  0.4546  0.5691  0.6855
10883TIP3    H254065   6.197   3.218   1.989  0.6585  0.2603  0.8837
10884TIP3   OH254066   0.275   3.212   3.876 -0.6183  0.0194  0.0088
10884TIP3    H154067   0.362   3.229   3.840 -1.3669 -0.4315 -2.1046
10884TIP3    H254068   0.291   3.151   3.948  0.6829 -1.3063 -1.3332
10885TIP3   OH254069   0.048   1.695   0.984 -0.0487  0.1046  0.4269
10885TIP3    H154070   0.008   1.774   1.020  0.3845  0.4578  0.1495
10885TIP3    H254071   0.032   1.700   0.890  0.2108  0.0008  0.3743
10886TIP3   OH254072   6.609   3.818  16.770 -0.3976 -0.2184  0.8964
10886TIP3    H154073   6.574   3.907  16.766  0.3069  0.0228 -0.2389
10886TIP3    H254074   6.686   3.820  16.713  1.2737 -0.8386  3.0226
10887TIP3   OH254075   1.194   3.211  15.265  0.2808 -0.2336  0.2092
10887TIP3    H154076   1.147   3.136  15.228  0.3757  0.3667 -1.1972
10887TIP3    H254077   1.277   3.174  15.296  0.1552 -0.7841 -0.0903
10888TIP3   OH254078   2.990   5.248   1.472  0.1609  0.2512 -0.0353
10888TIP3    H154079   2.911   5.205   1.441  0.3901 -3.0954  3.2428
10888TIP3    H254080   2.960   5.308   1.540  0.3172  0.4617 -0.1496
10889TIP3   OH254081   6.538   4.913   5.950  0.2509 -0.3684  0.1066
10889TIP3    H154082   6.581   4.997   5.933  0.4472 -0.3227  0.7999
10889TIP3    H254083   6.570   4.855   5.880  2.4143 -0.6742  1.2509
10890TIP3   OH254084   5.807   6.021   4.489  0.5695 -0.1836 -0.3135
10890TIP3    H154085   5.768   6.092   4.439  2.9360  0.4823 -1.3745
10890TIP3    H254086   5.750   5.946   4.473 -1.3046  1.1348 -0.1678
10891TIP3   OH254087   0.417   5.814   3.153 -0.1411 -0.6877  0.2229
10891TIP3    H154088   0.367   5.806   3.071 -1.2307 -1.1075  0.9011
10891TIP3    H254089   0.352   5.800   3.222  0.8319 -0.7323  1.1584
10892TIP3   OH254090   0.012   3.030  16.408 -0.8639 -0.2743  0.3877
10892TIP3    H154091  -0.037   2.951  16.386  1.7666 -2.0813  0.6194
10892TIP3    H254092   0.067   3.005  16.482 -0.3679  1.9742  0.8612
10893TIP3   OH254093   0.816   5.530  12.117  0.2984  0.3644  0.2285
10893TIP3    H154094   0.835   5.437  12.126  1.4350  0.4548 -0.9528
10893TIP3    H254095   0.769   5.553  12.197 -2.9126 -1.8952 -0.8306
10894TIP3   OH254096   2.712   5.759   5.927 -0.6794 -0.0822 -0.1628
10894TIP3    H154097   2.733   5.669   5.907  1.6585  0.4253 -0.1983
10894TIP3    H254098   2.785   5.791   5.979 -1.4586  1.7874 -0.1080
10895TIP3   OH254099   0.194   5.334  15.598 -0.4164  0.8426 -0.2250
10895TIP3    H154100   0.250   5.347  15.522 -0.9237  2.3831 -0.3842
10895TIP3    H254101   0.250   5.292  15.663  1.1325  2.8519 -0.1602
10896TIP3   OH254102   4.765   6.379   4.281  0.2826 -0.1071  0.1154
10896TIP3    H154103   4.751   6.470   4.308 -0.6385  0.0256 -0.7561
10896TIP3    H254104   4.716   6.370   4.199  0.9480 -1.1940 -0.1833
10897TIP3   OH254105   5.522   6.628  11.171 -0.2116  0.2778 -0.1455
10897TIP3    H154106   5.584   6.578  11.117 -2.4358 -1.8805 -0.8977
10897TIP3    H254107   5.466   6.561  11.210 -2.2267  2.1325  0.2735
10898TIP3   OH254108   3.256   5.100  13.889 -0.0128 -0.3259  0.1334
10898TIP3    H154109   3.291   5.012  13.876 -0.0825 -0.2256 -0.8071
10898TIP3    H254110   3.256   5.112  13.984  0.6908 -1.0588  0.2377
10899TIP3   OH254111   4.562   1.883   2.266  0.6496  0.2213 -0.9466
10899TIP3    H154112   4.623   1.904   2.195  2.0795  2.4509  0.8247
10899TIP3    H254113   4.617   1.873   2.343 -0.8541 -2.2864 -0.0629
10900TIP3   OH254114   0.818   5.776   4.569  0.0724 -0.5619  1.1418
10900TIP3    H154115   0.854   5.716   4.503  0.6040 -0.5737  1.4366
10900TIP3    H254116   0.744   5.818   4.525 -0.6728 -1.8500  1.1246
10901TIP3   OH254117   1.085   2.248   1.047 -0.7164 -0.1755 -0.2340
10901TIP3    H154118   1.011   2.297   1.081  1.0073  1.7966  0.9038
10901TIP3    H254119   1.102   2.287   0.961  1.8979  2.9255  1.4629
10902TIP3   OH254120   1.317   6.338  11.617  0.6822 -0.4218 -0.1365
10902TIP3    H154121   1.392   6.356  11.560  0.6461 -1.4690 -0.5347
10902TIP3    H254122   1.259   6.284  11.564  0.3530 -0.8941  0.6811
10903TIP3   OH254123   4.045   1.907   3.383 -0.4867  0.8004 -0.0578
10903TIP3    H154124   4.070   1.921   3.292  0.0510  0.6475  0.0628
10903TIP3    H254125   3.985   1.832   3.380  0.7639 -0.2148 -0.1164
10904TIP3   OH254126   1.912   4.088  16.447  0.3636 -0.1822 -0.0973
10904TIP3    H154127   1.988   4.030  16.436  1.1054  0.7301  0.0522
10904TIP3    H254128   1.875   4.095  16.359  1.4331  0.6368 -0.5066
10905TIP3   OH254129   0.701   2.461  12.959 -0.3366 -0.2894 -0.2250
10905TIP3    H154130   0.618   2.479  12.917 -1.0116 -1.1163  0.6947
10905TIP3    H254131   0.677   2.425  13.045  0.9620  2.1443  1.2554
10906TIP3   OH254132   1.909   0.373  14.309  0.5308 -0.1536 -0.1320
10906TIP3    H154133   1.853   0.342  14.238 -0.4578 -0.9096  0.9364
10906TIP3    H254134   1.867   0.453  14.340  1.2636  0.4762 -0.7438
10907TIP3   OH254135   4.995   0.036   0.021 -0.8303  0.0083  0.3795
10907TIP3    H154136   4.975   0.128   0.007 -2.2298 -0.3761 -0.2690
10907TIP3    H254137   5.077   0.022  -0.027 -1.7355  0.4352 -1.3770
10908TIP3   OH254138   6.491   6.102  15.775 -0.7185 -1.2221 -0.3791
10908TIP3    H154139   6.586   6.095  15.776 -0.7168 -1.4927 -1.1566
10908TIP3    H254140   6.463   6.075  15.862 -0.1813 -2.9556 -0.6935
10909TIP3   OH254141   3.371   3.797   2.959  0.4437 -0.3810  0.1889
10909TIP3    H154142   3.310   3.853   3.006 -0.0333 -1.5250  0.9953
10909TIP3    H254143   3.354   3.815   2.866  1.5866  2.1033  0.4105
10910TIP3   OH254144   6.126   4.540   4.221  0.4843  0.0990  0.1245
10910TIP3    H154145   6.195   4.513   4.282 -0.8151 -0.9072  1.2197
10910TIP3    H254146   6.102   4.459   4.176  0.5118  0.5892 -0.7771
10911TIP3   OH254147   6.218   0.004  12.358  0.0008 -0.1256 -0.0150
10911TIP3    H154148   6.127  -0.022  12.376  0.4511 -1.0146  1.0589
10911TIP3    H254149   6.246   0.048  12.438  0.1394  1.2761 -0.8054
10912TIP3   OH254150   0.510   1.698  15.987  0.3472  0.3472 -0.0989
10912TIP3    H154151   0.442   1.746  16.034  1.4459  0.4266  1.4859
10912TIP3    H254152   0.543   1.634  16.051  1.6784  0.2456 -0.8500
10913TIP3   OH254153   2.347   4.365   1.436  0.1569  0.7395 -0.1976
10913TIP3    H154154   2.353   4.301   1.507  0.0399  1.6225  0.6243
10913TIP3    H254155   2.253   4.384   1.429  0.1396  0.4716 -0.7658
10914TIP3   OH254156   0.419   3.739  16.370  0.6230  0.0612  0.2419
10914TIP3    H154157   0.486   3.806  16.357  0.6865 -0.4511 -2.9849
10914TIP3    H254158   0.430   3.680  16.296  0.1656 -3.2740  2.6139
10915TIP3   OH254159   2.872   1.262  12.985  0.2513  0.2057  0.2975
10915TIP3    H154160   2.800   1.216  12.942  0.0610  0.6355  0.1543
10915TIP3    H254161   2.862   1.353  12.958  1.2386  0.1610 -0.2547
10916TIP3   OH254162   0.223   1.979   5.888  0.0725 -0.0439 -0.2346
10916TIP3    H154163   0.146   2.026   5.919 -0.2921 -0.6341 -0.2484
10916TIP3    H254164   0.283   1.980   5.962 -0.5145 -0.8276  0.2650
10917TIP3   OH254165   2.646   5.568   4.992  0.3193 -0.9570 -0.2709
10917TIP3    H154166   2.688   5.497   5.041  0.6578  0.8541  2.2719
10917TIP3    H254167   2.717   5.629   4.974 -0.3908 -0.0642 -0.1046
10918TIP3   OH254168   5.414   2.711   0.156 -0.3157  0.4358 -0.0683
10918TIP3    H154169   5.420   2.647   0.227  1.4100  0.8835  0.2547
10918TIP3    H254170   5.365   2.784   0.193  1.3606  1.0641  1.0352
10919TIP3   OH254171   3.518   6.681   4.961 -0.3089  0.4962 -0.7610
10919TIP3    H154172   3.501   6.771   4.987 -2.0125  0.1075 -0.4170
10919TIP3    H254173   3.433   6.638   4.966  0.3019 -0.9140 -1.8133
10920TIP3   OH254174   2.564   5.675  15.966 -0.1734  0.0276 -0.0670
10920TIP3    H154175   2.592   5.747  15.910 -0.7496  0.5707  0.3184
10920TIP3    H254176   2.553   5.601  15.907 -2.6199  1.0602 -1.0468
10921TIP3   OH254177   5.079   1.555  16.537 -0.3305  0.0373  0.0318
10921TIP3    H154178   5.135   1.611  16.591  1.2034 -0.8743 -0.5512
10921TIP3    H254179   5.036   1.497  16.600  2.4153 -1.8906  0.3023
10922TIP3   OH254180   3.048   6.687  11.844  0.1042 -0.5797  0.2434
10922TIP3    H154181   3.011   6.648  11.765  0.4556 -1.3298  0.4399
10922TIP3    H254182   3.079   6.773  11.816 -1.6079  0.0007  0.0332
10923TIP3   OH254183   0.263   4.822   4.343 -0.7025  0.4592  0.1755
10923TIP3    H154184   0.286   4.754   4.407  2.6517 -0.7235 -2.0485
10923TIP3    H254185   0.340   4.878   4.339 -1.2689  1.1640 -1.9571
10924TIP3   OH254186   5.164   3.585  12.546  0.5711  0.0592 -0.3845
10924TIP3    H154187   5.217   3.517  12.587 -0.1316 -0.9941 -1.1674
10924TIP3    H254188   5.088   3.594  12.603  0.8677  0.5335 -0.0453
10925TIP3   OH254189   4.008   1.998   2.451  0.5545  0.9201 -0.1576
10925TIP3    H154190   4.017   2.088   2.481  0.3350  1.2306 -1.0054
10925TIP3    H254191   3.919   1.972   2.477 -0.0384  1.5569 -1.4717
10926TIP3   OH254192   3.904   0.634   5.344 -0.0539 -0.2657 -0.6101
10926TIP3    H154193   3.993   0.642   5.379 -0.6084 -1.6278  1.3070
10926TIP3    H254194   3.874   0.549   5.376 -1.9020 -0.0227 -1.5818
10927TIP3   OH254195   2.679   0.782  14.007 -0.0878  0.0072 -0.1487
10927TIP3    H154196   2.743   0.752  14.071 -1.5222 -3.2365 -0.0362
10927TIP3    H254197   2.691   0.724  13.932 -1.3782  0.8097 -1.0104
10928TIP3   OH254198   5.148   5.694   4.758 -0.0546  0.0315  0.3520
10928TIP3    H154199   5.130   5.600   4.770 -0.3338  0.1459  0.8765
10928TIP3    H254200   5.243   5.701   4.769  0.0011 -0.2238  0.0602
10929TIP3   OH254201   4.785   0.877  17.204 -0.2113  0.1353 -0.7867
10929TIP3    H154202   4.875   0.899  17.179 -0.3174  1.0304 -0.4433
10929TIP3    H254203   4.733   0.894  17.125 -0.0021 -1.0220 -1.1874
10930TIP3   OH254204   5.181   4.468   0.318  0.1966 -0.2762 -0.0791
10930TIP3    H154205   5.097   4.457   0.272 -0.3384  1.1647  0.5037
10930TIP3    H254206   5.246   4.475   0.248 -0.0981 -1.6896 -0.5370
10931TIP3   OH254207   0.576   0.134   5.582 -0.0574 -0.7432  0.7395
10931TIP3    H154208   0.565   0.050   5.626 -0.3827 -0.8676  0.4220
10931TIP3    H254209   0.667   0.133   5.551  0.1788 -0.6440  1.4226
10932TIP3   OH254210   6.405   3.021  16.286 -0.1077  0.5002 -0.2693
10932TIP3    H154211   6.397   2.938  16.334 -0.4826 -1.0403 -2.7975
10932TIP3    H254212   6.320   3.064  16.298 -0.5034 -0.2671 -0.2760
10933TIP3   OH254213   5.762   5.718   4.886 -0.1239  0.2047 -0.3173
10933TIP3    H154214   5.737   5.690   4.974 -0.7824  1.6470 -0.0144
10933TIP3    H254215   5.762   5.637   4.834 -2.5710 -0.3102  0.3478
10934TIP3   OH254216   4.027   0.172  15.202  0.4147 -0.1699 -0.5310
10934TIP3    H154217   3.976   0.127  15.134 -1.5010 -0.5503  1.0687
10934TIP3    H254218   4.019   0.265  15.179  0.2812 -0.3272 -1.1580
10935TIP3   OH254219   5.851   2.116  13.204 -0.1244  0.3846  0.6742
10935TIP3    H154220   5.773   2.062  13.194  0.4096 -0.1578 -0.9462
10935TIP3    H254221   5.878   2.104  13.295 -1.0568 -0.6390  0.8323
10936TIP3   OH254222   5.581   4.944   3.597 -0.0342 -0.3689 -0.0968
10936TIP3    H154223   5.644   4.872   3.600  0.4068  0.0253  0.6894
10936TIP3    H254224   5.627   5.017   3.639 -0.9594 -0.0210  0.3389
10937TIP3   OH254225   5.949   4.658   2.511 -0.7475  0.1474  0.3822
10937TIP3    H154226   6.025   4.679   2.564 -1.2874  0.5296  1.0172
10937TIP3    H254227   5.985   4.625   2.428  0.1009  1.6572  0.1295
10938TIP3   OH254228   3.345   6.093  12.326  0.1855  0.1906 -0.0242
10938TIP3    H154229   3.286   6.098  12.252  1.3743  1.6349 -0.9158
10938TIP3    H254230   3.346   6.000  12.350 -2.0563  0.0591 -0.2389
10939TIP3   OH254231   3.672   5.841   4.063 -0.5042  0.6268 -0.2311
10939TIP3    H154232   3.763   5.854   4.090  0.1266 -0.2793 -1.7767
10939TIP3    H254233   3.640   5.929   4.043  0.2761  0.8796 -0.3956
10940TIP3   OH254234   6.682   6.059  13.066 -0.1876 -0.2975  0.0400
10940TIP3    H154235   6.679   6.076  13.160 -1.5662  0.3533 -0.0906
10940TIP3    H254236   6.724   5.974  13.058  0.5058 -0.0846  1.1957
10941TIP3   OH254237   4.994   1.257  17.111  0.2830  0.0071  0.6184
10941TIP3    H154238   5.077   1.221  17.141  0.2250  0.4824  1.3835
10941TIP3    H254239   4.929   1.223  17.172 -0.1375 -0.5718 -0.1295
10942TIP3   OH254240   2.722   2.184   1.415 -0.5762  0.2529 -0.7493
10942TIP3    H154241   2.794   2.161   1.356  0.2224  0.0462  0.2902
10942TIP3    H254242   2.751   2.263   1.460  1.1723 -2.2641  3.1168
10943TIP3   OH254243   4.887   5.746   2.212 -0.1087  1.1157 -0.4523
10943TIP3    H154244   4.928   5.663   2.238 -0.3866  0.5672 -1.6898
10943TIP3    H254245   4.823   5.764   2.281 -0.1239  0.2377 -0.2229
10944TIP3   OH254246   2.966   6.672  12.456 -0.0862  0.0756  0.2983
10944TIP3    H154247   2.950   6.654  12.364 -1.0486  1.8894  0.0734
10944TIP3    H254248   2.963   6.767  12.464 -0.3288 -0.0432  2.2459
10945TIP3   OH254249   0.468   6.688  17.038 -0.0301 -0.1373 -0.0618
10945TIP3    H154250   0.441   6.737  17.116  0.3767  0.2012 -0.1263
10945TIP3    H254251   0.406   6.616  17.032  0.0028 -0.2365  0.6489
10946TIP3   OH254252   5.487   0.851  14.882  0.1374 -0.1308 -1.1093
10946TIP3    H154253   5.506   0.787  14.951  1.3468  0.2579 -1.0561
10946TIP3    H254254   5.565   0.850  14.827  0.0307  1.0476 -1.3011
10947TIP3   OH254255   4.060   6.620   3.796 -0.3726  0.4891  0.3919
10947TIP3    H154256   4.085   6.533   3.829 -0.0581  0.4416  0.0426
10947TIP3    H254257   4.007   6.658   3.865  0.4536  0.4816  1.0479
10948TIP3   OH254258   3.344   6.755  16.582 -0.0722  0.0797  0.7546
10948TIP3    H154259   3.325   6.848  16.567  0.0382  0.2659  1.7301
10948TIP3    H254260   3.268   6.722  16.629 -1.0463 -0.8375 -1.3231
10949TIP3   OH254261   4.529   5.489   6.190 -0.0079 -0.2905 -0.1091
10949TIP3    H154262   4.471   5.440   6.248  1.8903 -0.7891  1.4789
10949TIP3    H254263   4.509   5.456   6.102 -0.6876 -1.9274  0.6180
10950TIP3   OH254264   6.629   5.326  11.348  0.6092 -0.3628 -0.1026
10950TIP3    H154265   6.647   5.386  11.275  0.3697 -1.6531 -1.2538
10950TIP3    H254266   6.547   5.283  11.324 -0.3367  0.3153  1.7143
10951TIP3   OH254267   2.609   0.967   2.957  0.0232  0.1745 -0.2017
10951TIP3    H154268   2.520   0.963   2.993  0.9074  0.0749  2.1090
10951TIP3    H254269   2.654   1.031   3.011  0.8425  1.8317 -2.6897
10952TIP3   OH254270   5.029   4.443   3.254 -0.4755 -0.3519 -0.3711
10952TIP3    H154271   5.051   4.379   3.187 -0.8426  0.0098 -0.8467
10952TIP3    H254272   5.111   4.490   3.270 -0.0278 -1.3687  0.4813
10953TIP3   OH254273   3.006   4.681   2.727  0.3765  0.2669  0.0527
10953TIP3    H154274   2.972   4.661   2.640 -0.1619  0.5379  0.1945
10953TIP3    H254275   2.931   4.718   2.774  0.6831  0.1962  0.6052
10954TIP3   OH254276   0.084   2.991  12.068  0.1026  0.2440  0.4901
10954TIP3    H154277   0.024   3.016  11.998  0.6141  1.8889  0.5923
10954TIP3    H254278   0.166   2.970  12.023  0.1470  0.3478  0.5216
10955TIP3   OH254279   2.666   0.972   4.231  0.3268 -0.1449 -0.8502
10955TIP3    H154280   2.624   0.898   4.274 -2.6331  1.2609 -1.0376
10955TIP3    H254281   2.609   0.992   4.156  2.0701  1.1441 -1.9228
10956TIP3   OH254282   2.691   6.403   4.670 -0.3442  0.2620 -0.0904
10956TIP3    H154283   2.614   6.394   4.615 -0.6251  1.8706 -0.0068
10956TIP3    H254284   2.660   6.446   4.750  0.4004 -0.2996  0.5273
10957TIP3   OH254285   4.225   5.969  14.007  0.0880 -0.2868  0.0119
10957TIP3    H154286   4.306   5.926  13.981  0.9840  0.9550  0.6408
10957TIP3    H254287   4.157   5.923  13.959  1.1126 -1.6397 -0.2021
10958TIP3   OH254288   3.675   4.481  13.599  0.2029 -0.2724  0.3819
10958TIP3    H154289   3.606   4.531  13.642 -1.2941 -1.2938 -0.7196
10958TIP3    H254290   3.673   4.396  13.643  0.3489 -0.5046 -0.0611
10959TIP3   OH254291   6.004   6.602  13.177 -0.2743 -0.4107 -0.2952
10959TIP3    H154292   6.031   6.601  13.085  1.6413  4.6410 -0.1035
10959TIP3    H254293   5.953   6.683  13.186 -0.7080 -0.9183  3.0161
10960TIP3   OH254294   4.097   1.087  17.085 -0.4700  0.1960 -0.1624
10960TIP3    H154295   4.105   1.182  17.099  0.9962  0.2700 -1.2296
10960TIP3    H254296   4.151   1.048  17.154 -0.0284  0.2005 -0.5025
10961TIP3   OH254297   4.239   2.320  13.902 -0.2064  0.3879 -0.7880
10961TIP3    H154298   4.254   2.392  13.841  0.1133  0.0706 -1.0906
10961TIP3    H254299   4.145   2.300  13.893 -0.0091 -0.1624 -1.7564
10962TIP3   OH254300   3.168   4.631  14.557  0.3806 -0.2460 -0.2101
10962TIP3    H154301   3.123   4.547  14.547 -0.3849  0.2105 -0.6620
10962TIP3    H254302   3.261   4.609  14.546  0.1603 -0.9721 -0.7293
10963TIP3   OH254303   4.997   5.177   2.489  0.2293  0.5326 -0.7655
10963TIP3    H154304   4.928   5.118   2.520 -0.7335  2.4781  0.9981
10963TIP3    H254305   5.013   5.149   2.399 -0.2372 -2.3177 -0.0505
10964TIP3   OH254306   0.852   5.288  17.369  0.0018  0.2689  0.3080
10964TIP3    H154307   0.837   5.353  17.438  0.7283  0.6335  0.1332
10964TIP3    H254308   0.847   5.339  17.288  0.6042  0.1177  0.1711
10965TIP3   OH254309   4.084   2.641   4.324 -0.5295  0.2137  0.0557
10965TIP3    H154310   4.078   2.623   4.418 -0.4389 -2.4181 -0.3874
10965TIP3    H254311   4.079   2.556   4.282  0.5113  1.2134 -2.3135
10966TIP3   OH254312   0.983   3.728   0.572 -0.5177  0.4349 -0.5465
10966TIP3    H154313   1.045   3.754   0.504 -1.6274  1.5952 -1.1641
10966TIP3    H254314   1.034   3.731   0.653  0.5779 -0.0205 -1.1990
10967TIP3   OH254315   6.251   0.500   4.160  0.0003 -0.1715 -0.2027
10967TIP3    H154316   6.206   0.584   4.152 -0.7101 -0.6402 -1.4843
10967TIP3    H254317   6.181   0.437   4.178  0.5632 -0.4581  1.0518
10968TIP3   OH254318   5.470   1.378   2.186  0.1383  0.1935  0.0774
10968TIP3    H154319   5.473   1.405   2.094  1.5335 -4.6445 -1.6485
10968TIP3    H254320   5.562   1.364   2.210 -0.3261 -0.9034  1.3439
10969TIP3   OH254321   3.020   4.959   6.981 -0.1092 -0.4222 -0.0363
10969TIP3    H154322   3.004   4.865   6.990 -1.0102 -0.1437  1.7359
10969TIP3    H254323   2.956   4.988   6.917  0.0479 -0.9775 -0.4537
10970TIP3   OH254324   0.452   4.239   4.520 -0.3767 -0.5412 -0.4670
10970TIP3    H154325   0.398   4.289   4.581 -0.4480 -1.3747  0.1744
10970TIP3    H254326   0.513   4.191   4.576 -0.1470 -0.9752 -1.0791
10971TIP3   OH254327   4.023   0.811  12.975  0.1142 -0.1443 -0.0739
10971TIP3    H154328   4.016   0.854  12.889 -1.3660 -1.0282 -0.4299
10971TIP3    H254329   4.064   0.726  12.955 -0.2754 -0.3690  0.0846
10972TIP3   OH254330   0.910   6.585   3.990 -0.1198  0.4121  0.0908
10972TIP3    H154331   0.855   6.614   3.918  0.5847  3.0966  0.5425
10972TIP3    H254332   0.865   6.614   4.069  0.4954  0.0109  0.6064
10973TIP3   OH254333   2.339   2.785   2.402 -0.2675 -0.3043  0.0514
10973TIP3    H154334   2.395   2.718   2.363 -0.7538  0.3703 -1.9265
10973TIP3    H254335   2.354   2.863   2.349 -1.1811  0.6190  1.0878
10974TIP3   OH254336   1.660   6.442   5.621 -0.0689  0.2467  0.0071
10974TIP3    H154337   1.676   6.348   5.623 -1.4358 -0.0303 -1.0058
10974TIP3    H254338   1.675   6.471   5.712 -0.4572 -1.0763  0.5052
10975TIP3   OH254339   2.816   6.500  16.183  0.5997 -0.3250  0.2461
10975TIP3    H154340   2.784   6.464  16.265 -0.4907  0.1338  0.0345
10975TIP3    H254341   2.831   6.424  16.127 -1.1754 -0.5174 -0.0192
10976TIP3   OH254342   2.305   5.657   0.014  0.4075  0.8671  0.4186
10976TIP3    H154343   2.235   5.677  -0.049  0.5410 -1.1747 -0.4510
10976TIP3    H254344   2.385   5.684  -0.032  0.3159  2.0038  0.8938
10977TIP3   OH254345   5.549   4.612  15.234  0.6744  0.4715  0.1870
10977TIP3    H154346   5.518   4.610  15.143 -0.5068 -1.5445  0.5533
10977TIP3    H254347   5.637   4.649  15.229  0.5747  0.5641 -1.7574
10978TIP3   OH254348   4.962   5.117  16.913 -0.1447  0.1261  0.4638
10978TIP3    H154349   4.955   5.021  16.909  1.3941 -0.0392  1.1112
10978TIP3    H254350   5.020   5.140  16.841  0.5035  0.4271  1.0635
10979TIP3   OH254351   4.787   5.940  17.304 -0.2482 -0.0169 -0.3066
10979TIP3    H154352   4.742   5.953  17.388  0.4105 -0.2265  0.0782
10979TIP3    H254353   4.725   5.887  17.253 -0.4747 -0.2511  0.1954
10980TIP3   OH254354   0.895   4.222   2.315 -0.0372 -0.0608 -0.3970
10980TIP3    H154355   0.986   4.196   2.325 -0.2239 -0.1655  1.3313
10980TIP3    H254356   0.879   4.217   2.221  1.2549 -1.6559 -0.5799
10981TIP3   OH254357   6.413   3.448   0.592 -0.5338 -0.1956  0.5541
10981TIP3    H154358   6.387   3.511   0.524 -1.7114  1.3884  2.3589
10981TIP3    H254359   6.497   3.414   0.562 -0.1102  1.8482 -0.8166
10982TIP3   OH254360   5.233   2.137  15.591  0.6622  0.0651 -0.2182
10982TIP3    H154361   5.199   2.200  15.527  0.2142 -0.5354 -0.5897
10982TIP3    H254362   5.188   2.158  15.672  1.4864  1.0535 -0.0034
10983TIP3   OH254363   5.025   6.515   0.784 -0.1495  0.2799  0.1750
10983TIP3    H154364   4.973   6.456   0.839 -1.1481  1.2904  0.3605
10983TIP3    H254365   5.082   6.561   0.846  0.9895 -0.8138 -0.0266
10984TIP3   OH254366   5.194   4.114  13.509  0.5312  0.0443 -0.2289
10984TIP3    H154367   5.204   4.042  13.446 -0.7347 -0.1928 -0.2033
10984TIP3    H254368   5.238   4.083  13.588  0.0501 -0.6980 -0.2361
10985TIP3   OH254369   0.294   2.684   0.382 -0.3905  0.4447  0.4212
10985TIP3    H154370   0.264   2.775   0.377 -0.6490  0.3262 -0.3328
10985TIP3    H254371   0.216   2.635   0.410 -0.9334  0.1469 -1.4672
10986TIP3   OH254372   5.881   1.187  16.928  0.4008 -0.2097 -0.2880
10986TIP3    H154373   5.816   1.118  16.914  0.4738 -0.4116  0.3672
10986TIP3    H254374   5.877   1.206  17.021  0.1138  0.9415 -0.5170
10987TIP3   OH254375   3.857   4.570  13.245  0.2213  0.0307 -0.2559
10987TIP3    H154376   3.902   4.568  13.329  0.2982  0.5933 -0.2800
10987TIP3    H254377   3.766   4.588  13.267  0.3112  0.5701 -0.3157
10988TIP3   OH254378   4.394   6.404   0.566  0.3508  0.0405  0.0495
10988TIP3    H154379   4.424   6.426   0.478  0.5497 -2.8453 -0.7165
10988TIP3    H254380   4.393   6.308   0.567 -2.4472 -0.0250  2.2583
10989TIP3   OH254381   1.990   4.389  14.842  0.2857 -0.5522 -0.1468
10989TIP3    H154382   1.943   4.455  14.791 -0.0287 -1.2071 -0.7113
10989TIP3    H254383   1.927   4.358  14.906  0.0564 -1.1452 -0.6479
10990TIP3   OH254384   4.520   0.928  11.407  0.1296 -0.3894  0.4407
10990TIP3    H154385   4.486   0.875  11.335  0.9412 -1.5941  0.9108
10990TIP3    H254386   4.480   1.015  11.394  1.9754  0.1401 -2.7460
10991TIP3   OH254387   2.392   2.732  16.204  0.3465 -0.3489 -0.4815
10991TIP3    H154388   2.415   2.639  16.211 -1.9526 -1.0293 -1.1134
10991TIP3    H254389   2.406   2.767  16.292 -1.8551 -2.1174  0.6566
10992TIP3   OH254390   4.272   0.763  14.763  0.0335 -0.5150  0.1570
10992TIP3    H154391   4.250   0.672  14.783 -0.1558 -0.4006  0.4747
10992TIP3    H254392   4.211   0.815  14.815 -0.5198 -0.2091 -0.7791
10993TIP3   OH254393   3.742   3.357   4.183 -0.2933 -0.1775  0.1961
10993TIP3    H154394   3.802   3.283   4.180 -1.9472 -1.5532 -0.9213
10993TIP3    H254395   3.679   3.334   4.251  0.3339  1.1995  1.2854
10994TIP3   OH254396   1.414   3.885  11.548  0.2957 -0.2976 -0.0524
10994TIP3    H154397   1.372   3.840  11.475  1.6093 -0.5367 -0.6740
10994TIP3    H254398   1.466   3.818  11.591 -1.9336 -0.6651  2.3391
10995TIP3   OH254399   0.244   4.484   1.458  0.0250  0.0830 -0.1679
10995TIP3    H154400   0.278   4.398   1.484 -0.5474  0.2185  1.1105
10995TIP3    H254401   0.162   4.464   1.413  0.3812 -0.0814 -0.7601
10996TIP3   OH254402   0.115   3.699  15.445  0.6461  0.1627  0.1605
10996TIP3    H154403   0.029   3.734  15.470  0.5112  0.5252 -0.7645
10996TIP3    H254404   0.144   3.650  15.522  0.2273  1.1789  0.9856
10997TIP3   OH254405   5.834   5.862   1.005  0.4479  0.0066 -0.0972
10997TIP3    H154406   5.922   5.891   1.029  0.7912 -0.9433 -0.1621
10997TIP3    H254407   5.843   5.833   0.914  0.6006 -2.1296  0.5468
10998TIP3   OH254408   3.766   4.457  11.804  0.0720 -0.3685 -0.4101
10998TIP3    H154409   3.700   4.489  11.742 -1.3828  0.2782  1.3677
10998TIP3    H254410   3.849   4.494  11.772 -0.9082  1.5288 -0.9288
10999TIP3   OH254411   6.707   5.841   2.342  0.0705 -0.7901  0.1284
10999TIP3    H154412   6.703   5.916   2.401 -1.1353 -1.8489  1.4879
10999TIP3    H254413   6.766   5.868   2.272  0.1342  1.1860  0.8842
11000TIP3   OH254414   2.996   3.076   3.848  0.4236 -0.4588  0.3707
11000TIP3    H154415   3.067   3.123   3.804 -0.4164  1.6919  1.1794
11000TIP3    H254416   3.040   3.020   3.912  1.4751 -0.9908 -0.7839
11001TIP3   OH254417   3.240   5.972   0.616  0.3777  0.0684  0.1468
11001TIP3    H154418   3.331   5.990   0.592  0.4180  0.1079  0.3226
11001TIP3    H254419   3.214   6.049   0.667  0.4916 -0.2921  0.7554
11002TIP3   OH254420   0.603   3.253   2.113 -0.0720  0.4729 -0.2614
11002TIP3    H154421   0.576   3.296   2.031 -1.5188  1.0833  0.4985
11002TIP3    H254422   0.576   3.314   2.182  3.1117  1.0386  0.6548
11003TIP3   OH254423   0.385   3.520  17.341 -0.0628 -0.0844  0.7335
11003TIP3    H154424   0.322   3.473  17.285  0.0108 -0.1642  0.7186
11003TIP3    H254425   0.410   3.457  17.408 -0.5357  0.1676  1.1601
11004TIP3   OH254426   1.321   0.570   3.825  0.0703 -0.6036  0.1113
11004TIP3    H154427   1.308   0.530   3.740  1.1156  1.2221 -0.9854
11004TIP3    H254428   1.302   0.663   3.811 -0.1063 -0.3082  1.9709
11005TIP3   OH254429   5.566   3.860  17.125 -0.5786 -0.7691  0.3427
11005TIP3    H154430   5.496   3.819  17.075 -2.0374 -0.2551  1.8952
11005TIP3    H254431   5.597   3.791  17.184  0.3780 -1.0481 -0.4589
11006TIP3   OH254432   1.030   2.470  12.035 -0.2246  0.1780  0.0085
11006TIP3    H154433   0.989   2.551  12.005  1.0361  0.6717 -0.4248
11006TIP3    H254434   1.051   2.423  11.954 -1.2920 -0.7735  0.2614
11007TIP3   OH254435   4.886   5.698  16.361 -0.0559  0.8926  0.1605
11007TIP3    H154436   4.921   5.728  16.445  1.0913 -1.1290  0.4469
11007TIP3    H254437   4.797   5.668  16.382  0.2385  0.3576  0.6748
11008TIP3   OH254438   4.985   4.292   0.203 -0.5153  0.2909  0.7595
11008TIP3    H154439   4.928   4.219   0.178 -1.2023  0.9113  0.4649
11008TIP3    H254440   5.074   4.257   0.195 -0.6801  0.2473 -2.0658
11009TIP3   OH254441   1.014   1.585  10.468  0.1286  0.5200  0.5811
11009TIP3    H154442   1.074   1.554  10.536  0.4869  0.6685  0.3363
11009TIP3    H254443   0.974   1.663  10.505 -1.9066 -1.0169  1.8185
11010TIP3   OH254444   6.710   4.319  16.138 -0.1207 -0.7049  0.1498
11010TIP3    H154445   6.731   4.286  16.225 -0.6137 -0.3043  0.4225
11010TIP3    H254446   6.687   4.411  16.151 -0.6017 -0.7476 -0.3400
11011TIP3   OH254447   1.923   0.185   1.169  0.1235 -0.0993 -0.1011
11011TIP3    H154448   1.979   0.259   1.146 -1.3055  0.9998 -0.1913
11011TIP3    H254449   1.871   0.216   1.243  1.2739 -1.9268  1.5378
11012TIP3   OH254450   0.686   4.391   3.273  0.0847 -0.2655 -0.1219
11012TIP3    H154451   0.609   4.446   3.255 -0.3274 -1.4949 -2.5681
11012TIP3    H254452   0.759   4.437   3.230  0.3849  0.0273  0.6951
11013TIP3   OH254453   5.296   1.654   5.120 -0.0158  0.1832  0.1767
11013TIP3    H154454   5.383   1.616   5.134 -0.8616 -2.3294 -0.8601
11013TIP3    H254455   5.314   1.739   5.080  1.9756 -0.2439  0.0267
11014TIP3   OH254456   0.049   4.662   0.621 -0.5492 -0.6037 -0.2181
11014TIP3    H154457   0.138   4.643   0.651 -0.7506  0.6079  1.2778
11014TIP3    H254458   0.049   4.756   0.604 -1.7333 -0.4190  0.6038
11015TIP3   OH254459   4.091   3.377  15.478  0.0449 -0.3295 -0.0006
11015TIP3    H154460   4.014   3.390  15.534  1.3675  1.7530  1.5137
11015TIP3    H254461   4.140   3.308  15.522  0.6548  0.7000  0.9833
11016TIP3   OH254462   6.272   2.457  10.419  0.1252 -0.2772  0.3825
11016TIP3    H154463   6.292   2.389  10.484  0.9465  0.6249  1.1048
11016TIP3    H254464   6.291   2.540  10.463  2.9099  0.3423 -1.6367
11017TIP3   OH254465   1.283   5.124  14.245  0.2740  0.3586  0.3254
11017TIP3    H154466   1.248   5.042  14.280  0.7306 -0.0636 -0.1931
11017TIP3    H254467   1.205   5.176  14.226 -0.1103 -0.5739 -0.8152
11018TIP3   OH254468   1.611   3.926   5.611 -0.5047  0.2345 -0.3306
11018TIP3    H154469   1.652   3.861   5.668 -1.6669 -1.0587 -0.9178
11018TIP3    H254470   1.636   4.010   5.649 -0.1173 -0.5674  1.2793
11019TIP3   OH254471   6.087   4.007   6.068  0.1609  0.3161 -0.1703
11019TIP3    H154472   6.085   3.980   5.976 -0.0716 -0.8118  0.1626
11019TIP3    H254473   6.030   3.946   6.113 -1.5612  2.2382  0.4005
11020TIP3   OH254474   3.129   0.702   1.716 -0.5897  0.5318  0.3949
11020TIP3    H154475   3.056   0.646   1.687 -0.8847  1.0013  0.2168
11020TIP3    H254476   3.138   0.682   1.809 -1.4048  0.9630  0.5819
11021TIP3   OH254477   5.460   2.468  17.252 -0.3956 -0.6659  0.1457
11021TIP3    H154478   5.545   2.451  17.293  0.1858  0.7716 -0.4249
11021TIP3    H254479   5.445   2.392  17.196  1.6629  0.1150 -1.5882
11022TIP3   OH254480   0.670   4.725   6.814  0.1674  0.0925 -0.5249
11022TIP3    H154481   0.590   4.777   6.803  1.3705  2.1886  0.1468
11022TIP3    H254482   0.700   4.709   6.725  0.3987  1.6217 -0.7487
11023TIP3   OH254483   2.645   2.444   5.683  0.3839 -0.2502  0.1574
11023TIP3    H154484   2.691   2.372   5.641  1.3638  0.2479  0.3483
11023TIP3    H254485   2.698   2.521   5.664  0.7397  0.0368  2.0750
11024TIP3   OH254486   5.353   2.680   3.091  0.4060 -0.0776  0.2416
11024TIP3    H154487   5.271   2.720   3.123  1.0498  1.1364  0.4275
11024TIP3    H254488   5.421   2.717   3.147  1.1817 -0.5147 -0.3920
11025TIP3   OH254489   1.399   5.608   3.612 -0.2254  0.1782  0.1091
11025TIP3    H154490   1.326   5.669   3.598  1.0836  1.5186 -1.2116
11025TIP3    H254491   1.457   5.654   3.672  2.0346  1.4902 -2.8550
11026TIP3   OH254492   0.927   3.956   4.211 -0.3816  0.3909  0.6512
11026TIP3    H154493   0.888   3.911   4.135 -0.6834 -0.3099  1.2090
11026TIP3    H254494   1.008   3.994   4.178 -1.7567  2.3380 -0.6936
11027TIP3   OH254495   2.222   5.350   5.458  0.2286  0.6450  0.9793
11027TIP3    H154496   2.273   5.415   5.505  1.7148  0.7758 -0.7068
11027TIP3    H254497   2.287   5.292   5.418 -0.9929 -0.3743  0.3864
11028TIP3   OH254498   5.752   3.885  12.995  0.0944  0.5149  0.3375
11028TIP3    H154499   5.826   3.913  12.939  0.1605 -1.5668 -0.7262
11028TIP3    H254500   5.782   3.803  13.034 -1.3487  0.0770  0.5629
11029TIP3   OH254501   1.346   5.866   4.823 -0.9626  0.5426 -0.2306
11029TIP3    H154502   1.316   5.864   4.913  0.4374 -1.6808  0.2757
11029TIP3    H254503   1.433   5.906   4.827 -0.2075 -1.0059 -0.2820
11030TIP3   OH254504   5.229   2.265  11.383 -0.3145  0.0722 -0.7543
11030TIP3    H154505   5.134   2.255  11.391 -0.5740  1.5708 -1.5534
11030TIP3    H254506   5.264   2.220  11.460 -1.5744 -1.5918 -1.1050
11031TIP3   OH254507   0.973   4.202  12.565  0.2548  0.5740 -0.0141
11031TIP3    H154508   0.877   4.198  12.557  0.2094  1.8995 -0.3137
11031TIP3    H254509   0.988   4.251  12.646  0.7029 -0.4242  0.5320
11032TIP3   OH254510   1.822   2.231  13.488  0.2067 -0.0077  0.1151
11032TIP3    H154511   1.915   2.221  13.469  0.5321  2.0880  0.2779
11032TIP3    H254512   1.782   2.246  13.403  0.4723  1.6929  0.2443
11033TIP3   OH254513   3.738   5.765   1.413  0.1437  0.6734  0.3180
11033TIP3    H154514   3.644   5.782   1.420 -0.2069 -1.4420  1.5454
11033TIP3    H254515   3.758   5.778   1.320 -1.5519  0.2891 -0.1417
11034TIP3   OH254516   5.264   5.263  16.949 -0.9311 -0.5591  0.0470
11034TIP3    H154517   5.239   5.196  16.885  0.1453 -1.3192  0.3886
11034TIP3    H254518   5.198   5.332  16.939 -1.0351 -0.8506 -1.5857
11035TIP3   OH254519   4.237   4.517   6.061  0.3480  0.2358 -0.1367
11035TIP3    H154520   4.284   4.483   5.984 -0.3305 -0.1365 -0.3906
11035TIP3    H254521   4.193   4.440   6.098  0.1513  0.5351  0.2512
11036TIP3   OH254522   0.740   6.420   6.617  0.0959 -0.6848 -0.2944
11036TIP3    H154523   0.655   6.447   6.651  0.1575 -3.2255  2.2044
11036TIP3    H254524   0.720   6.366   6.541 -0.2771  1.2158 -1.6234
11037TIP3   OH254525   2.587   4.691   6.670  0.6397 -0.1016 -0.0308
11037TIP3    H154526   2.653   4.693   6.739  1.3264  1.3992 -0.6956
11037TIP3    H254527   2.513   4.739   6.707  0.9060  0.4705 -0.2432
11038TIP3   OH254528   1.072   5.767   3.931  0.2031  0.2813  0.0141
11038TIP3    H154529   1.074   5.780   4.026  1.5756  2.0069 -0.1880
11038TIP3    H254530   1.088   5.674   3.919 -0.3519 -0.0317  1.4784
11039TIP3   OH254531   5.407   6.760  15.332 -0.1361  0.1052  0.0913
11039TIP3    H154532   5.339   6.697  15.357  0.9197 -0.4627  1.7032
11039TIP3    H254533   5.399   6.831  15.395 -0.5354  1.0393 -0.9819
11040TIP3   OH254534   3.176   6.735   2.973  0.1817 -0.0275 -0.2563
11040TIP3    H154535   3.260   6.771   2.947  1.1172 -2.7030 -1.2863
11040TIP3    H254536   3.115   6.762   2.905  0.2313  1.6605  0.3348
11041TIP3   OH254537   1.938   4.905   2.495 -0.0617 -0.7592 -0.3566
11041TIP3    H154538   2.002   4.973   2.515 -1.0284  0.4999 -1.3735
11041TIP3    H254539   1.990   4.826   2.483  0.9303 -0.6720  2.6467
11042TIP3   OH254540   3.461   1.809  14.338 -0.0314  0.2309  0.2645
11042TIP3    H154541   3.446   1.903  14.342 -0.8558  0.1701 -0.8499
11042TIP3    H254542   3.472   1.782  14.429  0.6281  1.4576  0.5693
11043TIP3   OH254543   3.924   1.009  17.336  0.3649 -0.3164  0.1040
11043TIP3    H154544   3.927   1.104  17.341  1.3064 -0.3008 -0.4863
11043TIP3    H254545   3.886   0.982  17.419 -0.1285  0.5831  0.1803
11044TIP3   OH254546   6.446   0.403  13.588 -0.2438 -0.4086 -0.5538
11044TIP3    H154547   6.522   0.452  13.557 -0.5732  0.1031 -0.5437
11044TIP3    H254548   6.446   0.417  13.683 -0.8986  0.3666 -0.6651
11045TIP3   OH254549   3.900   3.107   2.175 -0.3792 -0.3907 -0.1583
11045TIP3    H154550   3.933   3.128   2.087  1.2297 -1.3678  0.1691
11045TIP3    H254551   3.948   3.028   2.200  0.2254  0.6360  2.1624
11046TIP3   OH254552   3.131   5.049  13.140  0.0052  0.0611  0.0784
11046TIP3    H154553   3.079   5.129  13.148  1.0031  0.6015  1.5778
11046TIP3    H254554   3.097   4.992  13.209  1.5898  0.5726  1.3393
11047TIP3   OH254555   2.217   3.855  14.309 -1.1114  0.5245 -0.3529
11047TIP3    H154556   2.294   3.907  14.284 -1.2064  0.4562 -0.8005
11047TIP3    H254557   2.207   3.871  14.402 -0.2776  0.1818 -0.1922
11048TIP3   OH254558   4.325   1.741  12.790 -0.1202  0.0299 -0.1339
11048TIP3    H154559   4.407   1.767  12.748  0.1911 -0.8607 -0.0984
11048TIP3    H254560   4.274   1.822  12.797  0.5510  0.4969 -0.6137
11049TIP3   OH254561   4.372   5.449  15.507  0.1847  0.6233  0.7044
11049TIP3    H154562   4.439   5.381  15.499  1.3043  1.4422  2.4660
11049TIP3    H254563   4.307   5.412  15.567 -0.2685  0.3618  0.0707
11050TIP3   OH254564   2.678   4.807  11.384  0.2425  0.4375  0.3585
11050TIP3    H154565   2.691   4.889  11.336 -1.1840 -1.4285 -3.7188
11050TIP3    H254566   2.599   4.822  11.436 -0.5516  1.4180 -1.0539
11051TIP3   OH254567   6.648   3.331  14.459  0.1205  0.2629 -0.0193
11051TIP3    H154568   6.645   3.425  14.440 -0.0513  0.1161 -0.7391
11051TIP3    H254569   6.556   3.303  14.454  0.1632  0.0729  0.2683
11052TIP3   OH254570   6.169   3.649  12.042 -0.3426  0.3404  0.2038
11052TIP3    H154571   6.125   3.710  12.102 -1.1864 -1.5832  1.6546
11052TIP3    H254572   6.248   3.695  12.015 -0.3928  1.6587  2.1087
11053TIP3   OH254573   2.878   4.533   3.134  0.2592 -0.6113  0.2988
11053TIP3    H154574   2.965   4.573   3.124  1.1464 -1.4786  3.2814
11053TIP3    H254575   2.882   4.454   3.080  1.1151 -0.3452 -0.0537
11054TIP3   OH254576   1.036   1.702   0.606 -0.1834  0.2924 -0.2707
11054TIP3    H154577   1.031   1.691   0.701 -0.0944 -0.7420 -0.3674
11054TIP3    H254578   1.129   1.694   0.586 -0.2880 -0.3411 -0.5261
11055TIP3   OH254579   2.571   4.226   3.616  0.8520 -0.1819  0.4419
11055TIP3    H154580   2.508   4.178   3.669  0.1354  1.0153  0.7226
11055TIP3    H254581   2.647   4.237   3.672  0.2877  0.6426  1.0746
11056TIP3   OH254582   4.912   5.044   5.505  0.7843 -0.1153 -0.3352
11056TIP3    H154583   4.963   4.985   5.561 -1.4231  1.0359  3.1806
11056TIP3    H254584   4.829   4.998   5.491  0.5455  0.4842 -0.9574
11057TIP3   OH254585   5.812   0.817  16.956 -0.0980  0.2297 -0.2731
11057TIP3    H154586   5.758   0.874  16.901  0.4264  0.2319 -0.7897
11057TIP3    H254587   5.751   0.784  17.022 -0.6375  0.5728 -0.5864
11058TIP3   OH254588   2.463   1.696  11.111  0.0465 -0.0217 -0.0514
11058TIP3    H154589   2.401   1.683  11.039  0.4407  1.3342 -0.6807
11058TIP3    H254590   2.453   1.619  11.166 -2.2628  0.2033 -0.0763
11059TIP3   OH254591   1.627   5.531  13.637  0.2992  0.1936 -0.2899
11059TIP3    H154592   1.699   5.476  13.665  2.3682  2.6709 -0.3384
11059TIP3    H254593   1.620   5.517  13.542  1.6675  0.9032 -0.5145
11060TIP3   OH254594   5.415   1.665  11.873 -0.5330 -0.1136  0.6439
11060TIP3    H154595   5.475   1.734  11.847 -0.5828 -0.2813  0.0673
11060TIP3    H254596   5.361   1.704  11.943  0.4484 -0.0707  1.3992
11061TIP3   OH254597   0.649   6.443   2.001 -0.0134 -0.3108  0.1219
11061TIP3    H154598   0.614   6.510   1.942  1.1981  0.6819  0.4908
11061TIP3    H254599   0.685   6.376   1.943 -1.7880 -1.0060 -0.2573
11062TIP3   OH254600   4.995   2.433  12.904  0.4087  0.0612  0.1608
11062TIP3    H154601   4.993   2.500  12.973  1.6780  0.5201 -0.2119
11062TIP3    H254602   4.995   2.484  12.822 -1.5977 -0.4827 -0.2224
11063TIP3   OH254603   0.633   0.299  15.589 -0.7853  0.4128  0.8144
11063TIP3    H154604   0.610   0.388  15.562 -2.9482  0.8374  3.6230
11063TIP3    H254605   0.551   0.262  15.622 -0.2385 -3.1410 -1.3348
11064TIP3   OH254606   6.441   2.094   2.254 -0.1158 -0.1309 -0.1698
11064TIP3    H154607   6.392   2.064   2.178 -1.3328 -0.3701  0.6953
11064TIP3    H254608   6.524   2.046   2.249 -1.4169 -2.6376  0.3740
11065TIP3   OH254609   0.549   4.713   6.330 -0.0185  0.7444  0.4979
11065TIP3    H154610   0.459   4.724   6.361 -0.4829  0.3075 -0.6404
11065TIP3    H254611   0.588   4.801   6.337 -0.2397  0.7563  1.8326
11066TIP3   OH254612   5.309   4.848   1.983  0.2235 -0.0425 -0.6521
11066TIP3    H154613   5.378   4.838   2.048  1.2322  0.4987 -1.5997
11066TIP3    H254614   5.235   4.886   2.031  0.3185 -1.2685  0.5238
11067TIP3   OH254615   4.919   4.219  16.679 -0.4621 -0.4676 -0.3209
11067TIP3    H154616   4.906   4.312  16.697  2.2999 -0.3373  1.7495
11067TIP3    H254617   4.834   4.188  16.648 -1.3907  2.7629 -1.4118
11068TIP3   OH254618   1.917   6.589  13.988  0.1290  0.2722 -0.3133
11068TIP3    H154619   1.835   6.630  13.960 -1.8200 -1.0731  2.9131
11068TIP3    H254620   1.890   6.506  14.028  3.4225 -1.8342 -1.9641
11069TIP3   OH254621   2.884   6.114  14.351 -0.1608  0.0081  0.3177
11069TIP3    H154622   2.851   6.066  14.275  2.4207  0.0335 -0.8992
11069TIP3    H254623   2.857   6.205  14.335  3.0971  0.6582 -2.3781
11070TIP3   OH254624   5.390   0.005  12.937  0.0594 -0.0604  0.0954
11070TIP3    H154625   5.334  -0.011  13.013  0.4841  0.2817  0.4874
11070TIP3    H254626   5.346  -0.041  12.865  1.2306 -3.0728  1.1395
11071TIP3   OH254627   2.159   0.291   4.377 -0.2312  0.8133  0.2887
11071TIP3    H154628   2.199   0.233   4.441  0.3697  0.0054 -0.7820
11071TIP3    H254629   2.232   0.341   4.339 -0.1527 -0.6114 -1.6130
11072TIP3   OH254630   2.720   4.632   1.769  0.1088  0.1223 -0.1846
11072TIP3    H154631   2.642   4.682   1.789 -0.6291 -1.1461  0.1970
11072TIP3    H254632   2.773   4.691   1.714 -0.2980  1.6300  0.9713
11073TIP3   OH254633   4.659   1.286  14.269 -0.3672  0.2051 -0.2057
11073TIP3    H154634   4.662   1.363  14.325  3.9132  0.4460 -0.4453
11073TIP3    H254635   4.658   1.320  14.180 -1.3794 -0.1128 -0.3326
11074TIP3   OH254636   0.448   6.300   2.337  0.0074  0.3261 -0.6000
11074TIP3    H154637   0.530   6.341   2.364 -0.7000  0.2467  1.9494
11074TIP3    H254638   0.462   6.207   2.349  0.3514  0.0677 -2.6937
11075TIP3   OH254639   2.967   2.670  13.750  1.5907  0.1315  0.1782
11075TIP3    H154640   2.942   2.593  13.802  1.4554  0.4092  0.5271
11075TIP3    H254641   2.967   2.638  13.659  0.4436 -0.0086  0.2106
11076TIP3   OH254642   1.040   1.038  11.807  0.3880 -0.1356 -0.3044
11076TIP3    H154643   0.971   1.102  11.790  1.6139  0.9039 -1.6499
11076TIP3    H254644   1.004   0.981  11.875 -1.8780  0.1963 -1.1290
11077TIP3   OH254645   1.585   3.817   2.104 -0.1414 -0.4239  0.2799
11077TIP3    H154646   1.666   3.812   2.053 -0.3140  0.4283 -0.0927
11077TIP3    H254647   1.558   3.725   2.116  1.7451 -0.8528  1.8413
11078TIP3   OH254648   6.274   4.578  11.968 -0.0108  0.5195  0.0969
11078TIP3    H154649   6.312   4.602  12.053 -1.3968  0.0599  0.8786
11078TIP3    H254650   6.183   4.609  11.973 -0.8741 -1.7491 -0.1921
11079TIP3   OH254651   0.818   3.784   3.209 -0.1652 -0.1841 -0.0678
11079TIP3    H154652   0.755   3.856   3.202  1.1358  1.3396  2.5213
11079TIP3    H254653   0.799   3.743   3.294 -0.0709 -2.1736 -0.9396
11080TIP3   OH254654   0.529   0.096   3.697 -0.1476 -0.3236 -0.1673
11080TIP3    H154655   0.526   0.051   3.782  3.0700  1.7530  1.2832
11080TIP3    H254656   0.579   0.036   3.641 -0.6158 -0.8879  0.0082
11081TIP3   OH254657   0.949   3.939  14.185  0.0182  0.2373  0.2078
11081TIP3    H154658   0.894   3.993  14.128  0.4930  0.3184 -0.1783
11081TIP3    H254659   1.039   3.967  14.166  0.2914 -0.8469 -0.1688
11082TIP3   OH254660   5.751   4.547   2.775  0.2866 -0.3697  0.0734
11082TIP3    H154661   5.739   4.566   2.682 -1.0956 -1.0857  0.0839
11082TIP3    H254662   5.750   4.451   2.780 -2.6060 -0.3597  1.1370
11083TIP3   OH254663   1.863   0.951  11.460 -0.0829 -0.4940 -0.3119
11083TIP3    H154664   1.951   0.921  11.484 -0.7037 -1.5160  0.7646
11083TIP3    H254665   1.866   0.956  11.364  0.7949 -1.7011 -0.3809
11084TIP3   OH254666   3.363   3.468  11.852  0.1074  0.7731  0.7355
11084TIP3    H154667   3.270   3.478  11.871 -0.2335 -0.8111  0.0530
11084TIP3    H254668   3.367   3.456  11.758  0.9224  0.0917  0.8452
11085TIP3   OH254669   5.709   6.117  16.403 -0.3438 -0.1963  0.1753
11085TIP3    H154670   5.634   6.177  16.405 -0.7772 -0.7388  0.9896
11085TIP3    H254671   5.782   6.170  16.371 -1.1073  0.3011 -0.7566
11086TIP3   OH254672   1.727   1.333  14.280  0.2486 -0.7264 -0.0214
11086TIP3    H154673   1.708   1.259  14.223 -0.1703 -0.0657 -0.7700
11086TIP3    H254674   1.753   1.403  14.219  3.8096 -1.1277  0.7860
11087TIP3   OH254675   4.210   1.043  16.333  0.4385 -0.1417 -0.5754
11087TIP3    H154676   4.163   1.045  16.250 -1.5585  1.4144  0.4857
11087TIP3    H254677   4.152   0.994  16.392  1.1142  0.0656  0.2792
11088TIP3   OH254678   1.343   2.977   1.666 -0.0791 -0.2935  0.2838
11088TIP3    H154679   1.405   2.927   1.719  0.3812  1.3754  1.4070
11088TIP3    H254680   1.393   3.000   1.588  0.7896  1.0338  1.1786
11089TIP3   OH254681   2.841   3.449   0.993  0.1963 -0.0112  0.5380
11089TIP3    H154682   2.907   3.503   0.949 -1.2449  1.8738  0.5837
11089TIP3    H254683   2.868   3.450   1.085  0.7826 -0.2933  0.3763
11090TIP3   OH254684   1.604   4.987  16.927 -0.1710  0.2460  0.3091
11090TIP3    H154685   1.519   4.983  16.969 -1.0397  0.4949 -1.3521
11090TIP3    H254686   1.641   5.071  16.956 -1.6288  1.3811 -0.9725
11091TIP3   OH254687   2.081   1.447   5.567  0.5418 -0.0274  0.8916
11091TIP3    H154688   2.025   1.373   5.592 -0.2420  0.0624 -0.4684
11091TIP3    H254689   2.146   1.409   5.508 -0.6412  0.5161 -0.8576
11092TIP3   OH254690   1.683   2.645  14.615 -0.1310 -0.3613 -0.2410
11092TIP3    H154691   1.672   2.670  14.706 -1.9688 -1.6004 -0.0550
11092TIP3    H254692   1.667   2.550  14.614 -0.9622 -0.2453 -1.9471
11093TIP3   OH254693   6.174   3.082  12.260  0.1152 -0.5120 -0.4035
11093TIP3    H154694   6.245   3.053  12.317 -0.3645  1.8450  1.5846
11093TIP3    H254695   6.169   3.176  12.275 -0.9114  0.0342 -3.4767
11094TIP3   OH254696   4.367   3.711  13.580  0.5709 -0.0863  1.0336
11094TIP3    H154697   4.424   3.710  13.658 -0.7816  1.8596  2.1219
11094TIP3    H254698   4.421   3.750  13.512  1.2522 -0.3182  1.4240
11095TIP3   OH254699   2.196   0.720   5.105  0.6012 -0.4141  0.3311
11095TIP3    H154700   2.236   0.648   5.155  0.9315 -0.7571 -0.4069
11095TIP3    H254701   2.140   0.765   5.168 -0.4858 -1.9904  0.5529
11096TIP3   OH254702   3.973   5.609  14.528  0.3347  0.6094 -0.3621
11096TIP3    H154703   3.997   5.659  14.606  0.6042 -0.4508  0.2595
11096TIP3    H254704   4.027   5.645  14.458 -0.9753  2.5942 -0.4292
11097TIP3   OH254705   3.919   3.953   3.309 -0.4474  0.5889  0.4660
11097TIP3    H154706   3.891   3.863   3.326  0.3988  0.4039  0.9658
11097TIP3    H254707   3.999   3.962   3.361  0.7405  0.9006 -1.3452
11098TIP3   OH254708   6.357   6.586   1.345  0.0135  0.1791 -0.5118
11098TIP3    H154709   6.402   6.615   1.265  1.4085  0.3848  0.3155
11098TIP3    H254710   6.423   6.535   1.392 -0.1679  1.5502  1.3628
11099TIP3   OH254711   1.845   2.289  12.487  0.8013 -0.5199 -0.1701
11099TIP3    H154712   1.891   2.281  12.404  1.6914  1.9275  0.0014
11099TIP3    H254713   1.910   2.265  12.553  0.7186 -0.5514 -0.1000
11100TIP3   OH254714   5.636   1.593   2.500  0.0486  0.1104  0.1522
11100TIP3    H154715   5.695   1.526   2.534  1.9006 -0.5693 -3.7978
11100TIP3    H254716   5.694   1.663   2.471 -1.3293  0.7733 -1.1516
11101TIP3   OH254717   3.319   6.088   4.517  0.3133 -0.3895 -0.2076
11101TIP3    H154718   3.254   6.073   4.449 -0.6352 -0.4217  0.6755
11101TIP3    H254719   3.379   6.153   4.481 -0.3525 -0.1841 -0.9435
11102TIP3   OH254720   2.565   2.303   4.554  0.1359  0.5689  0.3440
11102TIP3    H154721   2.538   2.239   4.487  1.2220 -1.6094  1.8637
11102TIP3    H254722   2.593   2.380   4.504 -0.8022 -0.2811 -1.5939
11103TIP3   OH254723   2.167   5.249  13.486  0.3293  0.3151  0.1594
11103TIP3    H154724   2.113   5.290  13.418 -0.3424  0.8452  0.9817
11103TIP3    H254725   2.158   5.308  13.562  0.1409 -0.8438  1.0609
11104TIP3   OH254726   4.073   2.048   6.374 -0.2705 -0.9278  0.1831
11104TIP3    H154727   4.012   2.040   6.448 -0.3124 -1.4020  0.0990
11104TIP3    H254728   4.083   2.142   6.362  0.9195 -0.8097  1.7708
11105TIP3   OH254729   6.225   4.939  14.037 -0.3648 -0.2482  0.7147
11105TIP3    H154730   6.159   4.957  14.103 -0.1222  0.6918  0.7279
11105TIP3    H254731   6.236   5.023  13.991 -0.3954 -0.8322 -0.3901
11106TIP3   OH254732   0.862   6.606  16.458 -0.1464 -0.6825 -0.1894
11106TIP3    H154733   0.807   6.562  16.523 -1.3731 -0.4378 -1.0289
11106TIP3    H254734   0.950   6.571  16.473 -0.6368 -1.5594  0.7682
11107TIP3   OH254735   4.971   5.409   3.792  0.5867 -0.1725 -0.1652
11107TIP3    H154736   4.885   5.377   3.763 -0.5405  2.4305  0.0349
11107TIP3    H254737   4.975   5.387   3.885 -0.8959  1.6016  0.3737
11108TIP3   OH254738   0.621   4.012   4.021 -0.6009  0.3455  0.0004
11108TIP3    H154739   0.654   3.964   3.945  0.8950  0.4495  0.5490
11108TIP3    H254740   0.683   4.084   4.032 -1.1633  0.6980  0.9377
11109TIP3   OH254741   2.136   0.107  16.596 -0.1666  0.0289 -0.4597
11109TIP3    H154742   2.076   0.108  16.521 -0.1650  2.3891 -0.5145
11109TIP3    H254743   2.170   0.197  16.601  0.3200 -0.2119  1.9914
11110TIP3   OH254744   0.330   4.409  13.917 -0.2921  0.6758 -0.0931
11110TIP3    H154745   0.297   4.364  13.839 -1.6558  1.1564  0.1861
11110TIP3    H254746   0.270   4.382  13.987 -0.8614  2.5556  0.1775
11111TIP3   OH254747   5.773   2.846   4.551  0.8334  0.1116  0.3527
11111TIP3    H154748   5.750   2.764   4.594 -2.4089 -0.1481 -1.5760
11111TIP3    H254749   5.808   2.819   4.466  0.5735  0.7049  0.0502
11112TIP3   OH254750   1.982   0.342  15.435 -0.0433  0.7003  0.0397
11112TIP3    H154751   1.998   0.249  15.450 -1.3144  0.2738 -1.0189
11112TIP3    H254752   1.975   0.379  15.523 -0.0375 -0.3063  0.4838
11113TIP3   OH254753   2.212   0.547   0.615  0.0049 -0.1011 -0.2790
11113TIP3    H154754   2.130   0.507   0.643  0.1626 -1.3020 -1.4307
11113TIP3    H254755   2.186   0.612   0.550 -0.0358 -0.6825 -0.8561
11114TIP3   OH254756   2.889   5.931  15.125  0.3305 -0.2966  0.5262
11114TIP3    H154757   2.868   6.019  15.158 -0.6502 -0.7999  1.3267
11114TIP3    H254758   2.984   5.928  15.123  0.3835  0.5830  1.0717
11115TIP3   OH254759   3.841   2.501  11.031  0.0875  0.2262  0.4285
11115TIP3    H154760   3.755   2.484  10.993  0.5200  0.1478 -0.5454
11115TIP3    H254761   3.836   2.464  11.120 -1.8002  2.6888  1.4563
11116TIP3   OH254762   1.690   5.319   5.088 -0.3253 -0.4617  0.5471
11116TIP3    H154763   1.772   5.326   5.136  0.0035  0.5735 -0.1271
11116TIP3    H254764   1.639   5.395   5.117 -1.1748 -1.2549  1.1772
11117TIP3   OH254765   0.882   5.358  15.681 -0.0019  0.5437 -0.1736
11117TIP3    H154766   0.886   5.328  15.772  0.8797  0.7740 -0.1268
11117TIP3    H254767   0.796   5.399  15.673 -0.0634  0.5790  0.5797
11118TIP3   OH254768   0.393   2.053   1.432 -0.1886  0.1429  0.2921
11118TIP3    H154769   0.345   2.118   1.483  0.4307  0.1522  0.8841
11118TIP3    H254770   0.441   2.002   1.497 -0.0333 -0.3853 -0.2247
11119TIP3   OH254771   4.801   4.546  11.841 -0.5359 -0.2469 -0.1491
11119TIP3    H154772   4.776   4.581  11.756  1.8210 -1.6879 -1.5358
11119TIP3    H254773   4.837   4.621  11.889 -0.8197  0.3383 -0.8386
11120TIP3   OH254774   1.685   0.489   3.846  0.3492  0.5094 -0.1270
11120TIP3    H154775   1.665   0.557   3.781 -1.2104 -0.0472 -0.2650
11120TIP3    H254776   1.673   0.533   3.930  1.5324  0.9975 -0.2014
11121TIP3   OH254777   5.572   4.643  15.841  0.2232  0.4408  0.1714
11121TIP3    H154778   5.483   4.643  15.877  0.0388  1.1924 -0.2591
11121TIP3    H254779   5.583   4.556  15.803 -0.8838  0.8370 -1.1162
11122TIP3   OH254780   4.055   4.030  10.577  0.0595 -0.5832 -0.0886
11122TIP3    H154781   4.005   4.109  10.600  0.6664 -0.4222  0.7302
11122TIP3    H254782   4.146   4.061  10.568  0.4120 -1.2853  0.8722
11123TIP3   OH254783   5.412   3.428  14.424  0.0466  0.1519  0.5921
11123TIP3    H154784   5.411   3.491  14.352 -0.5897 -1.0744 -0.5415
11123TIP3    H254785   5.353   3.358  14.394  0.8118 -1.0232  1.7364
11124TIP3   OH254786   1.552   3.960  14.943 -0.2937 -0.3666 -0.0152
11124TIP3    H154787   1.468   4.000  14.923 -0.4669 -1.2416 -1.1855
11124TIP3    H254788   1.573   3.989  15.032 -1.9791 -0.4094  0.4200
11125TIP3   OH254789   3.709   3.158   2.974 -0.2606  0.8130  0.5217
11125TIP3    H154790   3.678   3.068   2.964  1.1046 -0.0156  2.8199
11125TIP3    H254791   3.642   3.201   3.027 -1.6249  1.6490 -1.7657
11126TIP3   OH254792   0.087   3.142  15.505  0.2089  0.2941 -0.7193
11126TIP3    H154793   0.182   3.131  15.513  0.2973  0.4629 -1.4615
11126TIP3    H254794   0.076   3.207  15.435 -0.4516  0.2762 -0.6389
11127TIP3   OH254795   0.844   0.486   2.785 -0.1801  0.3725  0.3947
11127TIP3    H154796   0.915   0.503   2.723  2.2132 -1.5462  2.3991
11127TIP3    H254797   0.879   0.514   2.870 -2.3316  0.5002  1.2952
11128TIP3   OH254798   0.520   3.658   4.099  0.2825 -0.1673 -0.1768
11128TIP3    H154799   0.614   3.673   4.084  0.3388  0.3712  0.6475
11128TIP3    H254800   0.493   3.730   4.156 -0.6928 -0.1917 -0.5802
11129TIP3   OH254801   2.953   2.737  17.051  0.2985  0.3865  0.4156
11129TIP3    H154802   3.036   2.692  17.035  0.2972  0.5026  0.0863
11129TIP3    H254803   2.971   2.793  17.126  0.7544  1.0286 -0.1606
11130TIP3   OH254804   4.540   1.274   0.687  0.1282 -0.1875 -0.2359
11130TIP3    H154805   4.479   1.295   0.616  0.8373 -0.4710 -0.9409
11130TIP3    H254806   4.619   1.244   0.643  0.5492 -0.4662  0.6805
11131TIP3   OH254807   6.470   1.294   1.660  0.3411 -0.0620 -0.5428
11131TIP3    H154808   6.502   1.238   1.590  1.7785 -0.1960  0.1864
11131TIP3    H254809   6.548   1.338   1.693 -0.5438  1.1813 -0.0637
11132TIP3   OH254810   2.211   4.787   4.364 -0.5131  0.2440 -0.5103
11132TIP3    H154811   2.301   4.785   4.396 -1.7412 -1.5526  3.5211
11132TIP3    H254812   2.204   4.711   4.306  0.3321 -0.1934 -0.0464
11133TIP3   OH254813   1.533   2.846  16.955 -0.5211 -0.2467  0.5135
11133TIP3    H154814   1.467   2.891  17.007 -1.7454 -0.2802 -0.9578
11133TIP3    H254815   1.492   2.764  16.930 -1.1123  0.8876 -2.7484
11134TIP3   OH254816   5.198   3.323   4.851  0.0680  0.0183 -0.1346
11134TIP3    H154817   5.113   3.311   4.809  0.1276  0.4648 -0.3848
11134TIP3    H254818   5.177   3.330   4.944 -0.0590 -1.0245 -0.0678
11135TIP3   OH254819   0.131   1.424  12.774 -0.3751 -0.4760 -0.5996
11135TIP3    H154820   0.094   1.507  12.804  0.8685 -0.2919  0.5406
11135TIP3    H254821   0.188   1.449  12.701  1.6651  0.0498  1.0671
11136TIP3   OH254822   2.706   0.296   5.667  0.1746  0.6362 -0.5051
11136TIP3    H154823   2.640   0.288   5.598 -2.1977  0.0635  1.6906
11136TIP3    H254824   2.682   0.376   5.714 -0.7905 -1.0126  2.0364
11137TIP3   OH254825   4.408   3.871   5.974 -0.5998  0.8157 -0.3256
11137TIP3    H154826   4.340   3.807   5.996  0.0817  0.0459 -0.4672
11137TIP3    H254827   4.397   3.940   6.041 -0.8136  0.1740  0.3177
11138TIP3   OH254828   2.052   2.030  15.577 -0.1902  0.3343  0.5263
11138TIP3    H154829   2.002   1.950  15.588 -0.7572  0.6353  0.1985
11138TIP3    H254830   2.127   2.021  15.636 -0.4809 -0.2433  0.8069
11139TIP3   OH254831   1.581   4.003   1.797  0.4206  0.0520 -0.0544
11139TIP3    H154832   1.506   3.976   1.850  0.7414 -0.9898 -0.1171
11139TIP3    H254833   1.627   4.066   1.852  1.0277 -1.3858  1.1422
11140TIP3   OH254834   0.680   3.535   4.833  0.0621  0.7015  0.2372
11140TIP3    H154835   0.601   3.485   4.812  0.4243  0.3025 -0.1789
11140TIP3    H254836   0.647   3.615   4.874 -0.5576  0.5312  0.0830
11141TIP3   OH254837   0.507   4.555  11.701  0.0168 -0.4272  0.5388
11141TIP3    H154838   0.501   4.485  11.637 -0.1767  0.9626 -1.0198
11141TIP3    H254839   0.416   4.578  11.721 -0.0682  2.0289 -2.0586
11142TIP3   OH254840   1.953   0.716   3.853  0.4605 -0.2107  0.2582
11142TIP3    H154841   1.860   0.723   3.828  0.6115  2.2978  0.1292
11142TIP3    H254842   1.952   0.715   3.949  0.2964  0.2418  0.2656
11143TIP3   OH254843   0.907   4.067  13.124  0.1420 -0.1822  0.1196
11143TIP3    H154844   0.856   4.137  13.083  0.7699 -0.2465 -0.8110
11143TIP3    H254845   0.996   4.081  13.091  0.2875 -1.3831 -0.0218
11144TIP3   OH254846   0.354   1.639   2.755  0.1027  0.0319  0.3276
11144TIP3    H154847   0.295   1.696   2.707  0.2272  0.0755  0.2235
11144TIP3    H254848   0.307   1.556   2.763  0.0019  0.0878  0.3021
11145TIP3   OH254849   0.149   0.105   3.946 -0.6421 -0.1048  0.1745
11145TIP3    H154850   0.072   0.048   3.946 -2.8210  2.6134 -0.6618
11145TIP3    H254851   0.181   0.101   3.856 -0.7076 -0.1030  0.1509
11146TIP3   OH254852   0.625   0.671   5.095  0.1644 -0.1019 -0.0127
11146TIP3    H154853   0.590   0.755   5.066  0.5188  0.3628  0.8696
11146TIP3    H254854   0.578   0.652   5.176 -0.4328 -1.1186 -0.5817
11147TIP3   OH254855   1.634   2.696  17.219  0.1798 -0.2360  0.2790
11147TIP3    H154856   1.678   2.742  17.147  0.6611 -2.9563 -1.3188
11147TIP3    H254857   1.704   2.678  17.282 -0.2157  2.0219  1.4772
11148TIP3   OH254858   4.919   5.812   5.368  0.4767  0.3099  0.2603
11148TIP3    H154859   4.906   5.835   5.276 -0.2430  1.4754  0.6317
11148TIP3    H254860   4.918   5.716   5.369  1.9027  0.2238 -1.1219
11149TIP3   OH254861   4.286   3.419   1.133  0.2904  0.0897  0.3890
11149TIP3    H154862   4.192   3.426   1.145  0.2472  0.8421 -0.2796
11149TIP3    H254863   4.298   3.408   1.039  0.9514  2.2416  0.1668
11150TIP3   OH254864   0.640   1.061   3.617  0.2514 -1.2294 -0.0337
11150TIP3    H154865   0.612   1.148   3.645 -0.2756 -1.1493 -0.7943
11150TIP3    H254866   0.711   1.038   3.678 -1.6623 -1.6148  2.2234
11151TIP3   OH254867   0.993   3.515   5.015 -0.3967 -0.1678 -0.3366
11151TIP3    H154868   0.980   3.539   4.923  0.5355 -0.2063 -0.4791
11151TIP3    H254869   1.050   3.583   5.050 -0.1471 -0.5602  0.0244
11152TIP3   OH254870   5.044   4.843   5.916  0.4886  0.1900 -0.2556
11152TIP3    H154871   5.009   4.864   6.002 -2.0798  1.1466 -1.4403
11152TIP3    H254872   5.137   4.824   5.932  0.3535  1.3986  2.5311
11153TIP3   OH254873   2.654   0.185  13.977 -0.2826 -0.4305  0.2477
11153TIP3    H154874   2.710   0.259  13.953 -0.4611 -0.8987 -1.7869
11153TIP3    H254875   2.583   0.224  14.027 -0.8694  0.9713 -1.5746
11154TIP3   OH254876   4.301   4.619   1.357  0.3603  0.5368  0.3128
11154TIP3    H154877   4.309   4.555   1.288 -1.1914  0.2840  0.3271
11154TIP3    H254878   4.366   4.593   1.423 -0.3473 -1.1081  0.3877
11155TIP3   OH254879   3.240   1.248  15.664 -0.4218 -0.2959  0.4681
11155TIP3    H154880   3.161   1.258  15.718 -0.2707  0.3053  0.5932
11155TIP3    H254881   3.279   1.336  15.663 -0.7224 -0.1427 -1.0932
11156TIP3   OH254882   3.461   0.415   3.053 -0.1367 -0.5002 -0.3523
11156TIP3    H154883   3.530   0.481   3.055 -1.1515  0.6389 -1.2104
11156TIP3    H254884   3.472   0.371   2.970  1.3310 -2.3571  0.7587
11157TIP3   OH254885   0.701   6.330   4.267  0.7241 -0.3706 -0.2404
11157TIP3    H154886   0.658   6.265   4.212 -0.1369 -1.4617  1.6189
11157TIP3    H254887   0.630   6.386   4.298  1.2768  0.6112 -0.7176
11158TIP3   OH254888   3.849   6.465   0.842  0.2577 -0.3322  0.1632
11158TIP3    H154889   3.874   6.467   0.749 -0.4969  1.9850 -0.0604
11158TIP3    H254890   3.888   6.545   0.879 -3.1748  1.2644  0.7296
11159TIP3   OH254891   5.841   0.541  15.093  0.1230 -0.2667 -0.3298
11159TIP3    H154892   5.937   0.543  15.086  0.0983 -0.3637 -0.7264
11159TIP3    H254893   5.824   0.512  15.182  0.4675  0.5657  0.0195
11160TIP3   OH254894   0.140   1.144  15.615 -0.0168  0.3502  0.2927
11160TIP3    H154895   0.069   1.089  15.583  0.2130  0.4125 -0.3254
11160TIP3    H254896   0.100   1.195  15.686 -0.8921  1.1525 -0.7286
11161TIP3   OH254897   2.178   5.376   4.724  0.3149  0.1933  0.1812
11161TIP3    H154898   2.263   5.417   4.740  0.8092 -0.3170 -1.0603
11161TIP3    H254899   2.192   5.317   4.650 -0.5110 -1.8207  1.5304
11162TIP3   OH254900   5.146   6.240  13.693 -0.2606  0.4805 -0.6555
11162TIP3    H154901   5.149   6.147  13.717  1.3216  0.2647 -1.5411
11162TIP3    H254902   5.131   6.285  13.776 -0.3509 -0.5153 -0.1072
11163TIP3   OH254903   1.057   5.453   1.822  0.2996  0.4111 -0.1936
11163TIP3    H154904   1.052   5.358   1.836  0.5758  0.1071 -1.9246
11163TIP3    H254905   1.149   5.475   1.835  0.0712  0.6501  1.2092
11164TIP3   OH254906   4.925   3.874   6.496  0.6977 -0.1513  0.2581
11164TIP3    H154907   4.873   3.936   6.547  0.0916  0.1828 -0.7228
11164TIP3    H254908   5.016   3.895   6.517  0.5784  1.9915 -1.0391
11165TIP3   OH254909   2.380   3.506   1.266  0.0759 -0.2471  0.3173
11165TIP3    H154910   2.421   3.419   1.266  0.4032 -0.1143 -0.7464
11165TIP3    H254911   2.335   3.511   1.182  0.8622  0.9583 -0.0682
11166TIP3   OH254912   4.766   3.030  12.382 -0.0387 -0.1725  0.0200
11166TIP3    H154913   4.699   2.963  12.369  1.3856 -1.7820  0.6085
11166TIP3    H254914   4.839   3.003  12.325  1.2904 -0.2155  1.6614
11167TIP3   OH254915   4.009   1.251   2.928  0.4374 -0.0760  0.4280
11167TIP3    H154916   3.945   1.251   2.857 -0.3266 -0.8462  1.1057
11167TIP3    H254917   4.089   1.285   2.888  0.0306 -0.5471 -0.8057
11168TIP3   OH254918   5.903   1.495   0.313 -0.0034  0.5065 -0.1380
11168TIP3    H154919   5.978   1.521   0.259  0.0540 -0.7903 -0.7190
11168TIP3    H254920   5.928   1.520   0.402  0.7950  0.7914 -0.4308
11169TIP3   OH254921   3.430   4.047  14.208  0.0713 -0.1918  0.0826
11169TIP3    H154922   3.511   4.034  14.159  0.1524 -0.7606  0.3524
11169TIP3    H254923   3.445   4.129  14.257 -0.1038  0.5009 -0.9921
11170TIP3   OH254924   1.335   1.518  16.738  0.5492 -0.2532  0.4292
11170TIP3    H154925   1.328   1.476  16.652 -1.0190 -2.9889  1.7847
11170TIP3    H254926   1.426   1.505  16.764  1.2558  1.2653 -1.0288
11171TIP3   OH254927   1.146   3.072   4.517  0.0420 -0.2979  0.3328
11171TIP3    H154928   1.183   3.149   4.476 -0.3549 -1.0857 -1.6408
11171TIP3    H254929   1.221   3.016   4.536  0.1612 -0.3965 -0.3972
11172TIP3   OH254930   6.162   0.644   4.711  0.1923  0.6591 -0.0808
11172TIP3    H154931   6.162   0.570   4.650 -1.0742 -0.4593  1.1924
11172TIP3    H254932   6.089   0.625   4.771  1.3445  1.7315  1.7327
11173TIP3   OH254933   0.934   2.398   4.634 -0.3674 -0.8449  1.0835
11173TIP3    H154934   0.938   2.402   4.729  2.3300  0.7096  0.9896
11173TIP3    H254935   0.940   2.489   4.605  0.1444 -1.3696 -0.5777
11174TIP3   OH254936   3.225   2.589   3.116  0.3814 -0.5145  0.0842
11174TIP3    H154937   3.288   2.656   3.143  1.4657 -1.5357  0.1670
11174TIP3    H254938   3.192   2.621   3.032 -1.2451  1.4991  1.3775
11175TIP3   OH254939   1.270   1.611  14.006 -0.1287  0.4026 -0.5316
11175TIP3    H154940   1.327   1.593  14.081  1.2029  1.1782 -1.3126
11175TIP3    H254941   1.284   1.537  13.947 -0.0483  0.5125 -0.6515
11176TIP3   OH254942   2.644   1.899  17.397 -0.1127 -0.3688 -0.0350
11176TIP3    H154943   2.637   1.840  17.322 -1.0460  0.4248 -0.6065
11176TIP3    H254944   2.638   1.842  17.473  0.5504 -1.1587 -0.5553
11177TIP3   OH254945   5.563   5.872  10.758  0.1098  0.1360  0.5389
11177TIP3    H154946   5.621   5.942  10.729  1.7698 -1.0481  0.8638
11177TIP3    H254947   5.475   5.902  10.734  1.0012  1.0778 -1.8854
11178TIP3   OH254948   6.690   4.952   1.654 -0.1297 -0.2584 -0.8542
11178TIP3    H154949   6.634   4.986   1.724  0.6661  0.9992 -0.7830
11178TIP3    H254950   6.648   4.981   1.574  0.6166  1.1002 -0.7905
11179TIP3   OH254951   4.911   1.366   4.238  0.4504 -0.4517 -0.3546
11179TIP3    H154952   4.861   1.349   4.158 -3.1154 -1.1307  1.8094
11179TIP3    H254953   4.892   1.458   4.259  0.9428 -0.4343  0.0366
11180TIP3   OH254954   5.236   5.910   1.262  0.0630 -0.8123  0.2006
11180TIP3    H154955   5.249   5.857   1.184  0.2169 -0.4053 -0.0465
11180TIP3    H254956   5.264   5.998   1.238 -1.1890 -0.3614  0.2688
11181TIP3   OH254957   1.048   0.077  16.365  0.4259  0.2813 -0.5022
11181TIP3    H154958   0.970   0.028  16.340  0.4075 -1.1402  2.0075
11181TIP3    H254959   1.017   0.140  16.431  1.2065  0.4387 -0.2711
11182TIP3   OH254960   1.428   3.473  15.557  0.4389  0.3870 -0.0926
11182TIP3    H154961   1.382   3.538  15.504 -1.1200  0.2116  1.0046
11182TIP3    H254962   1.395   3.486  15.646  2.9420  0.6216  0.8791
11183TIP3   OH254963   1.544   5.003  11.763  0.0948  0.2587 -0.2836
11183TIP3    H154964   1.511   5.092  11.753 -1.5843 -0.2976  0.0471
11183TIP3    H254965   1.501   4.952  11.695 -0.0579 -0.5725  0.4028
11184TIP3   OH254966   2.991   2.199   4.951  0.0737  0.2798  0.6478
11184TIP3    H154967   3.048   2.177   5.024 -0.3130  0.2102  0.9314
11184TIP3    H254968   2.970   2.116   4.909  0.8771  0.3836  0.0095
11185TIP3   OH254969   6.328   3.868  15.401  0.0797  0.1417 -0.3989
11185TIP3    H154970   6.390   3.887  15.471 -0.7421  1.3002  0.0450
11185TIP3    H254971   6.242   3.878  15.441 -0.4070  0.3822 -1.4641
11186TIP3   OH254972   3.617   2.022  17.040  0.3589 -0.4533  0.0103
11186TIP3    H154973   3.603   2.043  16.947  1.9689 -0.9989 -0.3729
11186TIP3    H254974   3.684   1.954  17.040  0.4424 -0.4023  1.5941
11187TIP3   OH254975   6.412   3.453   1.820  0.0575  0.2070  0.0617
11187TIP3    H154976   6.395   3.542   1.789  0.7831 -0.0923 -1.2816
11187TIP3    H254977   6.429   3.462   1.913  1.9416  1.7385 -0.3897
11188TIP3   OH254978   3.523   1.127  10.460 -0.8170 -0.0207 -0.0851
11188TIP3    H154979   3.488   1.047  10.421 -0.9104  0.0849 -0.2229
11188TIP3    H254980   3.612   1.104  10.488  0.1527  0.5184 -2.4763
11189TIP3   OH254981   2.309   0.408  15.024 -0.6037 -0.2363 -0.3613
11189TIP3    H154982   2.224   0.364  15.036 -1.3643  1.4535  0.9906
11189TIP3    H254983   2.350   0.403  15.110  0.5839 -0.8254 -0.9518
11190TIP3   OH254984   1.883   0.032   3.840  0.0623 -0.6986 -0.5846
11190TIP3    H154985   1.853   0.037   3.750 -1.9556  0.0736  0.0639
11190TIP3    H254986   1.837   0.103   3.885  1.2920 -0.8222  0.9813
11191TIP3   OH254987   0.673   2.748  15.675 -0.3803  0.0066  0.7697
11191TIP3    H154988   0.702   2.670  15.721 -3.6097 -1.1526  1.1226
11191TIP3    H254989   0.664   2.720  15.584 -1.8218 -0.2069  0.9458
11192TIP3   OH254990   2.626   3.471   5.952  0.0067  0.6006  0.7407
11192TIP3    H154991   2.642   3.565   5.960  1.0367  0.5741 -0.6481
11192TIP3    H254992   2.614   3.456   5.858 -2.2413 -0.3753  1.1186
11193TIP3   OH254993   0.918   0.753   2.414  0.2396 -0.0210  0.2656
11193TIP3    H154994   0.914   0.823   2.349 -0.5819  0.2141  0.5542
11193TIP3    H254995   1.001   0.708   2.397 -0.1582 -0.2234 -1.2042
11194TIP3   OH254996   1.928   5.771  16.976 -0.2803 -0.5145  0.2209
11194TIP3    H154997   1.995   5.838  16.982  0.0964 -0.7399 -1.0358
11194TIP3    H254998   1.852   5.816  16.940 -0.7589 -0.3052  1.4440
11195TIP3   OH254999   5.574   6.145  16.714 -0.2155  0.0487  0.4749
11195TIP3    H155000   5.536   6.067  16.753  0.5688 -0.4338  0.2966
11195TIP3    H255001   5.499   6.196  16.683 -0.7375 -0.5531  0.7330
11196TIP3   OH255002   5.575   0.497  13.745  0.0710  0.2129  0.2150
11196TIP3    H155003   5.489   0.465  13.772  0.1649 -1.4982 -1.3054
11196TIP3    H255004   5.564   0.520  13.653  1.2640 -0.0751 -0.0110
11197TIP3   OH255005   4.351   1.988  16.952 -0.1521 -0.1206  0.5232
11197TIP3    H155006   4.433   1.950  16.921 -1.5571 -2.5361 -0.5879
11197TIP3    H255007   4.300   2.003  16.873 -1.0894  0.5874  1.2324
11198TIP3   OH255008   1.578   1.080  14.756 -0.2363  0.1239 -0.3104
11198TIP3    H155009   1.638   1.096  14.684  0.8070 -2.1980 -0.0527
11198TIP3    H255010   1.491   1.090  14.718  0.3031  0.7602 -1.4093
11199TIP3   OH255011   2.392   3.044  12.895 -0.2850  0.4336  0.9784
11199TIP3    H155012   2.414   3.019  12.985  0.4651 -0.1194  0.6421
11199TIP3    H255013   2.470   3.086  12.861 -0.0311 -0.7204  0.0841
11200TIP3   OH255014   0.560   4.027  15.277 -0.4543 -0.0227 -0.2663
11200TIP3    H155015   0.534   3.971  15.203 -0.2385  0.8980 -1.0690
11200TIP3    H255016   0.505   4.105  15.268 -0.5300  0.0350  0.6454
11201TIP3   OH255017   2.632   1.857   1.055  0.0601 -0.2757  0.5211
11201TIP3    H155018   2.664   1.863   1.145 -1.9009  2.4897  1.1708
11201TIP3    H255019   2.565   1.790   1.057 -0.1471 -0.0533  1.1884
11202TIP3   OH255020   5.299   1.784   1.050 -0.1634  0.1304  0.3836
11202TIP3    H155021   5.211   1.785   1.014 -0.5335  1.1031  1.2448
11202TIP3    H255022   5.355   1.817   0.980 -0.0574 -2.7460 -1.0412
11203TIP3   OH255023   6.177   2.958   0.219  0.1088  0.4962 -0.6039
11203TIP3    H155024   6.260   2.973   0.264  0.0936  1.4283 -0.8547
11203TIP3    H255025   6.110   2.981   0.283  0.0429 -0.0193 -0.4829
11204TIP3   OH255026   2.895   4.412  14.886 -0.4603  0.5269 -0.3188
11204TIP3    H155027   2.811   4.456  14.873 -0.4959  0.3010 -0.8636
11204TIP3    H255028   2.940   4.423  14.802 -1.1505 -1.9604 -1.0892
11205TIP3   OH255029   4.386   1.263  12.945  0.5799  0.1235  0.0684
11205TIP3    H155030   4.405   1.346  12.987 -3.6758  2.6333 -2.2558
11205TIP3    H255031   4.395   1.281  12.851 -3.2607 -0.9314 -0.6853
11206TIP3   OH255032   1.640   1.779  16.936 -0.0976 -0.1762 -0.4953
11206TIP3    H155033   1.695   1.853  16.909  1.3949 -1.1796 -0.3498
11206TIP3    H255034   1.571   1.819  16.989  0.1495  1.2033 -1.1646
11207TIP3   OH255035   4.124   6.183  14.387  0.1465 -0.1745  0.0461
11207TIP3    H155036   4.089   6.265  14.351  0.0672  1.0995  2.8022
11207TIP3    H255037   4.219   6.192  14.379  0.1373  0.1846  0.3466
11208TIP3   OH255038   3.851   0.442  15.746  0.3950  0.6012  0.3323
11208TIP3    H155039   3.918   0.378  15.720 -0.2294 -0.5397  1.4207
11208TIP3    H255040   3.824   0.414  15.833 -0.4587  1.9241  0.5222
11209TIP3   OH255041   0.789   4.567   2.021 -0.8943  0.3972  0.2084
11209TIP3    H155042   0.822   4.548   2.109  0.0454 -2.8372 -0.7022
11209TIP3    H255043   0.865   4.557   1.964 -2.2139 -1.7602 -1.3336
11210TIP3   OH255044   2.453   2.691   3.686  0.0499  0.0145  0.0549
11210TIP3    H155045   2.478   2.671   3.596 -0.0266 -1.7844  0.4018
11210TIP3    H255046   2.533   2.725   3.727  1.0389 -2.3407  0.1960
11211TIP3   OH255047   6.539   0.979   5.070 -0.4093  0.1228 -0.1301
11211TIP3    H155048   6.518   0.991   5.163 -1.4733 -0.0807 -0.3381
11211TIP3    H255049   6.558   1.068   5.039  0.9973  0.0718  0.5129
11212TIP3   OH255050   3.742   3.937  15.494 -0.2375 -0.2751  0.0586
11212TIP3    H155051   3.700   4.022  15.482 -0.7318 -0.1406  2.3232
11212TIP3    H255052   3.723   3.889  15.414 -2.7282  0.6140  0.0399
11213TIP3   OH255053   4.958   6.708   0.582  0.0487  0.0869 -0.0579
11213TIP3    H155054   5.017   6.678   0.651  1.1960  1.9394 -0.1373
11213TIP3    H255055   4.973   6.647   0.510  0.2420 -0.7561  0.6769
11214TIP3   OH255056   4.525   3.615   5.560  0.0100  0.0395 -0.5107
11214TIP3    H155057   4.610   3.577   5.538  0.0237  0.4394 -1.1839
11214TIP3    H255058   4.481   3.625   5.475  0.0449  1.6152 -0.3669
11215TIP3   OH255059   6.286   2.670  15.569  0.4061 -0.4074  0.6756
11215TIP3    H155060   6.340   2.710  15.637  0.5518 -0.6092  0.6774
11215TIP3    H255061   6.218   2.735  15.552  1.2071  0.2694 -0.0219
11216TIP3   OH255062   2.458   0.175  15.931  0.2814 -0.4224 -0.1310
11216TIP3    H155063   2.389   0.184  15.864 -0.8700  2.8486  1.2852
11216TIP3    H255064   2.518   0.247  15.913  2.0473 -1.7619  0.1622
11217TIP3   OH255065   2.773   0.601  17.197  0.2563 -0.7451  0.0381
11217TIP3    H155066   2.789   0.598  17.102  0.0583  2.6580 -0.2536
11217TIP3    H255067   2.691   0.650  17.205 -0.0197 -1.4592  1.9869
11218TIP3   OH255068   5.472   1.478   5.736 -0.3166 -0.3846  0.1984
11218TIP3    H155069   5.473   1.556   5.792  0.2305  0.6284 -1.1547
11218TIP3    H255070   5.417   1.503   5.662 -1.4170 -1.8662  0.4763
11219TIP3   OH255071   2.628   4.195  16.043  0.1576 -0.0130  0.2737
11219TIP3    H155072   2.602   4.282  16.073 -1.6851  0.3263 -2.0491
11219TIP3    H255073   2.546   4.147  16.033  1.0877 -1.8204  0.7943
11220TIP3   OH255074   6.598   1.244   3.949 -0.5658  0.1499  0.0573
11220TIP3    H155075   6.516   1.259   3.995 -0.1464 -1.6987  1.5115
11220TIP3    H255076   6.623   1.155   3.972  1.1421  0.1643 -1.4940
11221TIP3   OH255077   6.117   3.947  15.564 -0.1376  0.1505  0.1587
11221TIP3    H155078   6.198   3.937  15.614 -0.0695 -0.5444 -0.0816
11221TIP3    H255079   6.090   4.037  15.581  1.0956  0.6455 -0.3482
11222TIP3   OH255080   6.139   5.172  16.825 -0.3403  0.3142  0.2021
11222TIP3    H155081   6.202   5.120  16.776 -1.0622 -0.5773  0.2053
11222TIP3    H255082   6.192   5.231  16.878  0.5027 -0.8305  0.6437
11223TIP3   OH255083   2.453   3.619  15.466  0.4079 -0.3880 -0.0282
11223TIP3    H155084   2.457   3.704  15.510  0.8852 -0.5277  0.1972
11223TIP3    H255085   2.402   3.636  15.386  0.3301  0.0639  0.1152
11224TIP3   OH255086   5.693   1.950   5.274  0.3116  0.8720 -0.1099
11224TIP3    H155087   5.778   1.908   5.279  0.1595  0.7229  2.1513
11224TIP3    H255088   5.689   1.986   5.185  2.4992  0.4613 -0.4217
11225TIP3   OH255089   4.035   1.094  11.150 -0.4299 -0.4400  0.8635
11225TIP3    H155090   4.069   1.153  11.216  0.9594 -0.1214 -0.0957
11225TIP3    H255091   4.077   1.122  11.068 -0.9233 -1.7633  0.1191
11226TIP3   OH255092   5.546   0.154  12.405 -0.5603  0.2772  0.8697
11226TIP3    H155093   5.599   0.234  12.414 -0.7715  0.6316 -0.6943
11226TIP3    H255094   5.473   0.181  12.349  0.6718 -1.5827 -1.8163
11227TIP3   OH255095   2.915   2.199   4.009 -0.1095 -0.3098 -0.0430
11227TIP3    H155096   2.975   2.184   3.936  0.0127  1.1740 -0.2741
11227TIP3    H255097   2.949   2.278   4.052 -1.8090  0.4846 -0.0989
11228TIP3   OH255098   1.155   5.725   4.677 -0.7604 -0.6612 -0.7429
11228TIP3    H155099   1.212   5.650   4.660 -0.1080 -0.0627 -1.2309
11228TIP3    H255100   1.212   5.791   4.716 -1.6079 -0.8815  0.9501
11229TIP3   OH255101   4.803   2.131   2.644  0.1461  0.3435  0.3173
11229TIP3    H155102   4.739   2.202   2.643  0.5769  0.7432  0.6431
11229TIP3    H255103   4.839   2.130   2.556 -2.0635 -1.5379 -0.6995
11230TIP3   OH255104   5.582   3.899  14.632  0.0016  0.3208  0.2732
11230TIP3    H155105   5.622   3.984  14.613  0.8888  0.4340  2.3878
11230TIP3    H255106   5.611   3.878  14.721 -3.9414 -0.0116  1.6826
11231TIP3   OH255107   2.690   5.689   0.496  0.6384 -0.2180 -0.5878
11231TIP3    H155108   2.706   5.777   0.532 -0.0782  0.2224 -1.3097
11231TIP3    H255109   2.680   5.704   0.402 -1.9327 -0.7162 -0.4548
11232TIP3   OH255110   4.909   3.976  15.194 -0.2719  0.0169 -0.1528
11232TIP3    H155111   4.824   3.957  15.235  0.1278 -0.5357  0.4213
11232TIP3    H255112   4.921   3.904  15.132  0.9639 -1.3706  1.5992
11233TIP3   OH255113   0.040   3.819  16.558  1.2002 -0.9213  0.2119
11233TIP3    H155114  -0.025   3.802  16.490 -0.6744  1.5273  1.2430
11233TIP3    H255115   0.115   3.856  16.511  0.0209  0.5370 -0.6120
11234TIP3   OH255116   1.938   1.933   5.821  0.0980  0.2317  0.3447
11234TIP3    H155117   1.949   2.022   5.857  1.4603 -0.2587  1.2305
11234TIP3    H255118   1.940   1.946   5.726  0.4292  1.1492  0.4602
11235TIP3   OH255119   2.036   0.245  11.843 -0.0880 -0.5842 -0.2853
11235TIP3    H155120   1.961   0.236  11.901 -0.9896 -1.3774 -1.5341
11235TIP3    H255121   2.061   0.338  11.850 -1.5890 -0.1521 -0.3219
11236TIP3   OH255122   0.407   6.265   4.824  0.4928  0.0853 -0.2917
11236TIP3    H155123   0.502   6.269   4.818  0.5167  0.2943  0.1724
11236TIP3    H255124   0.383   6.336   4.883 -0.0229  0.5729 -1.0686
11237TIP3   OH255125   1.731   4.134   2.638  0.2471 -0.1586  0.3003
11237TIP3    H155126   1.786   4.206   2.667  1.0888  0.6999 -2.9851
11237TIP3    H255127   1.644   4.172   2.626  0.5484  0.2139 -0.8403
11238TIP3   OH255128   6.382   4.929  13.034 -0.1478 -0.1520 -0.7294
11238TIP3    H155129   6.466   4.893  13.004 -0.2131 -1.9976  1.0580
11238TIP3    H255130   6.317   4.890  12.975  0.1248  0.1631 -1.2422
11239TIP3   OH255131   2.427   3.914   3.699 -0.1826 -0.0772  0.2461
11239TIP3    H155132   2.411   4.001   3.735 -0.6317  0.3542 -0.9480
11239TIP3    H255133   2.483   3.871   3.764  0.5666  1.3210  0.5705
11240TIP3   OH255134   6.748   1.880   4.505 -0.0281 -0.1068  0.1759
11240TIP3    H155135   6.673   1.932   4.533 -1.2015 -0.8426 -1.4680
11240TIP3    H255136   6.738   1.872   4.410  2.2954  0.0043 -0.1385
11241TIP3   OH255137   2.949   3.459   6.667  0.2239 -0.2081  0.3247
11241TIP3    H155138   2.972   3.376   6.624  0.1449 -0.2472  0.3574
11241TIP3    H255139   3.021   3.518   6.646 -0.7581  0.4062 -1.6140
11242TIP3   OH255140   2.951   0.288   5.291 -0.0958 -0.3367 -0.5932
11242TIP3    H155141   2.874   0.344   5.279  1.0385  1.5413  0.5805
11242TIP3    H255142   2.936   0.244   5.375  0.3874  0.4900 -0.0731
11243TIP3   OH255143   2.471   0.012   2.149 -0.4129  0.2260 -1.1144
11243TIP3    H155144   2.544   0.035   2.206  1.5197  0.3133 -3.4922
11243TIP3    H255145   2.412   0.088   2.155  0.8557  1.2342 -0.9481
11244TIP3   OH255146   2.142   2.800   3.601  0.2749 -0.1198  0.0041
11244TIP3    H155147   2.212   2.841   3.551 -0.1725  1.4718  0.6322
11244TIP3    H255148   2.089   2.873   3.632  0.0861 -1.1050  2.1282
11245TIP3   OH255149   3.410   4.392   1.693  0.6432  0.8870  0.0887
11245TIP3    H155150   3.482   4.454   1.705  1.5642 -0.1354  0.0579
11245TIP3    H255151   3.437   4.338   1.619  0.1955  0.0127  0.5392
11246TIP3   OH255152   1.717   0.363  11.271  0.2076 -0.0226 -0.6267
11246TIP3    H155153   1.646   0.353  11.207 -0.6076 -0.8006  0.3650
11246TIP3    H255154   1.674   0.393  11.351  1.1119  0.2549 -0.2336
11247TIP3   OH255155   6.482   0.323  11.054  0.6795  0.2642  0.3790
11247TIP3    H155156   6.394   0.350  11.030  0.3102 -0.1349  1.2405
11247TIP3    H255157   6.488   0.231  11.028  1.4485  0.7325 -1.2459
11248TIP3   OH255158   3.871   1.069   1.852  0.0539 -0.2644 -0.7988
11248TIP3    H155159   3.913   1.046   1.769  0.5978  0.6463 -0.7920
11248TIP3    H255160   3.887   0.994   1.909 -0.2189 -0.8438 -1.4765
11249TIP3   OH255161   3.902   6.486  12.198  0.3159  0.3543 -0.5119
11249TIP3    H155162   3.930   6.576  12.179  1.7583 -0.0539 -0.4311
11249TIP3    H255163   3.829   6.496  12.260  1.5730  1.4399  0.8470
11250TIP3   OH255164   5.420   5.159   4.869  0.2781  0.1868 -0.4251
11250TIP3    H155165   5.444   5.251   4.878  1.5507 -0.0520 -1.0718
11250TIP3    H255166   5.378   5.137   4.951 -0.1084  1.3639 -0.2897
11251TIP3   OH255167   3.461   6.720  14.540 -0.0203 -0.6106 -0.5293
11251TIP3    H155168   3.402   6.683  14.473 -0.6348 -1.8703  0.6470
11251TIP3    H255169   3.504   6.793  14.496 -1.5076 -0.4588 -1.8454
11252TIP3   OH255170   1.948   3.528   0.977  0.2407 -0.0026 -0.7491
11252TIP3    H155171   1.958   3.459   1.043 -0.2506  1.8657  1.3855
11252TIP3    H255172   1.902   3.485   0.904 -1.1335 -1.6411  0.9908
11253TIP3   OH255173   4.822   3.900   2.799 -0.2684 -0.4868  0.3526
11253TIP3    H155174   4.831   3.822   2.853 -0.1034 -1.9461 -1.6445
11253TIP3    H255175   4.831   3.974   2.859 -0.5822 -2.0056  2.3312
11254TIP3   OH255176   2.397   3.011   0.695 -0.1317  0.1160 -0.6900
11254TIP3    H155177   2.451   3.074   0.648  0.2114  0.0467 -0.3943
11254TIP3    H255178   2.460   2.957   0.744 -0.4350 -0.3044 -0.7591
11255TIP3   OH255179   0.770   1.164   3.069 -0.6088 -0.5034 -0.0638
11255TIP3    H155180   0.775   1.259   3.079  1.0803 -0.5038 -0.7304
11255TIP3    H255181   0.797   1.130   3.154  0.5429 -0.3868 -0.3696
11256TIP3   OH255182   0.320   6.495   2.520  0.2045  0.4807 -0.5322
11256TIP3    H155183   0.359   6.569   2.473 -2.0800  1.2647 -1.2946
11256TIP3    H255184   0.345   6.418   2.468 -1.1019  1.1993 -2.3239
11257TIP3   OH255185   2.451   4.811  11.542  0.2612  0.3455  0.4043
11257TIP3    H155186   2.400   4.889  11.520 -0.7893 -0.6077 -0.7304
11257TIP3    H255187   2.399   4.767  11.610  0.8280  0.5916  1.0098
11258TIP3   OH255188   6.576   4.419   1.935 -0.2877 -0.3827 -0.4748
11258TIP3    H155189   6.513   4.430   1.864  1.6330 -1.3055 -2.4258
11258TIP3    H255190   6.656   4.387   1.893  1.7242  1.2386  1.7853
11259TIP3   OH255191   4.654   2.464  15.218  0.1496  0.0290  0.0347
11259TIP3    H155192   4.616   2.391  15.169 -2.8037  1.6482 -0.3478
11259TIP3    H255193   4.702   2.515  15.153  0.5252 -0.5057 -0.1099
11260TIP3   OH255194   0.698   4.940  15.205 -0.2223  0.4562 -0.0901
11260TIP3    H155195   0.645   4.901  15.136  1.1253  2.8955 -2.7198
11260TIP3    H255196   0.692   5.034  15.190 -1.9782  1.4844  4.8659
11261TIP3   OH255197   5.897   6.551  15.417  0.0388  0.1552 -0.7499
11261TIP3    H155198   5.960   6.571  15.486  0.3757  0.4262 -1.1332
11261TIP3    H255199   5.822   6.607  15.437 -0.3129 -0.5653  0.0225
11262TIP3   OH255200   0.303   3.815  10.679 -0.5201 -0.4049  0.0680
11262TIP3    H155201   0.296   3.738  10.623 -0.4607 -0.5845  0.3038
11262TIP3    H255202   0.303   3.889  10.619 -2.8392 -0.4364 -0.0668
11263TIP3   OH255203   4.718   3.293   2.281  0.0850 -0.7829 -0.0203
11263TIP3    H155204   4.750   3.243   2.356 -1.9660 -0.8576  0.8882
11263TIP3    H255205   4.656   3.234   2.237 -0.8540  0.2206 -0.1032
11264TIP3   OH255206   2.655   5.128   3.052  0.3905 -0.8889  0.2584
11264TIP3    H155207   2.640   5.041   3.089 -0.3258 -1.1069 -0.5156
11264TIP3    H255208   2.577   5.178   3.075  0.2926 -0.7941 -0.2543
11265TIP3   OH255209   3.307   3.711   1.875 -0.3698  0.2911 -0.3659
11265TIP3    H155210   3.220   3.714   1.914 -0.3110  1.3657 -0.2979
11265TIP3    H255211   3.314   3.623   1.838 -2.0008  0.6365 -1.5818
11266TIP3   OH255212   5.199   1.215  12.824  0.2067  0.5968  0.0452
11266TIP3    H155213   5.190   1.204  12.919 -1.0384 -1.4601 -0.2447
11266TIP3    H255214   5.289   1.242  12.811  0.4604  0.6827  1.8040
11267TIP3   OH255215   3.468   6.452  16.530 -0.4234 -0.3067 -0.3388
11267TIP3    H155216   3.515   6.428  16.610 -0.1420  0.6938 -0.1897
11267TIP3    H255217   3.392   6.394  16.528 -1.3913  0.8046  1.5900
11268TIP3   OH255218   2.873   5.254   3.134 -0.1841  0.1043  0.1753
11268TIP3    H155219   2.799   5.208   3.093 -0.6985  2.1368 -1.4273
11268TIP3    H255220   2.862   5.240   3.228  0.2059 -3.6086 -0.1979
11269TIP3   OH255221   2.064   6.416   4.698  0.2154 -0.1861  0.0037
11269TIP3    H155222   2.126   6.373   4.639  0.7378  0.6966 -0.1114
11269TIP3    H255223   2.008   6.468   4.641  1.2121  1.2827  0.3083
11270TIP3   OH255224   2.624   1.119  15.192 -0.3171  0.3097  0.0374
11270TIP3    H155225   2.696   1.100  15.131  0.7191  1.0659  0.9793
11270TIP3    H255226   2.667   1.149  15.272 -1.6782  0.2893  0.8178
11271TIP3   OH255227   5.406   3.964   4.495 -0.0961  0.0027 -0.2242
11271TIP3    H155228   5.481   3.988   4.440 -0.5245  1.3025 -0.2701
11271TIP3    H255229   5.385   4.044   4.544 -1.7641 -0.1793 -0.5820
11272TIP3   OH255230   5.663   2.391   5.704 -0.4373  0.1847  0.2908
11272TIP3    H155231   5.679   2.404   5.610  0.3104 -0.2571  0.3497
11272TIP3    H255232   5.568   2.398   5.713 -0.4314  1.3416 -0.3241
11273TIP3   OH255233   0.840   4.895   1.030 -0.2666 -0.3400  0.1486
11273TIP3    H155234   0.919   4.842   1.024  0.9506  1.4248 -0.1138
11273TIP3    H255235   0.836   4.921   1.122  0.3148  0.7990 -0.1366
11274TIP3   OH255236   4.328   5.135   1.124  0.1268 -0.9744  0.1858
11274TIP3    H155237   4.308   5.213   1.073  0.7210 -1.5016 -0.8926
11274TIP3    H255238   4.419   5.115   1.102 -0.3072 -2.5208 -0.3461
11275TIP3   OH255239   4.720   3.017   0.640  0.2858  0.1403  0.3921
11275TIP3    H155240   4.669   2.936   0.638  1.8593 -0.8885 -0.1806
11275TIP3    H255241   4.751   3.023   0.730 -0.6859  0.6877  0.7031
11276TIP3   OH255242   3.198   6.664  16.335 -0.1208  0.4280 -0.1240
11276TIP3    H155243   3.281   6.646  16.381 -0.5170  0.7176  0.7236
11276TIP3    H255244   3.139   6.594  16.364 -0.3488  0.5622 -0.2602
11277TIP3   OH255245   4.104   4.010   5.353 -0.0441  0.3712 -0.0190
11277TIP3    H155246   4.145   4.001   5.267 -0.4720 -2.5248 -0.0168
11277TIP3    H255247   4.132   3.932   5.401 -2.8202 -0.0439  1.1283
11278TIP3   OH255248   3.813   0.069  15.459  0.3555 -0.1749 -0.1728
11278TIP3    H155249   3.781   0.082  15.369  0.0419 -2.1508 -0.3823
11278TIP3    H255250   3.764  -0.006  15.491  2.2333 -1.0581  0.7727
11279TIP3   OH255251   6.027   3.821   3.545  0.1036  0.1724  0.5837
11279TIP3    H155252   5.969   3.896   3.529 -0.8005 -0.7085 -0.3776
11279TIP3    H255253   6.007   3.794   3.635 -1.9090 -0.8634 -0.1135
11280TIP3   OH255254   3.963   4.597   3.685 -0.4158  0.6956 -0.1002
11280TIP3    H155255   3.998   4.525   3.737  1.8869  1.2502 -0.7582
11280TIP3    H255256   3.951   4.559   3.597  1.0408  1.1467 -0.5096
11281TIP3   OH255257   1.153   4.752   1.932 -0.1805  0.6957 -0.0310
11281TIP3    H155258   1.184   4.662   1.921 -2.2493 -0.1651  0.5661
11281TIP3    H255259   1.232   4.804   1.945  1.1983 -0.7231 -2.2241
11282TIP3   OH255260   5.631   4.332  16.990 -0.2341 -0.0614 -0.9369
11282TIP3    H155261   5.693   4.277  17.038  0.2722 -0.0016 -1.5078
11282TIP3    H255262   5.579   4.375  17.058 -0.5110 -1.0929 -0.4817
11283TIP3   OH255263   5.722   3.431   4.672 -0.1809 -0.3269  0.3319
11283TIP3    H155264   5.801   3.482   4.692 -0.3577 -0.6495  1.9833
11283TIP3    H255265   5.732   3.407   4.579  0.4617  1.6906 -0.1712
11284TIP3   OH255266   1.275   0.109  12.645  0.0457  0.6568  0.5915
11284TIP3    H155267   1.217   0.096  12.720  0.2050  0.9225  0.7624
11284TIP3    H255268   1.359   0.071  12.672  0.0712  0.6522  0.5072
11285TIP3   OH255269   2.148   0.099   3.891  0.3965  0.0502 -0.1940
11285TIP3    H155270   2.182   0.043   3.961  0.5776  0.5027  0.0832
11285TIP3    H255271   2.057   0.069   3.879  0.6092 -0.5574 -0.3164
11286TIP3   OH255272   5.982   5.769   1.358  0.0491  0.6747 -0.0461
11286TIP3    H155273   5.965   5.706   1.288 -1.1123  0.4196  0.4553
11286TIP3    H255274   5.906   5.762   1.416 -0.1605  2.5779 -0.0232
11287TIP3   OH255275   5.007   3.736  16.780  0.5703 -0.1748 -0.1792
11287TIP3    H155276   5.029   3.821  16.741  1.0510 -0.3491 -0.2881
11287TIP3    H255277   5.019   3.673  16.709 -0.2612 -0.2808 -0.2371
11288TIP3   OH255278   6.635   3.140  12.952 -0.4585 -0.0621  0.5562
11288TIP3    H155279   6.652   3.085  13.029  0.0789 -0.8305 -0.0916
11288TIP3    H255280   6.557   3.189  12.975  0.4335  0.7254  2.1392
11289TIP3   OH255281   4.613   3.064   1.101 -0.4960 -0.0122 -0.3957
11289TIP3    H155282   4.590   3.009   1.026  3.1195 -0.8722 -1.0582
11289TIP3    H255283   4.653   3.142   1.062  1.7649 -0.6319  0.5087
11290TIP3   OH255284   0.947   1.247  11.485 -0.1157 -0.3579  0.0967
11290TIP3    H155285   0.983   1.179  11.429  0.6581 -0.9537  1.2529
11290TIP3    H255286   0.896   1.200  11.551  0.3889  0.1531  0.8855
11291TIP3   OH255287   1.553   0.904  13.697 -0.4405 -0.1480 -0.0384
11291TIP3    H155288   1.522   0.902  13.787  0.5864  0.6458  0.3531
11291TIP3    H255289   1.489   0.853  13.648  0.2055 -2.6493  1.5130
11292TIP3   OH255290   4.424   2.116   1.759  0.1376 -0.2630 -0.2742
11292TIP3    H155291   4.379   2.077   1.683 -1.5710  0.0505  0.5302
11292TIP3    H255292   4.491   2.172   1.721  0.2043 -1.1447 -1.5214
11293TIP3   OH255293   3.905   0.155  13.331  0.3068 -0.9122 -0.2772
11293TIP3    H155294   3.944   0.165  13.418  0.0001  1.0388 -0.3043
11293TIP3    H255295   3.940   0.230  13.281 -0.6716 -1.1706 -1.3850
11294TIP3   OH255296   2.753   0.802   1.957 -0.1582  0.4898 -0.7675
11294TIP3    H155297   2.746   0.712   1.927  0.0328 -0.3271  1.4620
11294TIP3    H255298   2.780   0.851   1.879  1.5237 -1.6483 -1.6202
11295TIP3   OH255299   6.471   3.498   4.077  0.4028 -0.4895 -0.6059
11295TIP3    H155300   6.466   3.531   4.167 -0.6386  0.7785 -1.0982
11295TIP3    H255301   6.561   3.513   4.051  0.9578 -1.7144  0.5202
11296TIP3   OH255302   5.264   0.868  15.809 -0.4467 -0.1392  0.2578
11296TIP3    H155303   5.237   0.942  15.864 -0.1184  1.2027 -1.2848
11296TIP3    H255304   5.345   0.898  15.767 -1.2192 -0.6373 -1.7361
11297TIP3   OH255305   4.987   1.563  10.407  0.3603  0.7011  0.1592
11297TIP3    H155306   4.993   1.615  10.487  0.4655 -0.3693  0.8781
11297TIP3    H255307   4.899   1.579  10.374 -0.7686 -1.0468  2.1018
11298TIP3   OH255308   5.351   4.091  15.697 -0.3173 -0.0235  0.0441
11298TIP3    H155309   5.258   4.103  15.679 -0.4973 -1.5934 -0.2601
11298TIP3    H255310   5.379   4.174  15.736 -1.6399  0.7785 -0.6351
11299TIP3   OH255311   3.615   1.099  11.901 -0.0536 -0.5280 -0.1938
11299TIP3    H155312   3.659   1.140  11.976 -1.7433 -0.5710  0.9046
11299TIP3    H255313   3.592   1.172  11.844  0.5599 -0.4037 -0.2849
11300TIP3   OH255314   0.554   1.813   2.653 -0.3859 -0.0116 -0.0469
11300TIP3    H155315   0.473   1.773   2.684  0.4410 -0.4265  1.6779
11300TIP3    H255316   0.562   1.893   2.704 -0.0091  0.3425 -0.6531
11301TIP3   OH255317   3.986   6.265   2.876 -0.1676  0.3441 -0.5809
11301TIP3    H155318   4.037   6.299   2.950 -0.1434 -1.7251  0.4169
11301TIP3    H255319   3.902   6.241   2.914 -1.0645  1.5296 -1.7478
11302TIP3   OH255320   6.056   4.788  11.718  0.2663 -0.4512 -0.3274
11302TIP3    H155321   6.125   4.792  11.653 -0.1965  2.0027 -0.7551
11302TIP3    H255322   5.976   4.812  11.671 -0.7195 -2.0455  0.4187
11303TIP3   OH255323   2.938   3.178  12.950  0.3220  0.0719 -0.3917
11303TIP3    H155324   2.880   3.230  12.895 -0.3101  0.6010  0.7651
11303TIP3    H255325   2.928   3.089  12.917  0.7830  0.5274 -1.8376
11304TIP3   OH255326   6.308   2.273  14.907 -0.3095  0.8414 -0.3278
11304TIP3    H155327   6.231   2.329  14.894 -1.2494 -0.6743 -1.7715
11304TIP3    H255328   6.298   2.204  14.841  1.8967  0.1577 -0.0192
11305TIP3   OH255329   1.331   4.172  15.854  0.4682  0.1916  0.2356
11305TIP3    H155330   1.249   4.205  15.817 -0.2272 -1.3066  0.3383
11305TIP3    H255331   1.396   4.184  15.785 -0.4510 -1.0504 -0.8957
11306TIP3   OH255332   4.354   0.492   1.538  0.2458  0.0726  1.0858
11306TIP3    H155333   4.440   0.475   1.575 -0.3433 -0.3513  2.3233
11306TIP3    H255334   4.357   0.452   1.451  1.3096  0.1124  1.0920
11307TIP3   OH255335   2.534   5.760  12.030 -0.1735  0.3880  0.2629
11307TIP3    H155336   2.569   5.820  11.965 -0.2044 -0.1461 -0.2600
11307TIP3    H255337   2.580   5.677  12.014 -1.8806 -0.4395 -0.6672
11308TIP3   OH255338   2.639   4.508  14.529  0.1411  0.3319  0.1160
11308TIP3    H155339   2.604   4.432  14.482  0.2184  0.1694  0.3161
11308TIP3    H255340   2.607   4.584  14.481 -1.2367  0.2148  0.7976
11309TIP3   OH255341   1.632   6.247  15.410 -0.2276  0.2675 -0.0278
11309TIP3    H155342   1.571   6.320  15.398  0.4603  1.2046  1.7460
11309TIP3    H255343   1.716   6.280  15.376  0.2622  0.6452  1.4478
11310TIP3   OH255344   4.246   3.114  13.053 -0.0772  0.1147 -0.0974
11310TIP3    H155345   4.237   3.145  12.963 -0.3198 -1.1047 -0.5092
11310TIP3    H255346   4.196   3.033  13.056  0.7526 -0.3868  0.8803
11311TIP3   OH255347   5.116   6.599   2.361 -0.3150 -0.1254  0.1222
11311TIP3    H155348   5.136   6.558   2.277  1.6710  1.4874 -0.2763
11311TIP3    H255349   5.202   6.610   2.403 -0.8377  2.4354  0.7066
11312TIP3   OH255350   3.887   1.501   2.324 -0.4557  0.2227  0.0979
11312TIP3    H155351   3.856   1.550   2.247  1.0449 -0.3016 -0.8902
11312TIP3    H255352   3.814   1.507   2.386 -1.0677  2.0908 -0.6941
11313TIP3   OH255353   4.244   2.794   4.698 -0.0814 -0.1971 -0.8033
11313TIP3    H155354   4.251   2.853   4.623  0.2277 -0.4471 -0.9736
11313TIP3    H255355   4.275   2.845   4.772  1.8694 -0.6742 -1.2240
11314TIP3   OH255356   0.086   4.217  12.179  0.8641  0.1123  0.1042
11314TIP3    H155357   0.124   4.186  12.096 -0.0614 -0.0233 -0.2795
11314TIP3    H255358   0.091   4.141  12.237 -0.8768 -0.6344 -0.6574
11315TIP3   OH255359   5.239   5.103  16.745  0.0376  0.1040 -0.2908
11315TIP3    H155360   5.206   5.128  16.659 -0.3999 -1.2633 -0.5515
11315TIP3    H255361   5.281   5.018  16.731  1.6580  0.7341  0.4976
11316TIP3   OH255362   3.696   2.526   4.527  0.3081  0.3744  0.2271
11316TIP3    H155363   3.708   2.518   4.432 -0.1780  0.5241  0.1530
11316TIP3    H255364   3.784   2.542   4.561  0.6838 -0.9402 -0.0735
11317TIP3   OH255365   2.912   3.867  14.567  0.5884 -0.3381 -0.1252
11317TIP3    H155366   2.878   3.850  14.655 -0.2534 -0.0819 -0.3957
11317TIP3    H255367   2.977   3.798  14.553  0.3332 -0.7079  0.4837
11318TIP3   OH255368   5.869   0.488   5.149 -0.0761 -0.4629  0.3322
11318TIP3    H155369   5.800   0.464   5.211 -0.4422  0.3698  0.2557
11318TIP3    H255370   5.943   0.513   5.205 -0.3805  0.2127  0.4417
11319TIP3   OH255371   0.749   4.933   0.535  0.2596 -0.2554  0.6749
11319TIP3    H155372   0.723   4.996   0.467  1.7116 -1.2582 -0.8682
11319TIP3    H255373   0.789   4.987   0.603  3.8535  0.4354 -1.7431
11320TIP3   OH255374   6.477   1.798   2.354  0.1835  0.1574 -0.4442
11320TIP3    H155375   6.448   1.712   2.382 -0.0094 -0.0079 -1.1250
11320TIP3    H255376   6.491   1.789   2.260  1.8757  0.3883 -0.2505
11321TIP3   OH255377   5.050   6.428  12.498 -0.0658 -0.5009 -0.2770
11321TIP3    H155378   5.045   6.519  12.526 -1.6263 -0.6368 -0.0041
11321TIP3    H255379   5.143   6.409  12.492  0.3187  0.3854  2.0396
11322TIP3   OH255380   2.617   3.265  11.941  0.1777 -0.1605  0.4390
11322TIP3    H155381   2.577   3.195  11.891 -0.8807  0.2441  0.7020
11322TIP3    H255382   2.701   3.281  11.898 -0.4166 -0.2806 -0.7821
11323TIP3   OH255383   2.560   5.156   3.880 -0.0877 -0.5762  0.6005
11323TIP3    H155384   2.472   5.123   3.900 -0.2499  0.3097  1.4447
11323TIP3    H255385   2.619   5.095   3.925 -0.3723  0.0316  1.8593
11324TIP3   OH255386   0.965   2.404   4.904  0.4941  0.6034  0.3028
11324TIP3    H155387   1.054   2.438   4.902  0.5444  0.4620 -1.4563
11324TIP3    H255388   0.971   2.322   4.953  1.3258  0.5986  0.2079
11325TIP3   OH255389   0.772   4.655  16.039 -0.3157  0.2082 -0.4190
11325TIP3    H155390   0.772   4.694  15.951 -0.7738  1.0861 -0.0371
11325TIP3    H255391   0.684   4.672  16.073 -1.1867 -2.7862 -0.9198
11326TIP3   OH255392   4.144   6.028  13.179  0.1730 -0.4066  0.3201
11326TIP3    H155393   4.223   6.022  13.232  0.0236 -0.5681  0.5277
11326TIP3    H255394   4.147   5.950  13.123  1.1259  0.5673 -1.0281
11327TIP3   OH255395   3.928   5.819   0.174  0.2447 -0.3960 -0.0705
11327TIP3    H155396   3.905   5.785   0.087 -0.8781 -1.7985  0.7484
11327TIP3    H255397   3.898   5.752   0.235  2.7155 -0.3205  1.3355
11328TIP3   OH255398   0.974   0.201   3.531 -0.1450  0.5101  0.2253
11328TIP3    H155399   0.946   0.124   3.580 -0.3472  0.4300 -0.0146
11328TIP3    H255400   0.906   0.214   3.465  0.3702  0.3262 -0.3531
11329TIP3   OH255401   6.599   4.009  12.427  0.0580  0.6263 -0.5345
11329TIP3    H155402   6.560   4.092  12.457  0.5997  1.0564 -0.9845
11329TIP3    H255403   6.525   3.949  12.418 -0.3754  1.1390 -0.4496
11330TIP3   OH255404   3.388   2.809   3.245 -0.3944  0.6137  1.0274
11330TIP3    H155405   3.483   2.804   3.252 -0.1520  2.1343 -0.6225
11330TIP3    H255406   3.357   2.799   3.335  1.2055 -1.2348  1.4548
11331TIP3   OH255407   1.854   0.414  12.487 -0.7314  0.1274  0.0924
11331TIP3    H155408   1.768   0.373  12.491  0.1159 -1.9335 -1.1196
11331TIP3    H255409   1.879   0.408  12.395  1.8358 -1.9483  0.7998
11332TIP3   OH255410   4.962   6.352   1.027  0.0207 -0.7078 -0.0594
11332TIP3    H155411   5.013   6.422   1.068  0.0849 -0.5143 -0.4698
11332TIP3    H255412   4.872   6.383   1.030  0.0321 -0.6694 -0.1161
11333TIP3   OH255413   1.884   1.047   1.909  0.2487  0.5307 -0.3417
11333TIP3    H155414   1.850   1.107   1.976 -1.4778 -1.6258  0.8848
11333TIP3    H255415   1.849   1.081   1.827 -1.5961  0.6709  0.4480
11334TIP3   OH255416   2.304   1.839  14.891  0.0916 -0.0318 -0.1694
11334TIP3    H155417   2.379   1.892  14.864  0.5943 -1.5061 -1.8009
11334TIP3    H255418   2.337   1.787  14.965  0.7749 -0.8555 -1.0369
11335TIP3   OH255419   1.832   4.612   2.580  0.4002 -0.5609 -0.1423
11335TIP3    H155420   1.752   4.575   2.544  0.4014 -0.2679 -0.4450
11335TIP3    H255421   1.823   4.600   2.675 -0.0508 -0.4248 -0.1649
11336TIP3   OH255422   5.473   4.479   2.076  0.1930 -0.2607 -0.6094
11336TIP3    H155423   5.426   4.554   2.113  0.7344 -0.2238  0.0331
11336TIP3    H255424   5.564   4.495   2.101  0.7214  0.1781 -2.6669
11337TIP3   OH255425   3.535   5.593  12.511  0.1995 -0.0805  0.1246
11337TIP3    H155426   3.570   5.642  12.586  0.6149 -1.8931  1.1768
11337TIP3    H255427   3.612   5.575  12.457  0.2403 -0.6041  0.3590
11338TIP3   OH255428   5.504   4.422  11.512  0.0695 -0.3418  0.1955
11338TIP3    H155429   5.519   4.356  11.580  1.1662  0.4725  0.7630
11338TIP3    H255430   5.418   4.399  11.476 -0.4466 -0.9145  1.7039
11339TIP3   OH255431   1.517   3.974  16.218 -0.3080  0.5138  0.1932
11339TIP3    H155432   1.473   4.056  16.196  0.8900  0.8375 -1.0819
11339TIP3    H255433   1.468   3.906  16.172 -1.9432  0.3126  2.0699
11340TIP3   OH255434   6.168   3.603  16.797  0.0670 -0.1677 -0.5680
11340TIP3    H155435   6.255   3.569  16.776 -0.1832 -2.3054  1.4620
11340TIP3    H255436   6.110   3.566  16.731 -0.0344 -3.1110  1.0141
11341TIP3   OH255437   6.157   2.165   3.695  0.4537 -0.8019 -0.0759
11341TIP3    H155438   6.237   2.216   3.680  0.7282 -0.3963  2.2739
11341TIP3    H255439   6.150   2.109   3.618  1.3816  1.1747 -1.7064
11342TIP3   OH255440   5.083   4.998   2.091  0.4340 -0.0553  0.2588
11342TIP3    H155441   5.041   4.952   2.164  1.9227 -0.7506  0.7229
11342TIP3    H255442   5.087   5.089   2.119 -1.0957  0.1092  0.0243
11343TIP3   OH255443   5.524   0.323   4.329  0.5553 -0.1595 -0.4243
11343TIP3    H155444   5.450   0.291   4.380  1.6092 -1.4380  0.3689
11343TIP3    H255445   5.485   0.360   4.250 -0.9423 -0.3814  0.1818
11344TIP3   OH255446   4.989   6.643  14.662 -0.3331 -0.2096 -0.2642
11344TIP3    H155447   4.985   6.609  14.751 -1.9221  1.1144  0.2163
11344TIP3    H255448   5.035   6.575  14.613  1.3426 -0.6001  1.7014
11345TIP3   OH255449   5.980   6.381   5.398  0.5689  0.3735 -0.1448
11345TIP3    H155450   6.018   6.367   5.484  1.0018 -2.3021 -0.6913
11345TIP3    H255451   5.896   6.425   5.415  0.6295 -0.1521  1.6221
11346TIP3   OH255452   5.731   5.911   5.330 -0.0065  0.1942  0.0327
11346TIP3    H155453   5.788   5.860   5.389 -0.1133  0.8970  0.7683
11346TIP3    H255454   5.751   6.002   5.351 -2.4146  0.5116  1.3876
11347TIP3   OH255455   0.125   2.327   0.180 -0.1558 -0.6566 -0.0403
11347TIP3    H155456   0.114   2.340   0.274 -0.8630 -0.1409 -0.1898
11347TIP3    H255457   0.045   2.362   0.141  1.7764  2.9642 -1.1755
11348TIP3   OH255458   1.421   0.018  13.852 -0.2755 -0.4214  0.1054
11348TIP3    H155459   1.418   0.015  13.756  0.3512 -2.1386  0.1078
11348TIP3    H255460   1.435   0.111  13.872 -0.3779 -0.0327 -1.4628
11349TIP3   OH255461   6.118   4.164   0.345 -0.1606  0.1121 -1.2248
11349TIP3    H155462   6.155   4.247   0.315  0.2488 -0.2845 -1.8447
11349TIP3    H255463   6.178   4.098   0.312 -0.2939 -0.4183 -0.4454
11350TIP3   OH255464   0.150   1.406   5.662 -0.2048  0.0366 -0.0158
11350TIP3    H155465   0.107   1.492   5.668 -0.9407 -0.3756  0.8988
11350TIP3    H255466   0.239   1.422   5.693 -0.8420  0.1546  1.9358
11351TIP3   OH255467   5.180   5.103  16.376 -0.3819  0.1531  0.1475
11351TIP3    H155468   5.215   5.156  16.305 -0.6399 -0.1152 -0.1803
11351TIP3    H255469   5.087   5.128  16.381 -0.1311  0.9873  1.1201
11352TIP3   OH255470   5.812   0.431   6.156 -0.4699  0.2291  0.1504
11352TIP3    H155471   5.770   0.489   6.220  0.3108 -1.3728  2.2216
11352TIP3    H255472   5.764   0.349   6.163  0.4481 -0.3724 -0.3813
11353TIP3   OH255473   5.883   6.030  12.401 -0.3396 -0.3879  0.3676
11353TIP3    H155474   5.918   6.039  12.490 -0.5039 -0.3172  0.4261
11353TIP3    H255475   5.827   5.953  12.405 -1.5407  0.4662  0.7201
11354TIP3   OH255476   0.007   5.251  11.978 -0.1157 -0.5661 -0.1896
11354TIP3    H155477   0.058   5.277  11.903  1.1727  0.2240  0.9193
11354TIP3    H255478   0.063   5.189  12.025 -0.5514 -0.4154  0.5454
11355TIP3   OH255479   4.529   6.169  15.380 -0.5542  0.0517  0.8293
11355TIP3    H155480   4.482   6.117  15.445 -1.2928  0.3824  0.5727
11355TIP3    H255481   4.559   6.106  15.314 -1.4125 -0.0557  0.5357
11356TIP3   OH255482   2.472   1.139   2.278  0.2169  0.3785 -0.0475
11356TIP3    H155483   2.430   1.173   2.199 -1.6561  0.4489  0.9363
11356TIP3    H255484   2.434   1.052   2.290 -0.7386  0.9920  1.6377
11357TIP3   OH255485   6.481   0.885  12.636  0.3885 -0.1600 -0.0239
11357TIP3    H155486   6.486   0.975  12.604 -2.7965  0.2270  0.3163
11357TIP3    H255487   6.515   0.832  12.564  0.7908  1.1770 -0.8554
11358TIP3   OH255488   0.063   2.320  14.681 -0.3943 -0.3881  0.2722
11358TIP3    H155489   0.091   2.350  14.595  1.0657 -2.4561 -0.0265
11358TIP3    H255490  -0.032   2.330  14.681 -0.2744  1.0227 -0.9948
11359TIP3   OH255491   0.133   0.199   0.482 -0.7120  0.3268  0.4029
11359TIP3    H155492   0.229   0.189   0.486 -0.8563 -2.7189 -1.3236
11359TIP3    H255493   0.119   0.260   0.410 -0.0879 -0.1295 -0.1210
11360TIP3   OH255494   4.682   3.364  14.410 -0.0389  0.4409 -0.2039
11360TIP3    H155495   4.589   3.351  14.391 -0.4697  2.0602  0.5734
11360TIP3    H255496   4.710   3.431  14.347  0.5598  0.0822 -0.3263
11361TIP3   OH255497   2.112   3.998  15.301 -0.2007  0.4656 -0.1807
11361TIP3    H155498   2.111   4.020  15.394  2.4559 -1.1258  0.3316
11361TIP3    H255499   2.155   4.073  15.260 -0.1186  0.5640  0.0788
11362TIP3   OH255500   6.336   2.737  11.910 -0.2004 -0.0251  0.0110
11362TIP3    H155501   6.393   2.760  11.836 -0.0984 -0.2949  0.0051
11362TIP3    H255502   6.297   2.821  11.937  0.4492  0.2084  0.2289
11363TIP3   OH255503   2.584   3.162  12.742 -0.1463 -0.3596 -0.6751
11363TIP3    H155504   2.578   3.134  12.651 -0.3846 -1.3392 -0.3699
11363TIP3    H255505   2.662   3.218  12.745 -0.1746 -0.2673 -1.4855
11364TIP3   OH255506   1.769   3.691  11.490 -0.0485  0.2608  0.5752
11364TIP3    H155507   1.728   3.747  11.556 -1.6427  0.4379 -0.5015
11364TIP3    H255508   1.711   3.697  11.414  1.3851 -0.4337 -0.6352
11365TIP3   OH255509   0.830   5.192   1.409  0.1316  0.0754  0.1356
11365TIP3    H155510   0.834   5.169   1.502 -0.6856 -0.3646  0.0686
11365TIP3    H255511   0.742   5.226   1.396 -0.0797 -0.7452 -0.6672
11366TIP3   OH255512   6.537   0.850   1.149 -0.0229  0.7592 -0.5046
11366TIP3    H155513   6.558   0.775   1.203 -1.2618  1.6934  1.3829
11366TIP3    H255514   6.477   0.816   1.082  0.5453 -0.1692 -0.5591
11367TIP3   OH255515   5.891   1.861  14.909 -0.7409  0.2461 -0.0608
11367TIP3    H155516   5.913   1.897  14.823 -2.7044  0.9496 -0.3243
11367TIP3    H255517   5.960   1.893  14.966  0.1594  0.4433 -1.2107
11368TIP3   OH255518   2.487   0.729   0.577  0.3879 -0.1877  0.0740
11368TIP3    H155519   2.512   0.655   0.522  0.1142 -1.6386  1.8067
11368TIP3    H255520   2.419   0.695   0.635  0.0878  1.4895  0.7841
11369TIP3   OH255521   0.773   1.921  12.208  0.4259 -0.0565  0.5987
11369TIP3    H155522   0.818   1.846  12.247  2.0098 -0.6602 -2.0717
11369TIP3    H255523   0.843   1.973  12.168 -1.0209 -0.0879 -2.2468
11370TIP3   OH255524   6.395   5.202   6.125 -0.3967 -0.0243  0.4267
11370TIP3    H155525   6.443   5.214   6.207  0.6816  0.5120 -0.2546
11370TIP3    H255526   6.448   5.247   6.059 -1.7686  0.4602 -0.3984
11371TIP3   OH255527   3.501   2.921   4.465 -0.8471 -0.0485 -0.4677
11371TIP3    H155528   3.584   2.933   4.419 -0.4334  0.2458  0.3315
11371TIP3    H255529   3.520   2.856   4.533 -1.4689 -0.5371 -0.7457
11372TIP3   OH255530   0.994   3.878  12.314  0.1002  0.0807 -0.0040
11372TIP3    H155531   0.985   3.789  12.278  0.9427  0.1029 -0.2721
11372TIP3    H255532   1.005   3.865  12.408 -1.7568  0.0054  0.2416
11373TIP3   OH255533   5.553   0.654  11.872 -0.7734  0.2152  0.1581
11373TIP3    H155534   5.478   0.685  11.924 -0.7508  0.1317  0.2406
11373TIP3    H255535   5.581   0.731  11.823 -1.4558  0.0393 -0.5297
11374TIP3   OH255536   1.447   2.890  14.707  0.1230  0.2395 -0.0757
11374TIP3    H155537   1.392   2.968  14.703 -1.1060 -0.6458 -0.9408
11374TIP3    H255538   1.477   2.877  14.617  0.4730 -0.1764  0.0976
11375TIP3   OH255539   3.124   1.746   4.393 -0.1478 -0.4331 -0.1725
11375TIP3    H155540   3.129   1.796   4.474  0.9794 -1.6133  0.5227
11375TIP3    H255541   3.041   1.773   4.353 -1.5741 -1.0443  2.1780
11376TIP3   OH255542   1.307   4.372   2.812  0.1481  0.4702  0.1050
11376TIP3    H155543   1.334   4.439   2.875  0.0875  1.1357 -0.5523
11376TIP3    H255544   1.232   4.410   2.767  0.3277  0.1100 -0.5199
11377TIP3   OH255545   4.672   5.008  13.966  0.2290 -0.0151 -0.5574
11377TIP3    H155546   4.706   5.093  13.937  0.0846  0.3208  0.2524
11377TIP3    H255547   4.595   4.994  13.911 -1.5441  1.8076  1.3170
11378TIP3   OH255548   6.117   1.523   1.906 -0.0100 -0.1917 -0.1897
11378TIP3    H155549   6.068   1.444   1.882  2.5060 -1.6694 -0.8690
11378TIP3    H255550   6.117   1.523   2.002 -0.5437 -0.6786 -0.1810
11379TIP3   OH255551   3.084   0.932  11.518  0.3742 -0.0285  0.3571
11379TIP3    H155552   3.024   0.988  11.567  0.3148 -2.7110  3.7994
11379TIP3    H255553   3.122   0.989  11.451 -4.5524  2.2872 -0.9424
11380TIP3   OH255554   0.812   1.122  13.504  0.2580  0.1108  0.2632
11380TIP3    H155555   0.787   1.030  13.515 -1.3586  0.5543  0.4544
11380TIP3    H255556   0.761   1.169  13.569  0.2171  1.2785 -0.5853
11381TIP3   OH255557   6.290   4.496  16.066  0.0431 -0.0636 -0.4322
11381TIP3    H155558   6.358   4.557  16.093 -0.0449 -0.3069  0.3598
11381TIP3    H255559   6.337   4.422  16.028  0.1653  0.2969 -0.9991
11382TIP3   OH255560   5.502   3.816  12.927 -0.7534 -0.0169 -0.0629
11382TIP3    H155561   5.586   3.841  12.965 -0.9766 -0.4176  0.7355
11382TIP3    H255562   5.482   3.885  12.865  0.4929 -0.2774 -0.7936
11383TIP3   OH255563   4.494   3.316  11.910  0.1616 -0.1101  0.1338
11383TIP3    H155564   4.399   3.308  11.915  0.0645  1.0638  0.8911
11383TIP3    H255565   4.527   3.235  11.947 -0.5626 -0.2651  0.4650
11384TIP3   OH255566   3.400   6.328   5.939 -0.0246  0.0772 -0.2929
11384TIP3    H155567   3.462   6.332   5.866  0.2444  0.4270 -0.0478
11384TIP3    H255568   3.412   6.411   5.986  0.7064 -0.6680  0.8906
11385TIP3   OH255569   1.591   6.028  13.641 -0.0898  0.0911 -0.3120
11385TIP3    H155570   1.677   6.070  13.639 -0.9569  1.9900  0.1186
11385TIP3    H255571   1.538   6.077  13.578 -0.9260 -0.9020 -0.4135
11386TIP3   OH255572   6.686   4.061   5.729 -0.2608  0.1510  0.1051
11386TIP3    H155573   6.715   4.055   5.637 -0.4541 -0.0360  0.0564
11386TIP3    H255574   6.685   3.971   5.760 -1.7044  0.0554 -0.1745
11387TIP3   OH255575   6.613   1.631   5.912 -0.3027  0.0127 -0.1014
11387TIP3    H155576   6.666   1.558   5.943 -2.0144 -0.6672  1.4205
11387TIP3    H255577   6.660   1.664   5.835  0.4010 -2.8667 -1.0413
11388TIP3   OH255578   3.817   4.973   0.303  0.2734  0.6099 -0.1785
11388TIP3    H155579   3.821   5.059   0.261 -0.5780 -0.5838 -2.9613
11388TIP3    H255580   3.866   4.915   0.244 -0.3517 -1.0801  0.8777
11389TIP3   OH255581   1.065   2.268   2.682 -0.5500  0.0422 -0.2237
11389TIP3    H155582   1.051   2.186   2.730 -1.0056  0.4255  0.3117
11389TIP3    H255583   1.037   2.248   2.592  2.3084 -1.3230 -0.9357
11390TIP3   OH255584   3.214   3.116  12.970 -0.0648 -0.0709  0.0240
11390TIP3    H155585   3.221   3.139  13.062 -1.2775  1.6548 -0.2654
11390TIP3    H255586   3.123   3.132  12.947  0.7378  2.1627 -2.0781
11391TIP3   OH255587   1.235   2.442   2.776 -0.0201  0.5730  0.4527
11391TIP3    H155588   1.167   2.382   2.747 -0.1757  1.1551 -0.4360
11391TIP3    H255589   1.276   2.473   2.695 -0.5636  2.3707  0.8085
11392TIP3   OH255590   2.997   0.696  16.766 -0.1353  0.4997  0.7546
11392TIP3    H155591   3.058   0.632  16.727 -1.0758 -2.4941  3.7274
11392TIP3    H255592   3.054   0.761  16.807  0.8618  1.8356 -2.4424
11393TIP3   OH255593   3.507   3.495   4.690  0.0844  0.0269  0.0539
11393TIP3    H155594   3.478   3.417   4.737 -0.9535 -0.1529 -0.8637
11393TIP3    H255595   3.600   3.503   4.713  0.0200 -1.0404  0.7527
11394TIP3   OH255596   6.761   3.878   4.161  0.4615  0.6442  0.0257
11394TIP3    H155597   6.750   3.847   4.250  1.2051 -1.2564 -0.4992
11394TIP3    H255598   6.846   3.844   4.133 -0.4820 -0.2510 -1.9446
11395TIP3   OH255599   0.454   1.026   3.873  0.3066 -0.4442 -0.1383
11395TIP3    H155600   0.441   1.064   3.787  1.8684  0.0066 -0.2131
11395TIP3    H255601   0.393   0.953   3.877 -0.3002 -0.0275 -1.3343
11396TIP3   OH255602   5.736   0.139   3.791  0.0013 -0.6534 -0.2419
11396TIP3    H155603   5.704   0.113   3.704  2.1302 -0.7485 -1.0703
11396TIP3    H255604   5.739   0.235   3.788 -2.6538 -0.4561  0.8361
11397TIP3   OH255605   0.846   2.403  14.904 -0.6205 -0.2857 -0.2033
11397TIP3    H155606   0.814   2.321  14.941 -0.8230 -0.5904 -1.0427
11397TIP3    H255607   0.791   2.419  14.827  0.7326 -0.4337 -1.2430
11398TIP3   OH255608   4.008   3.952  12.047  0.1534  0.1091 -0.1775
11398TIP3    H155609   4.022   3.937  12.141 -0.7237  0.6001  0.0474
11398TIP3    H255610   3.969   4.039  12.043 -0.8234 -0.3528 -0.9145
11399TIP3   OH255611   0.095   0.755  11.624 -0.1989 -0.3551 -0.4714
11399TIP3    H155612   0.032   0.737  11.554 -0.8965 -1.5127  0.4094
11399TIP3    H255613   0.162   0.808  11.583 -1.8176  1.0627 -1.4301
11400TIP3   OH255614   1.242   3.948  15.077  0.0358  0.3814 -0.2310
11400TIP3    H155615   1.283   3.982  14.998 -0.1480 -1.0595 -0.9653
11400TIP3    H255616   1.172   4.011  15.096  0.8592  1.4081 -0.4731
11401TIP3   OH255617   0.122   5.857  16.276 -0.0366 -0.8283  0.5819
11401TIP3    H155618   0.049   5.795  16.281 -0.5647 -0.4291 -1.4097
11401TIP3    H255619   0.098   5.917  16.206  1.5121  0.2799  0.9481
11402TIP3   OH255620   3.297   5.323  12.820  0.4152 -0.2405 -0.2126
11402TIP3    H155621   3.206   5.345  12.841  1.0833  2.0695  0.6293
11402TIP3    H255622   3.327   5.395  12.764  2.0852 -0.2011  0.6479
11403TIP3   OH255623   4.108   0.476   6.589  0.2613  0.2445 -0.3137
11403TIP3    H155624   4.079   0.389   6.615 -0.3824  0.9989  1.6570
11403TIP3    H255625   4.043   0.536   6.626  1.5716  1.6684 -0.1976
11404TIP3   OH255626   1.404   5.326   6.083  0.6089 -0.3528  0.1443
11404TIP3    H155627   1.417   5.382   6.160  1.4710 -1.1292  0.5831
11404TIP3    H255628   1.319   5.285   6.097  0.6439 -0.2904  0.5476
11405TIP3   OH255629   4.096   3.620   1.449  0.2530 -0.0656  0.4487
11405TIP3    H155630   4.112   3.555   1.380  0.4736 -0.2182  0.6429
11405TIP3    H255631   4.029   3.677   1.412  2.0125  1.2701 -0.8438
11406TIP3   OH255632   6.427   4.108   3.690  0.3601  0.3610  0.5060
11406TIP3    H155633   6.420   4.110   3.595  0.3642 -2.2137  0.3723
11406TIP3    H255634   6.485   4.033   3.708 -1.7309 -0.8884  2.5666
11407TIP3   OH255635   3.100   1.037   1.540  0.5470  0.2751  0.6050
11407TIP3    H155636   3.105   0.977   1.465  2.1436 -0.4962  1.2995
11407TIP3    H255637   3.038   1.104   1.512 -0.3326 -1.0040 -0.6855
11408TIP3   OH255638   2.750   0.614   5.278  0.1825  0.4350 -0.7939
11408TIP3    H155639   2.817   0.583   5.218  1.6682  2.0746 -0.0938
11408TIP3    H255640   2.799   0.650   5.352 -1.5421 -0.0604  0.6728
11409TIP3   OH255641   0.213   3.898   5.637  0.3622 -0.8270 -0.3832
11409TIP3    H155642   0.159   3.820   5.634 -0.2355 -0.4009 -0.8923
11409TIP3    H255643   0.277   3.886   5.567  0.8982 -1.3007  0.1759
11410TIP3   OH255644   1.959   3.208   5.333 -0.0811  0.1721 -0.3936
11410TIP3    H155645   1.949   3.158   5.252  1.8937  0.3220 -0.7856
11410TIP3    H255646   1.913   3.156   5.399  0.3964 -1.2392 -1.1364
11411TIP3   OH255647   0.808   6.110   2.861 -0.1572 -0.2973  0.0445
11411TIP3    H155648   0.746   6.077   2.926  0.4129 -2.0492 -0.2708
11411TIP3    H255649   0.886   6.133   2.911 -0.0686 -0.7186  0.1012
11412TIP3   OH255650   0.170   6.359  14.743 -0.1488  0.0837  0.4289
11412TIP3    H155651   0.074   6.352  14.744 -0.1171 -0.9598 -0.7813
11412TIP3    H255652   0.200   6.290  14.802 -0.1336 -1.0855 -0.8788
11413TIP3   OH255653   4.775   0.105  15.006  0.3481 -0.0023  0.2399
11413TIP3    H155654   4.696   0.128  14.958  0.2797  1.5504  1.0441
11413TIP3    H255655   4.846   0.144  14.956  0.5693 -0.8528 -0.1336
11414TIP3   OH255656   3.740   3.399   2.800  0.5612  0.3082  0.2464
11414TIP3    H155657   3.725   3.306   2.816  0.5297  0.2269 -0.2386
11414TIP3    H255658   3.675   3.444   2.854 -1.0828 -0.0120 -1.3560
11415TIP3   OH255659   2.151   2.760  14.804 -0.5593  0.3027 -0.5798
11415TIP3    H155660   2.095   2.806  14.867 -2.0617 -1.8112 -0.2580
11415TIP3    H255661   2.110   2.776  14.719  0.1330  1.2303 -0.7590
11416TIP3   OH255662   5.700   3.091  16.119  0.0115 -0.1822  0.6283
11416TIP3    H155663   5.715   2.997  16.110  0.6892 -0.0233  0.0408
11416TIP3    H255664   5.614   3.105  16.081  0.2715 -0.4430 -0.0746
11417TIP3   OH255665   4.487   2.378  15.627 -0.2965  0.3946  0.7763
11417TIP3    H155666   4.419   2.374  15.560 -0.2008  0.1870  0.6928
11417TIP3    H255667   4.567   2.398  15.579  0.7233 -4.1983  0.1372
11418TIP3   OH255668   0.070   0.667  15.611 -0.4327 -0.3447  0.1535
11418TIP3    H155669   0.140   0.609  15.641  1.9694  2.3570  0.3555
11418TIP3    H255670   0.021   0.688  15.690  0.3584 -0.0786  0.5922
11419TIP3   OH255671   4.874   6.535  17.106 -0.4248  0.0790 -0.0314
11419TIP3    H155672   4.873   6.466  17.039 -2.1196 -3.1215  2.9686
11419TIP3    H255673   4.796   6.587  17.086 -0.7242 -0.6169 -0.7832
11420TIP3   OH255674   5.899   4.548  16.683  0.1746  0.3212 -0.2387
11420TIP3    H155675   5.971   4.498  16.645  1.1552  0.7826  0.9450
11420TIP3    H255676   5.929   4.639  16.679  0.1060  0.4276  1.1451
11421TIP3   OH255677   3.349   4.467   2.308 -0.7265  0.4671  0.0949
11421TIP3    H155678   3.361   4.435   2.397  0.0503  0.5894  0.0409
11421TIP3    H255679   3.274   4.418   2.275 -2.1421  1.6634  1.3965
11422TIP3   OH255680   5.772   3.395   4.144 -0.7203 -0.3168  0.0188
11422TIP3    H155681   5.697   3.446   4.113 -1.0936 -1.0600 -0.3331
11422TIP3    H255682   5.849   3.446   4.119 -1.0882  0.1178 -0.2340
11423TIP3   OH255683   3.659   5.935  13.365  0.1196  0.7365  0.3161
11423TIP3    H155684   3.669   5.850  13.409 -0.3706  0.6449  0.2590
11423TIP3    H255685   3.660   5.913  13.271  0.6441  0.8721  0.2855
11424TIP3   OH255686   4.633   4.319  12.434  0.1654  0.2938 -0.5290
11424TIP3    H155687   4.586   4.250  12.388 -0.6724 -0.0965  0.8310
11424TIP3    H255688   4.688   4.273  12.497 -1.2370  0.8200  1.1734
11425TIP3   OH255689   1.339   0.004   2.493  0.4878  0.1508  0.2694
11425TIP3    H155690   1.381   0.035   2.413  0.3368  0.4460  0.3010
11425TIP3    H255691   1.246  -0.005   2.469  0.5708 -0.5434  0.1838
11426TIP3   OH255692   3.525   1.014  11.342  0.5102  0.2050  0.3988
11426TIP3    H155693   3.608   1.032  11.299  0.2693 -0.5187 -0.4008
11426TIP3    H255694   3.523   0.919  11.350 -0.6521  0.1338 -0.4742
11427TIP3   OH255695   1.376   0.575   6.494 -0.0795 -0.0900  0.0342
11427TIP3    H155696   1.452   0.622   6.461 -0.7946  1.6351  0.7292
11427TIP3    H255697   1.398   0.482   6.483  0.5363  0.3333 -3.3277
11428TIP3   OH255698   5.511   0.786  17.357  0.2720  0.1622  0.2230
11428TIP3    H155699   5.480   0.705  17.397  0.4006 -1.8611 -3.3544
11428TIP3    H255700   5.443   0.851  17.377 -0.6671 -1.2157  1.7835
11429TIP3   OH255701   2.343   2.354   1.596  0.2047 -0.3749  0.4028
11429TIP3    H155702   2.323   2.287   1.531  1.8278 -1.5858  1.0875
11429TIP3    H255703   2.410   2.315   1.651  1.8023  2.0692  0.3562
11430TIP3   OH255704   2.246   1.866  13.448 -0.1270  0.3204  0.0713
11430TIP3    H155705   2.272   1.806  13.378  2.3963 -1.0461  2.0025
11430TIP3    H255706   2.183   1.817  13.501 -0.0478  0.3575  0.2018
11431TIP3   OH255707   6.111   6.419  12.315  0.6518  0.2976 -0.4575
11431TIP3    H155708   6.112   6.324  12.324 -0.0184  0.1086 -1.9185
11431TIP3    H255709   6.174   6.451  12.379  1.2772 -1.1634 -0.3146
11432TIP3   OH255710   3.629   5.375   5.540 -0.2306  0.1890 -0.0192
11432TIP3    H155711   3.546   5.419   5.520 -0.4440 -0.0002  0.4398
11432TIP3    H255712   3.604   5.303   5.598  0.2788  0.2442  0.2655
11433TIP3   OH255713   5.635   5.568   2.777 -0.3119  0.2428 -0.2367
11433TIP3    H155714   5.669   5.657   2.773  1.7244 -0.5079 -0.7855
11433TIP3    H255715   5.686   5.526   2.846 -3.2825  0.2261  2.1757
11434TIP3   OH255716   4.037   0.176  13.626 -0.2492 -0.1562  0.1022
11434TIP3    H155717   3.947   0.208  13.624 -0.6895 -1.3617 -1.1819
11434TIP3    H255718   4.044   0.128  13.708 -0.0120  1.8783  1.3510
11435TIP3   OH255719   2.838   4.912   0.821 -0.2055  0.1830 -0.1886
11435TIP3    H155720   2.849   4.817   0.815 -0.3803 -0.0039  1.7391
11435TIP3    H255721   2.913   4.941   0.874 -0.6014  0.9938 -0.0619
11436TIP3   OH255722   3.864   0.004   4.475  0.1595 -0.7150  0.3069
11436TIP3    H155723   3.847  -0.051   4.399 -1.3331  1.3540 -0.9804
11436TIP3    H255724   3.790  -0.013   4.534 -0.8466  0.4897 -0.5264
11437TIP3   OH255725   5.468   1.990  11.392  0.2149 -0.6271 -0.6129
11437TIP3    H155726   5.558   1.958  11.393  0.4351 -0.0266  0.3777
11437TIP3    H255727   5.460   2.043  11.472 -1.1105 -0.9490 -0.4957
11438TIP3   OH255728   6.000   0.410   4.074 -0.2750 -0.5503 -0.3351
11438TIP3    H155729   5.961   0.413   4.162 -0.6051 -1.1219 -0.4534
11438TIP3    H255730   5.993   0.318   4.049  3.6862 -1.2970  0.7347
11439TIP3   OH255731   2.919   1.947  12.983 -0.2639  1.1238 -0.0977
11439TIP3    H155732   2.955   1.862  13.011 -3.1307  0.3508  1.6289
11439TIP3    H255733   2.970   2.012  13.031  2.0850  0.5022 -1.5631
11440TIP3   OH255734   2.080   5.918  13.024 -0.5182 -0.1913 -0.0364
11440TIP3    H155735   2.026   5.844  13.051  0.9416 -0.7669  1.4105
11440TIP3    H255736   2.170   5.887  13.031  0.0851  1.3157 -0.6454
11441TIP3   OH255737   1.983   1.458   1.978  0.2507  0.1708 -0.1308
11441TIP3    H155738   1.911   1.427   2.034  0.1720  1.4786  0.5508
11441TIP3    H255739   1.943   1.470   1.892 -0.0167 -0.3709 -0.0876
11442TIP3   OH255740   4.026   6.555   2.340 -0.0345 -0.0006 -0.2750
11442TIP3    H155741   4.027   6.463   2.315  1.2407 -0.1225  0.1570
11442TIP3    H255742   3.984   6.557   2.426  1.1765 -0.3655  0.3406
11443TIP3   OH255743   5.546   3.620  15.872  0.1393 -0.1966 -0.1439
11443TIP3    H155744   5.489   3.694  15.892  0.5479 -0.5648  2.8783
11443TIP3    H255745   5.558   3.624  15.777 -2.9471  1.2720 -0.5940
11444TIP3   OH255746   6.157   1.032   2.756 -0.3321 -0.3207  0.5366
11444TIP3    H155747   6.223   1.102   2.754  1.7821 -2.2022 -0.0862
11444TIP3    H255748   6.162   0.997   2.845 -1.0939  0.0392  0.7272
11445TIP3   OH255749   6.758   0.199  14.522 -0.5821  0.5108 -0.0224
11445TIP3    H155750   6.711   0.124  14.485 -0.4515 -0.2175  1.2161
11445TIP3    H255751   6.851   0.175  14.513 -0.4817  1.2549 -1.0720
11446TIP3   OH255752   6.467   5.455   3.028 -0.4756  0.3087 -0.6890
11446TIP3    H155753   6.420   5.458   2.944 -0.4757  0.8880 -0.6699
11446TIP3    H255754   6.425   5.522   3.082 -1.3932 -1.0005  0.2650
11447TIP3   OH255755   6.400   4.496  11.058 -0.4691  0.2116  0.3075
11447TIP3    H155756   6.316   4.540  11.067 -0.0879  0.6778  1.8498
11447TIP3    H255757   6.386   4.407  11.090  0.0164  0.8126  2.3214
11448TIP3   OH255758   2.898   4.959   3.240  0.4278  0.2199  0.0218
11448TIP3    H155759   2.809   4.930   3.219  0.2397  1.0628 -0.3851
11448TIP3    H255760   2.916   5.027   3.175  1.0398  0.6635  0.6533
11449TIP3   OH255761   5.312   0.577  16.525  0.0025  0.0771 -0.0581
11449TIP3    H155762   5.259   0.505  16.557  0.0939 -0.6064 -1.3591
11449TIP3    H255763   5.396   0.537  16.502 -0.1408  0.4567 -1.3520
11450TIP3   OH255764   2.056   1.549  15.033 -0.5734  0.0339  0.1613
11450TIP3    H155765   2.005   1.625  15.007 -1.8523 -0.4945  1.0140
11450TIP3    H255766   2.142   1.585  15.058 -1.1191  1.1762  0.4560
11451TIP3   OH255767   2.952   0.102  17.287 -0.2616 -0.0519  0.0799
11451TIP3    H155768   3.021   0.076  17.225 -1.6578  0.3136 -1.6906
11451TIP3    H255769   2.873   0.059  17.254 -0.7372 -1.3265  2.6833
11452TIP3   OH255770   5.281   2.987  16.240  0.5466 -0.2655 -0.4728
11452TIP3    H155771   5.201   3.033  16.215 -0.0898 -0.6163  0.8173
11452TIP3    H255772   5.266   2.896  16.216  0.0284 -0.5594  0.8516
11453TIP3   OH255773   0.300   2.355   2.767 -0.1146  0.1119 -0.2541
11453TIP3    H155774   0.291   2.320   2.679 -0.3778 -0.0050 -0.1829
11453TIP3    H255775   0.262   2.443   2.762 -1.3885 -0.4020  0.0593
11454TIP3   OH255776   2.366   6.384   5.700  0.2226 -0.4395 -0.1654
11454TIP3    H155777   2.327   6.464   5.737  0.4548  0.4154 -1.6722
11454TIP3    H255778   2.450   6.375   5.744  0.1423  0.0999  0.1014
11455TIP3   OH255779   3.205   0.866  16.902 -0.6530  0.1298 -0.9127
11455TIP3    H155780   3.130   0.876  16.961  0.3467 -0.7380  0.5574
11455TIP3    H255781   3.240   0.955  16.894 -0.3246  0.1484  0.4793
11456TIP3   OH255782   3.294   1.120  14.936 -0.3290 -0.5018 -0.3924
11456TIP3    H155783   3.362   1.129  14.870 -0.5242 -0.4991 -0.5962
11456TIP3    H255784   3.302   1.199  14.990 -0.2137 -0.4706 -0.4542
11457TIP3   OH255785   4.193   2.738  11.304 -0.3768 -0.2163  0.1541
11457TIP3    H155786   4.217   2.773  11.218  1.7099  1.1054  1.1800
11457TIP3    H255787   4.174   2.815  11.357  2.0818 -0.6359  1.8463
11458TIP3   OH255788   0.442   6.081  12.688 -0.1143  0.3307 -0.2702
11458TIP3    H155789   0.366   6.035  12.721 -0.9706  0.4891 -1.8892
11458TIP3    H255790   0.478   6.023  12.620  2.3100 -0.5622  1.6143
11459TIP3   OH255791   1.818   6.434  16.919  0.0126  0.0448  0.5890
11459TIP3    H155792   1.873   6.372  16.872 -0.7532 -0.4522  0.3187
11459TIP3    H255793   1.745   6.381  16.951 -0.6870  0.8207  0.3059
11460TIP3   OH255794   4.324   4.482  12.213 -0.3249  0.3146 -0.5235
11460TIP3    H155795   4.289   4.570  12.200 -0.2810  0.2190 -1.3320
11460TIP3    H255796   4.411   4.485  12.173  0.0606  0.1648  0.2826
11461TIP3   OH255797   0.993   4.502  10.848 -0.4582 -0.1587  0.4091
11461TIP3    H155798   1.028   4.584  10.884 -0.4758 -0.4011  0.9896
11461TIP3    H255799   1.046   4.433  10.888  1.6353 -0.3519 -2.3985
11462TIP3   OH255800   0.415   5.072   2.047 -0.7731 -0.0080  0.7997
11462TIP3    H155801   0.446   5.150   2.002 -2.0653  0.8921  1.4119
11462TIP3    H255802   0.411   5.005   1.979  2.1859 -0.1406  0.6237
11463TIP3   OH255803   3.087   1.148  17.309  0.4105 -0.4813  0.5711
11463TIP3    H155804   3.174   1.185  17.294 -0.5747  0.9387 -2.2520
11463TIP3    H255805   3.099   1.053  17.299  1.3141 -0.1669 -2.0884
11464TIP3   OH255806   6.568   1.674   3.531 -0.1486 -0.0343 -0.4972
11464TIP3    H155807   6.522   1.647   3.610  2.1602  0.5460  1.1734
11464TIP3    H255808   6.607   1.593   3.497 -0.1158 -0.0941 -0.3171
11465TIP3   OH255809   5.885   2.133  15.210  0.3074 -0.0234  0.5116
11465TIP3    H155810   5.800   2.168  15.237 -0.3177 -0.6482 -0.5946
11465TIP3    H255811   5.900   2.172  15.124  0.9851 -0.1978  0.5479
11466TIP3   OH255812   1.868   5.542  16.795  0.1677  0.1668  0.2320
11466TIP3    H155813   1.917   5.519  16.874 -0.0585 -0.0803  0.3005
11466TIP3    H255814   1.845   5.634  16.808 -0.2439  0.0054  0.6519
11467TIP3   OH255815   2.694   5.643  15.695 -0.6734 -0.3380 -0.8287
11467TIP3    H155816   2.652   5.724  15.667 -0.5065  0.4082  0.9363
11467TIP3    H255817   2.787   5.665  15.698 -0.8285  0.4443  2.4955
11468TIP3   OH255818   5.822   6.094  11.231 -0.5690  0.5877 -1.0253
11468TIP3    H155819   5.790   6.146  11.158 -0.1852  0.8275 -1.0206
11468TIP3    H255820   5.781   6.008  11.218  0.0527  0.4179 -1.9136
11469TIP3   OH255821   4.462   6.448  14.328  0.2710 -0.2720 -0.4066
11469TIP3    H155822   4.494   6.396  14.402  0.9789  0.1433 -0.4098
11469TIP3    H255823   4.408   6.516  14.369  0.3744 -0.2546 -0.2971
11470TIP3   OH255824   1.625   2.119  11.729  0.4469  0.1748  0.4958
11470TIP3    H155825   1.633   2.057  11.656 -1.5860  1.2070 -0.7230
11470TIP3    H255826   1.668   2.199  11.697 -0.2362  0.5543  0.4966
11471TIP3   OH255827   2.007   5.893  13.683 -0.8338  0.4895  0.0397
11471TIP3    H155828   2.085   5.887  13.628 -0.9818  1.4884 -0.2981
11471TIP3    H255829   1.990   5.803  13.711 -0.3729  0.0640 -1.0145
11472TIP3   OH255830   0.102   6.315   5.743  0.3009  0.2067 -0.0701
11472TIP3    H155831   0.048   6.242   5.712  0.4912 -0.4046  0.9883
11472TIP3    H255832   0.085   6.319   5.837  2.6558 -0.5041  0.4493
11473TIP3   OH255833   1.585   5.027  12.359 -0.6907 -0.6466  0.0842
11473TIP3    H155834   1.499   5.002  12.324 -1.0706 -1.7759  1.6700
11473TIP3    H255835   1.564   5.089  12.430  0.0868  2.1478 -1.9317
11474TIP3   OH255836   3.640   1.414   0.314  0.8040  0.0767  0.8754
11474TIP3    H155837   3.596   1.329   0.307 -0.0805  0.6601 -1.9410
11474TIP3    H255838   3.621   1.443   0.403  0.4157 -2.2607  1.6498
11475TIP3   OH255839   2.678   2.044  11.216 -0.1479  0.2005  0.1182
11475TIP3    H155840   2.722   2.127  11.234  0.6037 -0.3600  0.9221
11475TIP3    H255841   2.607   2.068  11.157 -1.0325  1.7089  1.6705
11476TIP3   OH255842   5.908   0.625   2.534  0.2985 -0.1970  0.0786
11476TIP3    H155843   5.848   0.700   2.530 -1.6999 -1.7354 -0.5263
11476TIP3    H255844   5.853   0.552   2.562  2.1564 -1.4976  0.5395
11477TIP3   OH255845   5.364   6.037  14.127 -0.1118 -0.0014 -0.1032
11477TIP3    H155846   5.449   6.074  14.148  0.9393 -2.2179 -0.1593
11477TIP3    H255847   5.366   5.949  14.165 -3.5080  0.8431  2.5104
11478TIP3   OH255848   4.345   1.478   5.499  0.4461  0.5371 -0.5248
11478TIP3    H155849   4.302   1.558   5.528  0.7121  0.7506 -0.7122
11478TIP3    H255850   4.274   1.416   5.486  0.3093  0.4214  0.6147
11479TIP3   OH255851   5.267   3.031   3.478 -0.5341  0.2373 -0.0021
11479TIP3    H155852   5.200   2.985   3.529 -0.9304  1.7695  0.9148
11479TIP3    H255853   5.338   3.045   3.540  0.9066 -1.7857 -1.0881
11480TIP3   OH255854   2.811   1.433  12.655  0.1000 -0.2850 -0.0453
11480TIP3    H155855   2.852   1.355  12.617  0.5202  1.1807 -2.8827
11480TIP3    H255856   2.726   1.403  12.686 -0.6214 -1.5309 -2.9398
11481TIP3   OH255857   3.167   5.053   3.505 -0.1347 -0.4683  0.4954
11481TIP3    H155858   3.219   5.129   3.477 -0.8503 -0.0006  0.4318
11481TIP3    H255859   3.206   5.028   3.589  0.2334 -0.1520  0.4234
11482TIP3   OH255860   3.293   3.420   5.085 -0.2892 -0.3573  0.5116
11482TIP3    H155861   3.326   3.505   5.057 -1.7567  0.1459  0.2510
11482TIP3    H255862   3.332   3.407   5.172 -0.7983  1.0280  0.9725
11483TIP3   OH255863   3.633   3.724   3.069 -0.0702 -0.0389 -0.7889
11483TIP3    H155864   3.557   3.683   3.029 -0.7763  0.5513 -0.0926
11483TIP3    H255865   3.669   3.780   3.000  0.5661 -1.3407 -1.5571
11484TIP3   OH255866   6.260   4.780   4.530  0.4354  0.1169 -0.2759
11484TIP3    H155867   6.319   4.748   4.599 -0.6299 -1.4811 -0.0771
11484TIP3    H255868   6.293   4.739   4.450 -0.4374 -0.8393 -0.1520
11485TIP3   OH255869   2.178   6.473  13.651 -0.8507 -0.4323  0.0590
11485TIP3    H155870   2.084   6.483  13.667 -0.5688 -0.1347  1.7419
11485TIP3    H255871   2.219   6.525  13.719  0.5560  0.2835 -1.2972
11486TIP3   OH255872   3.060   1.424   5.130 -0.3922 -0.2475 -0.0081
11486TIP3    H155873   3.000   1.401   5.059 -0.8534  0.8162  0.0079
11486TIP3    H255874   3.008   1.480   5.188 -0.0272 -1.1190  1.1915
11487TIP3   OH255875   1.643   2.134  15.201 -0.2005 -0.0195 -0.0084
11487TIP3    H155876   1.724   2.158  15.245 -0.0492 -1.7404  0.7223
11487TIP3    H255877   1.671   2.094  15.119 -0.3171 -0.1184 -0.0014
11488TIP3   OH255878   6.270   0.629   2.700 -0.3482  0.0060 -0.4232
11488TIP3    H155879   6.209   0.568   2.742  1.8546 -3.1724 -1.5393
11488TIP3    H255880   6.349   0.624   2.753  1.0181 -0.7765 -2.4378
11489TIP3   OH255881   5.811   2.105   3.229 -0.0792 -0.8644 -0.6658
11489TIP3    H155882   5.832   2.194   3.256 -0.6711 -0.8132 -0.3674
11489TIP3    H255883   5.724   2.088   3.266 -0.3928 -1.2137 -1.5439
11490TIP3   OH255884   6.177   3.316   3.166  0.1566 -0.0128  0.1424
11490TIP3    H155885   6.126   3.395   3.147 -1.8176 -1.4407 -0.7505
11490TIP3    H255886   6.247   3.316   3.100  0.0117  0.8284 -0.0183
11491TIP3   OH255887   6.553   0.605   1.279 -0.1441  0.4423  0.0649
11491TIP3    H155888   6.611   0.552   1.335 -0.3798  1.6806  1.5441
11491TIP3    H255889   6.465   0.587   1.312 -0.3978  0.3708 -0.6333
11492TIP3   OH255890   2.014   4.554   3.937  0.3440 -0.0021 -0.3846
11492TIP3    H155891   2.050   4.637   3.968 -0.6891  1.5117 -2.9363
11492TIP3    H255892   2.088   4.508   3.897  0.8548 -0.2311  0.7801
11493TIP3   OH255893   5.823   6.013   4.921  0.1792  0.2800 -0.3111
11493TIP3    H155894   5.902   6.038   4.873 -0.7045  0.3467 -1.7995
11493TIP3    H255895   5.818   5.918   4.911 -1.0461  0.4871 -2.1105
11494TIP3   OH255896   3.775   4.587  12.246 -0.2445 -0.2002  0.1825
11494TIP3    H155897   3.781   4.492  12.240 -0.1003 -0.2997  1.5248
11494TIP3    H255898   3.732   4.613  12.165 -0.6025 -1.4452 -0.0561
11495TIP3   OH255899   5.678   3.399   3.251 -0.1184 -0.6233 -0.5651
11495TIP3    H155900   5.665   3.411   3.345  3.2520 -1.5378  0.1240
11495TIP3    H255901   5.661   3.486   3.214  0.0112  0.1435  1.0883
11496TIP3   OH255902   2.033   3.032   4.486  0.1873 -0.1305 -0.0070
11496TIP3    H155903   2.111   3.043   4.541  0.9462 -0.1088 -1.0434
11496TIP3    H255904   2.004   3.121   4.468  1.2377 -0.0202 -1.3780
11497TIP3   OH255905   0.739   3.044  11.243  0.3238  0.0351  0.1366
11497TIP3    H155906   0.764   3.136  11.243 -0.3442  0.2438  1.6581
11497TIP3    H255907   0.807   3.000  11.293  0.7878 -0.3667 -0.8183
11498TIP3   OH255908   6.004   0.471   5.598  0.1368  0.3610  0.6965
11498TIP3    H155909   5.937   0.420   5.643  2.0931 -1.5077  1.6198
11498TIP3    H255910   6.084   0.419   5.605  1.5525  2.1287 -1.0531
11499TIP3   OH255911   1.852   4.169   4.682 -0.1057 -0.2769 -0.3903
11499TIP3    H155912   1.853   4.091   4.626  0.4821  0.4253 -1.3788
11499TIP3    H255913   1.944   4.190   4.697 -0.2375 -0.6250  1.1315
11500TIP3   OH255914   5.219   4.466   5.876 -0.1676 -0.4299  0.0765
11500TIP3    H155915   5.203   4.531   5.945 -2.2898  1.7069 -2.2235
11500TIP3    H255916   5.148   4.402   5.886 -0.3836 -0.2084 -0.0507
11501TIP3   OH255917   3.600   1.554  16.732 -0.2817 -0.0969 -0.1911
11501TIP3    H155918   3.655   1.480  16.759 -0.3694  0.6581  2.2121
11501TIP3    H255919   3.617   1.622  16.797 -0.8185  1.7437 -1.8869
11502TIP3   OH255920   0.889   4.203  15.720  0.2768 -0.0792  0.3617
11502TIP3    H155921   0.894   4.210  15.624 -0.0940 -1.7755  0.1865
11502TIP3    H255922   0.849   4.285  15.748 -2.0710 -0.5873 -1.2018
11503TIP3   OH255923   0.674   1.575   2.277 -0.4865  0.0632  0.3309
11503TIP3    H155924   0.721   1.498   2.244 -2.0996 -0.4238 -0.9576
11503TIP3    H255925   0.628   1.610   2.200  0.2115  2.3615  0.8710
11504TIP3   OH255926   3.693   0.214  11.581  0.2127 -0.5200  0.2400
11504TIP3    H155927   3.773   0.239  11.535  0.4718  1.5521  1.6605
11504TIP3    H255928   3.622   0.248  11.527  0.3252 -1.3604 -0.4510
11505TIP3   OH255929   0.140   5.868   3.253  0.1234  0.2555 -0.2603
11505TIP3    H155930   0.098   5.925   3.189  0.7725  0.6870 -0.3082
11505TIP3    H255931   0.146   5.921   3.332  0.5158  0.1693 -0.2322
11506TIP3   OH255932   2.496   0.187  14.479 -0.2977 -0.7712 -0.2496
11506TIP3    H155933   2.429   0.152  14.537 -0.5770 -0.2666 -0.2572
11506TIP3    H255934   2.463   0.169  14.390 -2.1688  2.4171 -0.3885
11507TIP3   OH255935   2.118   5.888   5.000 -0.3349 -0.8896  0.2693
11507TIP3    H155936   2.042   5.900   5.057 -0.1012 -1.4887  0.7151
11507TIP3    H255937   2.089   5.827   4.933  0.6920 -3.8759  2.3529
11508TIP3   OH255938   4.255   2.119   1.984 -0.8743 -0.3375 -0.6816
11508TIP3    H155939   4.316   2.131   1.911  0.4637 -1.8448  0.1355
11508TIP3    H255940   4.221   2.207   2.001  0.7491  0.4884 -1.4595
11509TIP3   OH255941   0.179   3.726   2.979 -0.3905 -0.3223 -0.1611
11509TIP3    H155942   0.251   3.788   2.990 -1.2434  0.8016 -0.7644
11509TIP3    H255943   0.198   3.680   2.897 -0.1071 -0.3930 -0.0562
11510TIP3   OH255944   2.999   3.356   1.613 -0.3465  0.8117 -0.0592
11510TIP3    H155945   3.074   3.378   1.559  0.4847  0.6340  0.9975
11510TIP3    H255946   2.967   3.440   1.646  0.3796  0.7653  0.7765
11511TIP3   OH255947   4.275   3.128  10.716 -0.0968  0.5354 -0.1207
11511TIP3    H155948   4.199   3.117  10.773 -0.0415 -0.2428 -0.1770
11511TIP3    H255949   4.237   3.142  10.629 -0.1924 -0.0761 -0.1882
11512TIP3   OH255950   2.531   1.984   0.474 -0.1445  0.4586 -0.2003
11512TIP3    H155951   2.453   1.946   0.433 -0.6079  0.8833  0.2714
11512TIP3    H255952   2.603   1.928   0.445 -0.8676 -1.0983  0.8998
11513TIP3   OH255953   1.359   4.124  11.626  0.3241 -0.3055  0.1100
11513TIP3    H155954   1.326   4.092  11.710  2.3214  0.3107  1.1950
11513TIP3    H255955   1.381   4.045  11.577 -2.4688 -0.7496 -0.6371
11514TIP3   OH255956   2.904   3.417   2.067  0.1431 -0.6402 -0.4610
11514TIP3    H155957   2.886   3.392   2.158  1.1370  0.2032 -0.0130
11514TIP3    H255958   2.966   3.351   2.036  0.8723 -0.1516 -0.0682
11515TIP3   OH255959   5.272   3.734   3.516 -0.8297  0.0421 -0.4065
11515TIP3    H155960   5.339   3.798   3.493 -0.0115 -0.6801 -0.0780
11515TIP3    H255961   5.231   3.711   3.432  0.7780 -1.0869 -0.9258
11516TIP3   OH255962   4.110   5.786  14.718 -0.2341 -0.0655 -0.0243
11516TIP3    H155963   4.083   5.806  14.807  1.3298 -1.7478  0.9140
11516TIP3    H255964   4.188   5.839  14.703  0.2292 -0.6983  0.0968
11517TIP3   OH255965   6.619   2.129  13.212 -0.3239  0.3597  0.1954
11517TIP3    H155966   6.532   2.165  13.228 -0.1313  0.5838  0.7738
11517TIP3    H255967   6.610   2.035  13.232 -0.8602  0.0262 -1.4493
11518TIP3   OH255968   1.024   3.063  12.817 -0.6846 -0.0660 -0.7088
11518TIP3    H155969   1.077   3.021  12.749 -2.5814 -1.5516 -1.3536
11518TIP3    H255970   1.011   2.995  12.882 -3.3759 -0.4214 -1.5118
11519TIP3   OH255971   2.666   3.739  14.816  0.7749  0.4457  0.5150
11519TIP3    H155972   2.653   3.831  14.793 -0.4005  0.2281  0.2308
11519TIP3    H255973   2.584   3.713  14.858  0.1635 -1.0944 -1.4700
11520TIP3   OH255974   5.678   1.011  16.472  0.3652  0.0175 -0.2431
11520TIP3    H155975   5.634   0.941  16.520 -2.1525  0.8308 -1.1890
11520TIP3    H255976   5.759   1.027  16.521 -1.1004 -0.5457  2.5619
11521TIP3   OH255977   3.517   5.762  15.956  0.1192  0.0625  0.5195
11521TIP3    H155978   3.446   5.804  15.908  0.9354 -0.4615 -1.2421
11521TIP3    H255979   3.516   5.671  15.926  1.3146 -0.0253  0.6933
11522TIP3   OH255980   6.400   0.156   6.447 -0.6609 -0.2338  0.1385
11522TIP3    H155981   6.430   0.229   6.501  1.4195 -0.7769 -0.1898
11522TIP3    H255982   6.445   0.079   6.482 -1.7476 -1.1374 -0.3832
11523TIP3   OH255983   5.690   2.902  12.870  0.9850  0.3275  0.3413
11523TIP3    H155984   5.622   2.935  12.928  0.2603 -0.3246 -0.1115
11523TIP3    H255985   5.675   2.807  12.867  1.3662  0.2809 -0.4435
11524TIP3   OH255986   5.038   2.614  15.378  0.2030  0.1912  0.3182
11524TIP3    H155987   5.076   2.658  15.302  0.3505  0.4174  0.5181
11524TIP3    H255988   5.065   2.669  15.452  1.3238 -0.8229  0.6945
11525TIP3   OH255989   0.900   3.206  11.808  0.0084  0.5120  0.7635
11525TIP3    H155990   0.939   3.190  11.894 -0.8298  0.0735  1.0770
11525TIP3    H255991   0.875   3.299  11.811  0.7573  0.7218  0.6640
11526TIP3   OH255992   5.800   4.552   4.005  0.1254  0.3694 -0.2171
11526TIP3    H155993   5.836   4.560   4.093  0.1474 -0.1593 -0.1756
11526TIP3    H255994   5.877   4.538   3.949  0.0927  0.4764 -0.2877
11527TIP3   OH255995   0.773   1.333  13.976  0.0907  0.1091  0.3426
11527TIP3    H155996   0.804   1.401  14.035  0.0456  0.8397 -0.4537
11527TIP3    H255997   0.702   1.290  14.023  0.1092  0.6183  0.8460
11528TIP3   OH255998   3.560   1.832   0.564  0.4748  0.2024 -0.5466
11528TIP3    H155999   3.532   1.914   0.604 -1.9354 -0.9739  0.3824
11528TIP3    H256000   3.547   1.767   0.633 -0.5582 -1.3895 -2.1652
11529TIP3   OH256001   5.579   1.335   1.011  0.0771 -0.0144 -0.4492
11529TIP3    H156002   5.542   1.250   0.987 -0.1522 -0.3702  1.0615
11529TIP3    H256003   5.528   1.398   0.960 -0.1968 -0.7347 -1.0875
11530TIP3   OH256004   3.919   0.927  13.205  0.2140  0.0488  0.5590
11530TIP3    H156005   3.845   0.943  13.146  1.1008 -1.5447 -1.0656
11530TIP3    H256006   3.996   0.929  13.148  1.4203  1.1478  2.1292
11531TIP3   OH256007   3.862   5.147  14.078  0.3988 -0.3407  0.4686
11531TIP3    H156008   3.916   5.115  14.006  1.6577  1.6854  0.4401
11531TIP3    H256009   3.772   5.140  14.046  0.7378 -1.8480 -0.2717
11532TIP3   OH256010   1.123   1.656  13.667 -0.4375  0.0665 -0.0043
11532TIP3    H156011   1.088   1.701  13.590 -2.7275 -0.2292  0.7948
11532TIP3    H256012   1.100   1.564  13.653  0.2358 -0.1819  0.4685
11533TIP3   OH256013   1.358   5.907   5.524  0.0238  0.2705  0.0559
11533TIP3    H156014   1.372   5.833   5.583  1.4072  0.5397  0.0834
11533TIP3    H256015   1.342   5.982   5.582  1.8063  0.6234  0.1469
11534TIP3   OH256016   4.718   2.222   1.726  0.1065  0.2887 -0.5187
11534TIP3    H156017   4.790   2.285   1.726 -0.4076  0.9054  0.6687
11534TIP3    H256018   4.675   2.236   1.642  0.4879  0.9415 -0.6158
11535TIP3   OH256019   1.082   5.051   5.967  0.3258 -0.4301 -0.0562
11535TIP3    H156020   1.114   5.063   5.877  0.6061 -0.9583 -0.0333
11535TIP3    H256021   1.101   4.959   5.987  0.8975 -0.1473  0.7852
11536TIP3   OH256022   5.212   3.261  16.628 -0.1456 -0.2476  0.4110
11536TIP3    H156023   5.246   3.305  16.706 -0.2174 -0.2186  0.4262
11536TIP3    H256024   5.289   3.220  16.588  0.2041  1.1057 -0.4047
11537TIP3   OH256025   2.501   2.493  15.959 -0.0424  0.2394  0.3614
11537TIP3    H156026   2.417   2.536  15.945  0.2798  0.6135 -0.5166
11537TIP3    H256027   2.511   2.436  15.883  1.0058  1.0584 -0.1438
11538TIP3   OH256028   3.967   2.222  11.286 -0.1189  0.4512 -0.2920
11538TIP3    H156029   3.942   2.181  11.203  1.2889 -0.8593 -0.1039
11538TIP3    H256030   3.925   2.308  11.283 -2.9430 -0.8244 -0.8275
11539TIP3   OH256031   1.283   5.984  14.249  0.3663  0.1238 -0.2130
11539TIP3    H156032   1.290   5.964  14.343 -0.2688 -0.6709 -0.3244
11539TIP3    H256033   1.335   5.915  14.207 -1.2616 -0.9374 -0.5658
11540TIP3   OH256034   5.000   0.522  11.822 -0.3694  0.1208 -0.5123
11540TIP3    H156035   5.012   0.582  11.748 -1.4280  0.8062 -0.1551
11540TIP3    H256036   4.965   0.577  11.892 -1.9466 -0.9993 -0.3638
11541TIP3   OH256037   2.314   0.711  14.898 -0.3294  0.0003 -0.0858
11541TIP3    H156038   2.316   0.617  14.915  0.7585 -0.0590 -0.4697
11541TIP3    H256039   2.405   0.738  14.902 -0.5902  0.9663 -0.4159
11542TIP3   OH256040   3.001   1.285   4.874 -0.2761  0.3578 -0.1793
11542TIP3    H156041   2.978   1.291   4.781  0.1744  0.4815 -0.2841
11542TIP3    H256042   2.917   1.274   4.919 -0.3226 -2.4456 -0.8006
11543TIP3   OH256043   4.263   5.231  14.084  0.0636 -0.1611  0.1199
11543TIP3    H156044   4.276   5.162  14.149  0.2346  1.3170  1.7260
11543TIP3    H256045   4.172   5.259  14.097 -0.1654 -0.4022 -0.8762
11544TIP3   OH256046   1.696   5.598   2.783 -0.2378 -0.4208  0.1153
11544TIP3    H156047   1.698   5.667   2.717  0.8034  0.1529  0.7054
11544TIP3    H256048   1.769   5.620   2.842 -0.2842 -1.6745  0.6713
11545TIP3   OH256049   2.295   1.683   4.236 -0.3424  0.0115  0.1484
11545TIP3    H156050   2.311   1.619   4.306 -0.0986  0.3562  0.4117
11545TIP3    H256051   2.315   1.767   4.276  0.2152  0.1749 -0.4598
11546TIP3   OH256052   3.476   1.578   1.739  0.0068  0.4722  0.4800
11546TIP3    H156053   3.569   1.558   1.725  0.3417  0.3216  2.5897
11546TIP3    H256054   3.471   1.604   1.831 -1.9467  1.1462  0.2197
11547TIP3   OH256055   6.295   2.773   0.492 -0.0699  0.0560  0.0973
11547TIP3    H156056   6.204   2.796   0.474  0.5236  1.3797 -1.3248
11547TIP3    H256057   6.320   2.830   0.565 -1.0859 -2.1402  2.3612
11548TIP3   OH256058   6.013   0.167  15.399 -0.4338 -0.3062  0.3076
11548TIP3    H156059   6.042   0.258  15.397 -1.7306  0.1303 -2.0211
11548TIP3    H256060   6.048   0.129  15.319 -2.6235 -0.9311 -0.4078
11549TIP3   OH256061   5.786   2.132   0.727  0.0816  1.0798 -0.1545
11549TIP3    H156062   5.800   2.188   0.804  0.1362  0.9691 -0.0829
11549TIP3    H256063   5.696   2.150   0.700 -1.6882 -2.2222  2.7230
11550TIP3   OH256064   5.984   2.468   3.057 -0.8569  0.8684 -0.3245
11550TIP3    H156065   5.994   2.511   3.142 -1.8166  0.1608  0.1537
11550TIP3    H256066   6.029   2.385   3.066 -1.3627  0.5894 -0.3548
11551TIP3   OH256067   4.363   6.053  10.898 -0.4886  0.3815 -0.1344
11551TIP3    H156068   4.420   6.119  10.936 -0.2846  0.6756 -0.9490
11551TIP3    H256069   4.280   6.098  10.882 -0.1479  0.6253 -1.2871
11552TIP3   OH256070   1.496   6.752  11.924  0.4495  1.0055  0.5334
11552TIP3    H156071   1.448   6.834  11.929  0.6073  1.5895 -3.7414
11552TIP3    H256072   1.447   6.699  11.861  2.8787 -0.2182 -0.4669
11553TIP3   OH256073   0.851   3.555   1.879 -0.0971 -0.0804 -0.4320
11553TIP3    H156074   0.831   3.580   1.789 -1.4025 -0.7709 -0.3597
11553TIP3    H256075   0.813   3.625   1.932 -2.4526 -1.3529 -0.2982
11554TIP3   OH256076   5.716   3.163   2.360 -0.1348  0.5784 -0.2019
11554TIP3    H156077   5.704   3.251   2.324  1.5122  0.7150 -0.4605
11554TIP3    H256078   5.799   3.133   2.325 -0.1079 -0.6291  0.8204
11555TIP3   OH256079   2.405   3.690  16.384 -0.1322 -0.0048  0.2922
11555TIP3    H156080   2.436   3.635  16.312  0.5555  0.4405  0.2390
11555TIP3    H256081   2.310   3.691  16.374  0.0315  1.7300 -1.8604
11556TIP3   OH256082   4.660   4.534   0.862 -0.2960 -0.4604 -0.1780
11556TIP3    H156083   4.596   4.573   0.921  0.4099 -0.0287  0.3177
11556TIP3    H256084   4.685   4.606   0.804  0.7913 -0.2284  0.5478
11557TIP3   OH256085   6.320   1.075  15.060  0.0510 -0.1231 -0.2672
11557TIP3    H156086   6.347   1.029  14.981 -2.8576 -0.2289 -1.3185
11557TIP3    H256087   6.254   1.017  15.100  0.2840  0.6765  1.3754
11558TIP3   OH256088   4.528   3.339  15.387 -0.0916  0.4004  0.1124
11558TIP3    H156089   4.467   3.295  15.326  0.1666  0.4760 -0.2040
11558TIP3    H256090   4.537   3.427  15.352 -1.1103  0.9255  1.1071
11559TIP3   OH256091   0.327   5.451  14.161 -0.5497 -0.1619 -0.2710
11559TIP3    H156092   0.331   5.517  14.092  1.5608  0.9924  0.8519
11559TIP3    H256093   0.299   5.500  14.239 -1.1818 -1.0754  0.0890
11560TIP3   OH256094   0.151   0.530   2.757 -0.3438 -0.3036  0.1349
11560TIP3    H156095   0.089   0.597   2.788 -2.1403 -0.8255 -2.0755
11560TIP3    H256096   0.217   0.580   2.708  0.0071  0.0888  0.9811
11561TIP3   OH256097   4.984   2.140   1.245 -0.1076 -0.2268  0.0943
11561TIP3    H156098   5.016   2.085   1.317  1.4438  0.4413 -0.0576
11561TIP3    H256099   5.040   2.119   1.171 -0.5934  0.3360 -0.4443
11562TIP3   OH256100   5.549   4.048  16.210 -0.1354  0.5095  0.7426
11562TIP3    H156101   5.555   3.989  16.285  0.5233 -0.6812 -0.2324
11562TIP3    H256102   5.532   4.134  16.250 -0.1438 -0.1436  2.2310
11563TIP3   OH256103   0.933   0.951  12.100  0.3297 -0.6312  0.0596
11563TIP3    H156104   0.877   1.027  12.085  3.2846  1.2056 -3.2952
11563TIP3    H256105   0.989   0.976  12.174 -0.9342 -1.0657  1.1976
11564TIP3   OH256106   6.737   0.719   2.826 -0.0066  0.4389 -0.2185
11564TIP3    H156107   6.774   0.721   2.914 -1.4771  1.2933  0.4078
11564TIP3    H256108   6.689   0.802   2.818 -2.4399 -0.9277 -0.6785
11565TIP3   OH256109   3.008   6.747   4.776 -0.1060  0.0195 -0.1634
11565TIP3    H156110   3.043   6.719   4.861  0.8197  0.0023 -0.5482
11565TIP3    H256111   2.975   6.666   4.736  1.0812 -0.2698 -0.5776
11566TIP3   OH256112   6.080   5.146   1.407  0.7666 -0.0684  0.6250
11566TIP3    H156113   6.015   5.179   1.469  0.1567  0.5099 -0.3026
11566TIP3    H256114   6.059   5.053   1.396 -0.1415  0.1982  0.0511
11567TIP3   OH256115   6.010   2.636   0.020 -0.4373  0.0823 -0.0239
11567TIP3    H156116   6.052   2.557  -0.012 -1.8987 -0.1998 -1.3644
11567TIP3    H256117   6.056   2.708  -0.024 -0.2496 -0.1194 -0.1580
11568TIP3   OH256118   0.268   5.089  16.559 -0.5472  0.1303  0.4248
11568TIP3    H156119   0.330   5.018  16.574  0.0733  0.2464 -1.2855
11568TIP3    H256120   0.254   5.128  16.645  2.8520  0.9784  0.7562
11569TIP3   OH256121   0.806   5.126   5.197 -0.2386  0.3098 -0.0843
11569TIP3    H156122   0.765   5.043   5.220  1.0786  0.0743  1.5944
11569TIP3    H256123   0.743   5.169   5.139  0.2661 -3.0835 -3.4980
11570TIP3   OH256124   5.920   5.721  15.480 -0.2440 -0.2550  0.0725
11570TIP3    H156125   5.830   5.750  15.469 -0.9806 -2.5601 -0.4581
11570TIP3    H256126   5.927   5.696  15.573  0.0930  0.5806  0.2864
11571TIP3   OH256127   0.998   1.962  17.357 -0.1835  0.1804  0.0653
11571TIP3    H156128   0.998   2.026  17.428 -1.9109 -0.3099  0.5431
11571TIP3    H256129   1.006   1.877  17.402 -0.0040 -0.0689 -0.4248
11572TIP3   OH256130   3.179   0.297   2.852 -0.3325  0.0984 -0.2494
11572TIP3    H156131   3.239   0.235   2.812  0.4376  0.5043  0.2676
11572TIP3    H256132   3.225   0.381   2.849 -0.8354  0.4007  0.2188
11573TIP3   OH256133   6.201   6.632   5.054 -0.2557  0.0257  0.3718
11573TIP3    H156134   6.197   6.558   5.116  0.6054  1.3729  2.1220
11573TIP3    H256135   6.111   6.664   5.050 -0.2217  0.3338  1.5113
11574TIP3   OH256136   4.618   3.755  12.241 -0.1088 -0.4739  0.4178
11574TIP3    H156137   4.535   3.726  12.278  0.3498 -2.7204 -0.1491
11574TIP3    H256138   4.649   3.680  12.190  1.2812  1.0197 -1.0784
11575TIP3   OH256139   4.686   5.923  11.909 -0.0316 -0.9487  0.5284
11575TIP3    H156140   4.591   5.915  11.920  0.0927 -0.9160  1.8674
11575TIP3    H256141   4.699   5.922  11.815 -1.5330  1.0320  0.2323
11576TIP3   OH256142   2.631   4.633   3.253 -0.1825 -0.5754 -0.1248
11576TIP3    H156143   2.688   4.557   3.240 -0.2131 -1.0556  2.1080
11576TIP3    H256144   2.551   4.596   3.291 -2.3170  0.0131 -3.6057
11577TIP3   OH256145   1.733   1.298   0.619  0.5332 -0.3848 -0.2931
11577TIP3    H156146   1.693   1.377   0.655  2.2029  0.5220 -0.3305
11577TIP3    H256147   1.662   1.233   0.619 -0.6508  0.8496  0.5317
11578TIP3   OH256148   3.926   1.015   0.941 -0.1363 -0.0530  0.3689
11578TIP3    H156149   3.832   1.030   0.937 -0.0597  0.6029  0.8740
11578TIP3    H256150   3.954   1.013   0.850 -0.3894  1.4049  0.2408
11579TIP3   OH256151   2.487   2.545  12.239  0.5543 -0.9801 -0.5004
11579TIP3    H156152   2.475   2.640  12.242  0.9993 -0.9266 -0.2734
11579TIP3    H256153   2.578   2.533  12.209  1.0982 -1.2890  1.1495
11580TIP3   OH256154   3.351   5.654   0.549 -0.0295  0.2121  0.2135
11580TIP3    H156155   3.393   5.572   0.521 -3.3999 -1.4615 -0.4848
11580TIP3    H256156   3.293   5.677   0.477 -1.1792  1.6818  1.5360
11581TIP3   OH256157   5.818   5.408  17.113  0.6497 -0.0967  0.1854
11581TIP3    H156158   5.863   5.466  17.052  0.4623 -0.1627 -0.0206
11581TIP3    H256159   5.729   5.400  17.076  1.1987 -2.0196 -0.8434
11582TIP3   OH256160   5.960   5.231  12.774  0.5965  0.0871  0.5192
11582TIP3    H156161   5.873   5.245  12.736  0.1777 -0.1121  1.3802
11582TIP3    H256162   6.020   5.235  12.699 -0.0143  1.4561  0.0761
11583TIP3   OH256163   3.364   5.628  16.217  0.6994 -0.0382 -0.0503
11583TIP3    H156164   3.440   5.660  16.266  0.3797 -0.2433  0.5911
11583TIP3    H256165   3.367   5.676  16.134  1.5215 -0.0363 -0.0271
11584TIP3   OH256166   2.406   5.731  15.431  0.0433 -0.0060 -0.2998
11584TIP3    H156167   2.475   5.669  15.410 -0.9763 -1.4075  0.3042
11584TIP3    H256168   2.325   5.685  15.407 -0.9711 -0.2742  3.1461
11585TIP3   OH256169   0.299   3.955   1.699 -0.0461 -0.3429  0.9165
11585TIP3    H156170   0.289   4.050   1.710  2.1711 -0.0665  1.0389
11585TIP3    H256171   0.286   3.941   1.605 -1.6949 -0.1548  1.0819
11586TIP3   OH256172   2.408   0.618   6.160 -0.2554  0.1297 -0.0468
11586TIP3    H156173   2.454   0.537   6.137 -2.0734 -1.3519  1.2477
11586TIP3    H256174   2.439   0.638   6.248 -3.4443 -2.1351  1.8035
11587TIP3   OH256175   0.082   2.123  15.639 -0.3254  0.2603  0.1099
11587TIP3    H156176   0.130   2.123  15.556 -0.2066 -1.2742  0.1614
11587TIP3    H256177   0.111   2.203  15.683 -0.4247  1.1195 -1.3271
11588TIP3   OH256178   5.481   1.088   4.656  0.4309 -0.5243 -0.1648
11588TIP3    H156179   5.536   1.131   4.722 -0.2489  0.1338 -0.0169
11588TIP3    H256180   5.484   1.146   4.580 -1.0900  0.2165  0.2893
11589TIP3   OH256181   2.322   1.665   5.672  0.1157 -0.1723 -0.5064
11589TIP3    H156182   2.408   1.706   5.688  0.9776 -1.0319 -2.5701
11589TIP3    H256183   2.270   1.736   5.633  0.8331 -0.3231 -1.8330
11590TIP3   OH256184   2.512   5.289  10.833  0.5757  0.0168  0.4770
11590TIP3    H156185   2.449   5.322  10.769  0.4652 -1.1617 -0.0383
11590TIP3    H256186   2.484   5.199  10.851  1.7536 -0.3197  0.6999
11591TIP3   OH256187   4.191   2.621   1.494 -0.4473  0.3916  0.4997
11591TIP3    H156188   4.227   2.706   1.470 -0.7836  0.2595 -0.5470
11591TIP3    H256189   4.252   2.557   1.457  0.6456  0.1424  2.6006
11592TIP3   OH256190   1.285   0.502  15.866  0.2871 -0.7058 -0.6753
11592TIP3    H156191   1.378   0.495  15.886  0.2100 -0.0746 -0.0483
11592TIP3    H256192   1.281   0.523  15.773  0.6613 -3.7640 -1.4661
11593TIP3   OH256193   2.120   0.494  17.090  0.0835  0.0043 -0.0821
11593TIP3    H156194   2.186   0.443  17.044 -0.7723 -0.0017 -1.3281
11593TIP3    H256195   2.162   0.516  17.174  1.2082 -1.0032 -0.3475
11594TIP3   OH256196   2.269   5.223   0.447 -0.5399 -0.0809 -0.0888
11594TIP3    H156197   2.246   5.175   0.527  1.0071 -0.8855 -0.0947
11594TIP3    H256198   2.213   5.186   0.380 -0.8717 -0.3772  0.3457
11595TIP3   OH256199   0.260   6.302   4.589 -0.3087 -0.5918  0.1370
11595TIP3    H156200   0.317   6.301   4.666 -2.4805 -0.3758  1.8537
11595TIP3    H256201   0.268   6.390   4.553 -0.6434 -0.0901  1.2580
11596TIP3   OH256202   3.318   4.205  11.605 -0.1786  0.1087 -0.3162
11596TIP3    H156203   3.267   4.128  11.582 -0.0767  0.1101 -0.5451
11596TIP3    H256204   3.409   4.177  11.599 -0.1519  0.1089  0.0825
11597TIP3   OH256205   0.399   6.709  12.057 -0.2249 -0.1337  0.1446
11597TIP3    H156206   0.316   6.735  12.099 -0.2596  1.1601 -0.6687
11597TIP3    H256207   0.372   6.655  11.983 -0.3146 -0.2430  0.2567
11598TIP3   OH256208   2.759   2.263   5.493  0.0116 -0.5649  0.7669
11598TIP3    H156209   2.754   2.205   5.417  0.2317  0.5214 -0.1174
11598TIP3    H256210   2.846   2.303   5.485 -0.4364  0.4671  0.8865
11599TIP3   OH256211   3.450   4.222   5.124 -0.1619 -0.1013 -0.1694
11599TIP3    H156212   3.416   4.157   5.062 -0.9653  0.7592 -0.6468
11599TIP3    H256213   3.504   4.171   5.185 -0.9268 -1.2467 -0.4242
11600TIP3   OH256214   1.634   0.807   3.423 -0.1283 -0.8926  0.6281
11600TIP3    H156215   1.729   0.818   3.433 -0.1304 -0.1607  0.0252
11600TIP3    H256216   1.612   0.864   3.349 -1.1958 -0.2272  1.4265
11601TIP3   OH256217   0.570   2.425  17.349 -0.2370  0.7408  0.1698
11601TIP3    H156218   0.607   2.399  17.433 -0.2851 -0.3712 -0.1364
11601TIP3    H256219   0.481   2.454  17.369 -1.2555 -2.1530  0.1971
11602TIP3   OH256220   5.112   1.479   5.729 -0.3278 -0.3145 -0.2335
11602TIP3    H156221   5.183   1.538   5.752 -0.7978  0.5410 -0.9085
11602TIP3    H256222   5.072   1.456   5.812 -0.2450  0.4712  0.0337
11603TIP3   OH256223   5.284   3.233   0.296 -0.2105  0.0465  0.2473
11603TIP3    H156224   5.297   3.312   0.244 -1.0663  0.8237  1.1842
11603TIP3    H256225   5.189   3.225   0.305 -0.0943  0.8895  3.0636
11604TIP3   OH256226   0.203   3.582  16.182 -0.0948  0.1324  0.0987
11604TIP3    H156227   0.296   3.563  16.196 -0.0509  0.8304  0.8775
11604TIP3    H256228   0.158   3.506  16.218  0.1802 -0.4395 -0.7366
11605TIP3   OH256229   4.235   6.419   1.783  0.5358 -0.0911  0.1249
11605TIP3    H156230   4.293   6.359   1.829  0.8685  1.0313  1.2216
11605TIP3    H256231   4.285   6.449   1.708  1.2971  0.6484  0.9058
11606TIP3   OH256232   2.158   0.680  12.298  0.5652 -0.1266  0.8355
11606TIP3    H156233   2.081   0.691  12.242 -1.4758  1.7015  3.7791
11606TIP3    H256234   2.206   0.608  12.257 -1.5657  0.0168 -2.3085
11607TIP3   OH256235   2.242   4.654   1.815 -0.0184 -0.3321  0.3153
11607TIP3    H156236   2.203   4.631   1.730  1.3778 -1.2338 -0.1041
11607TIP3    H256237   2.177   4.624   1.879 -0.8782 -0.0663 -0.3968
11608TIP3   OH256238   4.703   3.162  17.156 -0.0438  0.2700  0.5077
11608TIP3    H156239   4.724   3.076  17.120  1.8166 -0.2379  2.5936
11608TIP3    H256240   4.639   3.143  17.225 -0.9578  0.8091 -0.1661
11609TIP3   OH256241   1.744   5.898  16.820  0.4745  0.0295 -0.8219
11609TIP3    H156242   1.730   5.991  16.805  1.3800  0.3674  0.2503
11609TIP3    H256243   1.741   5.858  16.733 -0.5273  0.9690 -1.2294
11610TIP3   OH256244   3.667   3.485   2.544 -0.0076 -0.2699  0.0473
11610TIP3    H156245   3.692   3.495   2.636 -0.2572 -0.9864  0.1971
11610TIP3    H256246   3.734   3.534   2.496 -0.7409  1.4332  0.6781
11611TIP3   OH256247   0.534   1.276   2.681 -0.3272 -0.1258 -0.7366
11611TIP3    H156248   0.556   1.368   2.666 -1.2259  0.1267 -0.5122
11611TIP3    H256249   0.564   1.231   2.602 -0.7916  0.5122 -1.2810
11612TIP3   OH256250   5.792   1.896   1.076  0.3994  0.4798  0.2563
11612TIP3    H156251   5.788   1.862   0.986  1.5065  0.9896  0.0097
11612TIP3    H256252   5.708   1.869   1.114  1.1697 -2.5492  0.0780
11613TIP3   OH256253   4.233   4.010  11.464  0.3419 -0.4488 -0.4799
11613TIP3    H156254   4.168   4.043  11.526  0.6022 -1.2938  0.2736
11613TIP3    H256255   4.309   3.989  11.518  0.4039 -1.6640 -0.9939
11614TIP3   OH256256   5.432   6.410  16.136  0.5659  0.1195 -0.5099
11614TIP3    H156257   5.474   6.494  16.154 -1.0079  0.4382  2.1334
11614TIP3    H256258   5.360   6.432  16.076 -0.8061  1.0081  1.3737
11615TIP3   OH256259   2.226   1.083   5.276 -0.7610 -0.1676 -0.4683
11615TIP3    H156260   2.304   1.029   5.289  0.0463 -0.0618 -3.7980
11615TIP3    H256261   2.254   1.150   5.213 -3.5182 -0.1580 -1.8441
11616TIP3   OH256262   4.206   6.642  14.111  0.0714 -0.3382 -0.3038
11616TIP3    H156263   4.222   6.705  14.040 -0.2035 -1.0681 -1.0345
11616TIP3    H256264   4.255   6.564  14.084 -1.6585 -1.3341 -0.7275
11617TIP3   OH256265   2.374   1.735   2.039 -0.1904 -0.4660 -0.0596
11617TIP3    H156266   2.464   1.739   2.007 -0.2976  0.0960 -0.3065
11617TIP3    H256267   2.382   1.715   2.132  0.1074 -3.1306 -0.5696
11618TIP3   OH256268   1.754   2.703  16.291  0.5506 -0.2570  0.9733
11618TIP3    H156269   1.768   2.623  16.342 -1.2105 -0.6989  0.8356
11618TIP3    H256270   1.662   2.699  16.265  0.5946  1.5048  0.4031
11619TIP3   OH256271   4.639   1.002  12.578 -0.4407 -0.9912 -0.0191
11619TIP3    H156272   4.712   0.999  12.639  0.7031 -3.5797 -1.3587
11619TIP3    H256273   4.561   0.992  12.633  0.4924 -2.3187  1.1264
11620TIP3   OH256274   4.695   4.398   5.896 -0.0648 -0.2553  0.1224
11620TIP3    H156275   4.664   4.369   5.982 -0.6647  0.8784  0.3073
11620TIP3    H256276   4.749   4.474   5.915 -2.2989  1.6471 -0.6325
11621TIP3   OH256277   3.807   2.828   6.166 -1.0724  0.2320 -0.0934
11621TIP3    H156278   3.808   2.733   6.158 -0.8575  0.1186  1.0945
11621TIP3    H256279   3.812   2.844   6.261  2.1534  1.4626 -0.3567
11622TIP3   OH256280   2.105   5.280   6.449 -0.3170  0.3984  0.0873
11622TIP3    H156281   2.030   5.291   6.508 -1.3640  0.0043 -1.1269
11622TIP3    H256282   2.128   5.188   6.457  0.2101  0.5681  0.6313
11623TIP3   OH256283   3.612   4.480  16.879 -0.5282 -0.1517 -0.5340
11623TIP3    H156284   3.618   4.429  16.798  0.2557 -0.4117 -0.3329
11623TIP3    H256285   3.550   4.432  16.933 -1.4351  0.2982 -1.1627
11624TIP3   OH256286   6.581   5.579   5.280 -0.2896 -0.3281  0.2300
11624TIP3    H156287   6.631   5.596   5.360 -0.1543  2.3395 -0.3282
11624TIP3    H256288   6.498   5.625   5.293 -0.6838 -0.7257 -0.7561
11625TIP3   OH256289   6.133   2.894  16.570 -0.2450  0.5607 -0.0544
11625TIP3    H156290   6.138   2.947  16.490  1.1659  2.0668  0.9790
11625TIP3    H256291   6.096   2.953  16.636  0.7146  0.0576  0.9609
11626TIP3   OH256292   6.050   0.177   3.552 -0.1299 -0.5965 -0.3683
11626TIP3    H156293   6.044   0.271   3.539 -0.2274 -0.2778  1.6713
11626TIP3    H256294   5.986   0.140   3.491 -0.9346  0.7359 -0.3591
11627TIP3   OH256295   1.852   3.701  13.842  0.7026  0.2980  0.3792
11627TIP3    H156296   1.802   3.668  13.917 -1.9734 -0.4228 -1.5542
11627TIP3    H256297   1.903   3.626  13.813 -0.4054 -0.2776 -0.1415
11628TIP3   OH256298   0.622   4.557  15.282  0.3335  0.2714 -0.1314
11628TIP3    H156299   0.636   4.615  15.207 -0.4151  0.3885 -0.1888
11628TIP3    H256300   0.535   4.521  15.268  0.3617 -0.0338  0.4693
11629TIP3   OH256301   3.039   1.346   1.613 -0.3248 -0.4565  0.4919
11629TIP3    H156302   2.975   1.354   1.684  0.9077 -2.0139  1.8258
11629TIP3    H256303   2.991   1.302   1.543 -1.1753 -0.0856  0.8177
11630TIP3   OH256304   2.762   5.934  13.169 -0.1971 -0.0405  0.0841
11630TIP3    H156305   2.681   5.974  13.200 -0.6120  0.7826 -1.8971
11630TIP3    H256306   2.823   6.007  13.158  0.1680 -0.3963 -0.3117
11631TIP3   OH256307   6.663   3.986  14.132 -0.6445  0.1479 -0.6412
11631TIP3    H156308   6.683   3.955  14.220 -0.2844  1.6262 -0.1758
11631TIP3    H256309   6.572   4.013  14.135 -0.6152  0.2553 -0.7030
11632TIP3   OH256310   6.456   5.442  16.823 -0.5015  0.7245  0.3029
11632TIP3    H156311   6.363   5.459  16.838 -0.5764 -0.3852  1.1963
11632TIP3    H256312   6.488   5.403  16.904  0.7490  1.0736  0.0046
11633TIP3   OH256313   1.328   0.438  15.355 -0.1381 -0.2001 -0.0899
11633TIP3    H156314   1.260   0.472  15.297 -0.2313 -0.7205 -0.2991
11633TIP3    H256315   1.399   0.412  15.296  0.1466  0.1177  0.1088
11634TIP3   OH256316   0.026   5.139  15.718 -0.1836 -0.0819  0.2143
11634TIP3    H156317   0.083   5.215  15.710 -0.3473 -0.0466 -0.6569
11634TIP3    H256318  -0.046   5.155  15.657 -1.3419  0.0537  1.5558
11635TIP3   OH256319   6.421   3.483   4.542  0.5046  0.6697 -0.0737
11635TIP3    H156320   6.492   3.463   4.602 -0.2539  1.4746  1.1250
11635TIP3    H256321   6.341   3.466   4.592 -0.1511  2.5631 -0.3946
11636TIP3   OH256322   1.677   3.106   5.139 -0.3779  0.7091 -0.0095
11636TIP3    H156323   1.747   3.044   5.123 -0.1051  0.9812  0.1188
11636TIP3    H256324   1.662   3.103   5.233  1.7225  3.0231  0.4972
11637TIP3   OH256325   1.121   5.314  12.462  0.3132 -0.0982 -0.4538
11637TIP3    H156326   1.097   5.373  12.533  0.7348 -0.7835  0.2639
11637TIP3    H256327   1.123   5.370  12.384  4.3311  1.7011  0.7329
11638TIP3   OH256328   2.755   0.538   0.768 -0.2529 -0.4158 -0.1128
11638TIP3    H156329   2.673   0.490   0.766 -0.1574 -0.5483 -1.3366
11638TIP3    H256330   2.747   0.602   0.698  0.9148 -0.8024 -0.6165
11639TIP3   OH256331   3.245   2.302   3.035  0.4341  0.3483  0.0545
11639TIP3    H156332   3.272   2.249   3.110 -1.1090 -0.1494  0.2735
11639TIP3    H256333   3.266   2.392   3.061  0.7561  0.0949  0.6908
11640TIP3   OH256334   2.303   5.079   5.950 -0.0834 -0.3485  0.1233
11640TIP3    H156335   2.265   4.995   5.976  1.3715 -0.8223  0.8024
11640TIP3    H256336   2.235   5.143   5.972 -0.9685 -1.2706  0.1703
11641TIP3   OH256337   0.195   6.558  12.626 -0.4674  0.0245 -0.2752
11641TIP3    H156338   0.180   6.466  12.647  0.4393 -0.2418 -0.7671
11641TIP3    H256339   0.201   6.560  12.531 -1.3276  0.7348 -0.3329
11642TIP3   OH256340   5.133   6.652  12.880 -0.4042 -0.0225 -0.2407
11642TIP3    H156341   5.200   6.609  12.826 -0.9705 -0.9142 -0.2434
11642TIP3    H256342   5.067   6.585  12.896 -1.7799  1.0790 -1.0112
11643TIP3   OH256343   2.968   1.502   4.028 -0.0301  0.2215  0.5380
11643TIP3    H156344   2.921   1.486   4.110  1.0033  0.6568  1.2397
11643TIP3    H256345   3.037   1.564   4.052  0.4328  0.1767 -0.6152
11644TIP3   OH256346   1.278   1.788  11.965 -0.0540 -0.3277  0.4746
11644TIP3    H156347   1.201   1.742  11.932  1.8150 -2.5979 -1.0417
11644TIP3    H256348   1.284   1.866  11.909 -1.1110 -0.2171  0.4878
11645TIP3   OH256349   0.758   3.487  11.065  0.4652  0.0948  0.3857
11645TIP3    H156350   0.691   3.551  11.087  1.4434  1.7178 -1.1552
11645TIP3    H256351   0.829   3.505  11.127  0.8969  0.7918 -0.2983
11646TIP3   OH256352   6.635   2.908   0.846  0.2235 -0.0616 -0.3390
11646TIP3    H156353   6.652   2.816   0.825  0.3499 -0.1173  0.0108
11646TIP3    H256354   6.572   2.905   0.918  3.0435  0.0354  2.3495
11647TIP3   OH256355   2.164   3.441   4.834  0.0572  0.1181 -0.3919
11647TIP3    H156356   2.097   3.373   4.821 -0.8300  0.8260  0.3234
11647TIP3    H256357   2.171   3.449   4.929 -0.2378  1.3773 -0.4606
11648TIP3   OH256358   1.735   6.549   2.292 -0.5676  0.6767 -0.0524
11648TIP3    H156359   1.671   6.513   2.352 -2.2563  2.5684 -0.6097
11648TIP3    H256360   1.786   6.611   2.345 -0.0453  0.1327  0.0911
11649TIP3   OH256361   5.145   4.721  13.037  0.0468 -0.3209  0.1275
11649TIP3    H156362   5.147   4.784  13.109  2.2388 -0.3960  0.1917
11649TIP3    H256363   5.087   4.651  13.068  0.2870  0.0501  1.4681
11650TIP3   OH256364   0.593   2.072   3.573 -0.7719 -0.1169 -0.4619
11650TIP3    H156365   0.561   2.153   3.613  0.1779  0.0570 -0.0289
11650TIP3    H256366   0.660   2.041   3.634  0.0360 -0.3554 -1.4599
11651TIP3   OH256367   6.028   3.487  14.189  0.0528 -0.2061  0.3444
11651TIP3    H156368   6.014   3.545  14.263 -0.7717 -1.6842  1.4098
11651TIP3    H256369   5.957   3.423  14.195 -0.6183  0.1604 -2.2858
11652TIP3   OH256370   3.571   4.232   6.459  0.1075 -1.0396  0.0877
11652TIP3    H156371   3.516   4.255   6.385  0.1485 -1.0996  0.0380
11652TIP3    H256372   3.578   4.137   6.455  0.7036 -0.9875 -0.2615
11653TIP3   OH256373   6.482   2.952   3.566 -0.3465 -0.2346 -0.1098
11653TIP3    H156374   6.424   3.003   3.623 -0.2570  1.9330 -1.8009
11653TIP3    H256375   6.570   2.987   3.584 -0.0875 -0.7500 -0.3351
11654TIP3   OH256376   1.711   2.210  10.945 -0.4666  0.4046 -0.6049
11654TIP3    H156377   1.634   2.208  10.889 -0.6374 -2.0069 -0.4040
11654TIP3    H256378   1.749   2.297  10.931 -1.9855  0.8541 -2.3664
11655TIP3   OH256379   6.752   2.721   3.333 -0.1906  0.0614  0.3422
11655TIP3    H156380   6.710   2.709   3.418 -1.7954 -0.5940 -0.5105
11655TIP3    H256381   6.836   2.763   3.354 -1.0246  0.9459  2.1441
11656TIP3   OH256382   4.539   0.993   3.343  0.4929  0.1902 -0.7808
11656TIP3    H156383   4.458   0.961   3.303  0.1373 -0.4728  0.4262
11656TIP3    H256384   4.513   1.074   3.387  0.8723  0.8926 -1.8197
11657TIP3   OH256385   6.645   6.417   1.714 -0.3032  0.2500  0.4429
11657TIP3    H156386   6.699   6.375   1.781  1.3958  0.1047 -0.9434
11657TIP3    H256387   6.591   6.345   1.679  0.0716 -0.0408  0.4566
11658TIP3   OH256388   1.934   0.380   2.980  0.4897  0.2407 -0.2198
11658TIP3    H156389   1.866   0.434   2.940  0.1993 -0.1192 -0.2157
11658TIP3    H256390   1.886   0.313   3.029  0.8451  0.5223  0.5195
11659TIP3   OH256391   4.471   0.579  16.880  0.8039 -0.5260  0.0391
11659TIP3    H156392   4.428   0.611  16.960  0.1306 -0.8482 -0.1865
11659TIP3    H256393   4.400   0.568  16.817  1.2992 -0.5082 -0.5312
11660TIP3   OH256394   4.801   1.765  16.168 -0.2613 -0.2773 -0.1091
11660TIP3    H156395   4.878   1.711  16.182  0.3439  0.5887  0.0108
11660TIP3    H256396   4.759   1.770  16.254  0.5743  0.7381  0.2711
11661TIP3   OH256397   3.058   3.600  12.528 -0.5344 -0.0869  0.5366
11661TIP3    H156398   2.968   3.598  12.493  0.3886  0.5897 -2.0799
11661TIP3    H256399   3.076   3.692  12.543 -0.2135 -0.2113  0.9418
11662TIP3   OH256400   3.721   4.523   6.332 -1.1151 -0.0262 -0.6138
11662TIP3    H156401   3.626   4.528   6.343 -1.1671 -0.1009 -1.0113
11662TIP3    H256402   3.751   4.474   6.408 -1.3097  0.6394 -0.1032
11663TIP3   OH256403   4.662   2.994  16.185  0.1916  0.4049  0.0225
11663TIP3    H156404   4.595   2.951  16.238  0.6862 -1.4640 -0.7866
11663TIP3    H256405   4.630   2.988  16.095  1.7790 -1.2957 -0.4869
11664TIP3   OH256406   2.658   5.168   4.277  0.1104  0.0112  0.3909
11664TIP3    H156407   2.582   5.225   4.296  0.4415 -0.1926  2.5770
11664TIP3    H256408   2.701   5.210   4.202 -1.2071  1.0806  0.1887
11665TIP3   OH256409   0.073   0.993   4.861 -0.2806 -0.2520 -0.5526
11665TIP3    H156410   0.035   1.003   4.773 -1.5874 -0.3868 -0.0293
11665TIP3    H256411   0.111   1.078   4.880 -1.3343  0.2601 -0.6612
11666TIP3   OH256412   6.127   5.933   2.861  0.3610 -0.2211 -0.0653
11666TIP3    H156413   6.123   5.838   2.851 -0.3623 -0.1760 -0.2634
11666TIP3    H256414   6.173   5.963   2.782  0.1447 -0.3682 -0.2487
11667TIP3   OH256415   1.146   4.165  13.764  0.4010  0.4694  0.6890
11667TIP3    H156416   1.238   4.171  13.791  1.1296  0.0514 -1.4921
11667TIP3    H256417   1.149   4.133  13.673 -1.9135  0.2913  0.6027
11668TIP3   OH256418   4.085   1.540   2.593 -0.0376  0.5302 -0.1120
11668TIP3    H156419   4.128   1.600   2.532  1.5389 -0.5087 -0.0838
11668TIP3    H256420   4.070   1.460   2.542  0.1061  0.1051  0.5012
11669TIP3   OH256421   5.762   2.568   0.862  0.1870  0.3174 -0.0432
11669TIP3    H156422   5.784   2.631   0.794  2.3466  0.3820  0.6407
11669TIP3    H256423   5.796   2.606   0.943 -1.4867 -0.1899  0.9512
11670TIP3   OH256424   5.048   0.919   2.078  0.3635 -0.0856 -0.0543
11670TIP3    H156425   4.961   0.935   2.042 -1.6496 -2.6013  3.0722
11670TIP3    H256426   5.068   0.828   2.053  1.1180 -0.2266  0.9761
11671TIP3   OH256427   1.745   6.302  14.408 -0.5613 -0.3416 -0.0703
11671TIP3    H156428   1.675   6.247  14.443 -1.7238  0.8708 -0.4091
11671TIP3    H256429   1.807   6.312  14.481 -2.2182  0.9613  1.2270
11672TIP3   OH256430   1.074   1.631  11.507 -0.2953 -0.1550 -0.9380
11672TIP3    H156431   1.094   1.699  11.571  0.1810  0.7925 -2.0597
11672TIP3    H256432   0.998   1.585  11.545  1.5753 -1.4230  1.5901
11673TIP3   OH256433   3.860   5.649   0.597  0.0221 -0.0881 -0.4396
11673TIP3    H156434   3.932   5.613   0.648  0.0734 -1.2257 -1.2838
11673TIP3    H256435   3.870   5.744   0.605 -0.1686 -0.2066  1.9108
11674TIP3   OH256436   1.733   5.867  15.588 -0.3140  0.0024 -0.0323
11674TIP3    H156437   1.643   5.879  15.558 -0.6318 -0.4163  0.7322
11674TIP3    H256438   1.780   5.943  15.552 -1.3944  1.3260  1.2212
11675TIP3   OH256439   3.740   1.404   4.891  0.6400 -0.2315 -1.0207
11675TIP3    H156440   3.726   1.316   4.857  1.0825 -0.2464 -1.1728
11675TIP3    H256441   3.653   1.433   4.918  0.6226 -1.0400 -0.1675
11676TIP3   OH256442   4.979   5.068  14.187 -0.1956  0.1627  0.2644
11676TIP3    H156443   4.890   5.099  14.202 -0.5743 -1.1941  0.9293
11676TIP3    H256444   5.025   5.088  14.268 -0.7601 -1.9985  1.1976
11677TIP3   OH256445   3.000   2.703  16.365 -0.3769 -0.8563  0.2125
11677TIP3    H156446   3.048   2.767  16.417  0.7166 -0.4147 -1.2776
11677TIP3    H256447   2.908   2.724  16.380 -0.0559  1.4551 -0.6693
11678TIP3   OH256448   4.430   3.821   3.347  0.4166 -0.0540  0.0992
11678TIP3    H156449   4.470   3.775   3.420 -0.6020 -1.6971 -0.3127
11678TIP3    H256450   4.479   3.791   3.270  0.3786  0.3195 -0.0734
11679TIP3   OH256451   3.087   1.463   0.329  0.0136 -0.3913 -0.2006
11679TIP3    H156452   3.074   1.401   0.401  0.0466 -0.0071  0.1416
11679TIP3    H256453   3.065   1.414   0.251  2.2873 -1.5837 -0.1848
11680TIP3   OH256454   3.751   2.096  17.374  0.2519  0.5859  0.0730
11680TIP3    H156455   3.762   2.010  17.333 -2.5996  0.0118  0.2797
11680TIP3    H256456   3.710   2.077  17.458  0.1758  2.1315  0.4126
11681TIP3   OH256457   3.052   5.680   5.068  0.4081 -0.1903  0.2444
11681TIP3    H156458   3.111   5.746   5.106  0.5088 -0.7790  1.1557
11681TIP3    H256459   2.965   5.717   5.077  0.4948 -0.0334  0.4545
11682TIP3   OH256460   4.344   2.211  17.154 -0.1648  0.1983 -0.1655
11682TIP3    H156461   4.347   2.165  17.070  0.3050  0.2654 -0.1880
11682TIP3    H256462   4.352   2.142  17.219  0.3998  0.2318 -0.1961
11683TIP3   OH256463   4.117   5.534  15.538  0.4057 -0.1300  0.1347
11683TIP3    H156464   4.198   5.575  15.507  0.8736 -0.9609  0.2473
11683TIP3    H256465   4.133   5.513  15.629 -0.6102  1.3660  0.7065
11684TIP3   OH256466   5.490   0.641  15.511 -0.0518  0.0595 -0.0699
11684TIP3    H156467   5.558   0.604  15.567 -0.4154 -0.3840  0.0831
11684TIP3    H256468   5.408   0.605  15.545 -0.2413 -0.6052 -1.1761
11685TIP3   OH256469   4.095   1.599   5.478  0.2141 -0.1060 -0.0993
11685TIP3    H156470   4.003   1.626   5.469  0.2395 -0.1827 -0.6148
11685TIP3    H256471   4.123   1.579   5.389  0.5981 -0.5320  0.1126
11686TIP3   OH256472   6.159   6.686   3.017  0.1996 -0.4206  0.1820
11686TIP3    H156473   6.108   6.700   3.097  4.9981  3.3976  3.1814
11686TIP3    H256474   6.224   6.620   3.041 -0.0439 -1.4552 -1.7543
11687TIP3   OH256475   5.705   0.120   2.629  0.1990  0.1530 -0.4003
11687TIP3    H156476   5.695   0.208   2.595 -1.3733 -0.1058 -0.6836
11687TIP3    H256477   5.769   0.129   2.700 -0.0500  1.5438 -0.3209
11688TIP3   OH256478   5.007   4.770  15.373  0.3027  0.3257 -0.1273
11688TIP3    H156479   5.048   4.715  15.306 -0.7080 -0.0636 -0.4502
11688TIP3    H256480   5.033   4.859  15.351 -0.9520  0.3401 -1.7739
11689TIP3   OH256481   5.568   2.457   4.852  0.1928 -0.0922 -0.3073
11689TIP3    H156482   5.577   2.505   4.934 -0.1030 -0.7718  0.1243
11689TIP3    H256483   5.496   2.500   4.807 -1.0598 -1.0347  0.7328
11690TIP3   OH256484   1.666   3.811  11.253  0.5687  0.1093  0.1124
11690TIP3    H156485   1.591   3.811  11.193  0.8169 -0.3898 -0.2050
11690TIP3    H256486   1.671   3.901  11.285 -0.5688  0.0037  0.6522
11691TIP3   OH256487   0.154   3.530   0.162 -0.0553  0.0017 -0.4200
11691TIP3    H156488   0.238   3.557   0.199  0.0768  0.8345 -1.2995
11691TIP3    H256489   0.176   3.492   0.077 -0.3645 -1.8344  0.2718
11692TIP3   OH256490   5.082   4.650  10.905  0.9538  0.4561  0.4891
11692TIP3    H156491   5.158   4.707  10.891  0.5758  0.9257  0.3211
11692TIP3    H256492   5.103   4.570  10.857  2.0097 -0.0224  1.6957
11693TIP3   OH256493   2.228   0.659  15.419  0.1161  0.1256 -0.7464
11693TIP3    H156494   2.271   0.680  15.337 -1.2162 -0.3298 -1.5906
11693TIP3    H256495   2.135   0.649  15.396 -0.5267  1.4102  1.0450
11694TIP3   OH256496   0.943   4.393   3.153  0.3659 -0.0020 -0.0575
11694TIP3    H156497   1.005   4.401   3.226  0.0479  0.8008  0.1338
11694TIP3    H256498   0.961   4.468   3.097  1.3426 -1.2011 -1.4053
11695TIP3   OH256499   5.498   2.545  16.230  0.1363 -0.4603  0.2828
11695TIP3    H156500   5.489   2.455  16.260 -0.6643 -0.6040 -0.3420
11695TIP3    H256501   5.483   2.598  16.308  2.4591 -0.8558  1.0831
11696TIP3   OH256502   0.332   1.308   0.678  0.7391 -0.3054  0.5650
11696TIP3    H156503   0.274   1.243   0.639 -1.6799  1.4489  1.0252
11696TIP3    H256504   0.344   1.278   0.768 -2.5850  1.1158  1.6185
11697TIP3   OH256505   6.533   4.525   2.446 -0.0437 -0.2719 -0.8667
11697TIP3    H156506   6.609   4.541   2.501 -1.4612  0.8865  0.8795
11697TIP3    H256507   6.559   4.555   2.358  0.9729  1.7255  0.0490
11698TIP3   OH256508   3.849   6.089   4.917 -0.4067  0.0825  0.3741
11698TIP3    H156509   3.795   6.016   4.949 -0.8191 -0.3140 -1.1346
11698TIP3    H256510   3.787   6.162   4.909  0.0392  0.7021  2.0478
11699TIP3   OH256511   5.506   1.170   0.290  0.3774  0.4363 -0.9072
11699TIP3    H156512   5.495   1.257   0.328  0.0136 -0.0112  0.0373
11699TIP3    H256513   5.562   1.184   0.213  0.0871  1.5396 -0.9348
11700TIP3   OH256514   3.214   4.868  12.856  0.1169 -0.3222 -0.8249
11700TIP3    H156515   3.299   4.876  12.901 -0.2946 -1.7884  0.2778
11700TIP3    H256516   3.206   4.950  12.807  1.6794  0.3189 -0.0975
11701TIP3   OH256517   3.654   1.122   2.384 -0.4333  0.0132 -0.1474
11701TIP3    H156518   3.562   1.099   2.390 -0.1488 -1.0960  0.0724
11701TIP3    H256519   3.675   1.113   2.291 -0.6057  0.5269 -0.2394
11702TIP3   OH256520   6.265   3.864  17.116  0.2064 -0.2133 -0.0168
11702TIP3    H156521   6.233   3.870  17.026  2.1557 -1.2639 -0.8422
11702TIP3    H256522   6.221   3.788  17.153 -3.1403  2.0508  1.1328
11703TIP3   OH256523   2.080   0.079  12.914  0.7941  0.3851  0.5288
11703TIP3    H156524   2.056   0.025  12.838  1.7324  0.9824 -0.2090
11703TIP3    H256525   2.148   0.028  12.958  0.3904  0.1316  0.8659
11704TIP3   OH256526   4.751   2.342  12.794 -0.1855  0.1903 -0.5569
11704TIP3    H156527   4.830   2.303  12.830  1.0134  1.5447 -1.6149
11704TIP3    H256528   4.726   2.409  12.857  0.4391  0.8377 -0.9913
11705TIP3   OH256529   3.214   1.884  13.514  0.3874 -0.0632 -0.5104
11705TIP3    H156530   3.303   1.904  13.543  1.1664 -3.0718 -0.5402
11705TIP3    H256531   3.216   1.896  13.419  1.2782 -1.6150 -0.7230
11706TIP3   OH256532   4.424   4.941  13.662 -0.0286  0.2500 -0.0185
11706TIP3    H156533   4.338   4.983  13.664 -0.8112 -1.2714  2.1386
11706TIP3    H256534   4.430   4.895  13.746  1.7351 -2.0099 -1.2748
11707TIP3   OH256535   2.380   4.008  17.194  0.7005 -0.3758 -0.2612
11707TIP3    H156536   2.447   4.061  17.236  1.6617 -2.4109  0.9387
11707TIP3    H256537   2.364   3.936  17.256 -0.1979 -1.7441 -1.9830
11708TIP3   OH256538   1.636   4.814  14.201  0.6022  0.4810  0.2484
11708TIP3    H156539   1.587   4.742  14.241  1.2206  0.3077  0.7119
11708TIP3    H256540   1.710   4.829  14.260  0.3520  1.6612  0.2770
11709TIP3   OH256541   5.401   4.446  11.132  0.1526 -0.2279 -0.4425
11709TIP3    H156542   5.349   4.410  11.060 -1.8245 -0.7069  1.1439
11709TIP3    H256543   5.462   4.376  11.155  0.0857 -0.4618 -0.9600
11710TIP3   OH256544   4.780   1.497   3.309  0.1866  0.2170  0.7424
11710TIP3    H156545   4.822   1.472   3.227 -0.6775  0.9312  0.0592
11710TIP3    H256546   4.775   1.593   3.305 -0.4418  0.2183  1.3303
11711TIP3   OH256547   6.134   2.744  15.837 -0.1377 -0.4162 -0.5035
11711TIP3    H156548   6.168   2.808  15.775 -0.8547 -0.4877 -0.9760
11711TIP3    H256549   6.207   2.683  15.851 -0.0374 -0.5353 -1.4570
11712TIP3   OH256550   5.980   2.169  14.459 -0.3394 -0.1507 -0.1672
11712TIP3    H156551   5.914   2.220  14.413  0.5976  1.9301  0.6685
11712TIP3    H256552   6.059   2.222  14.454  0.3585 -0.8980  1.8716
11713TIP3   OH256553   5.499   0.669  16.067  0.0518  0.4552  0.1097
11713TIP3    H156554   5.417   0.655  16.115  0.6368 -0.7726  0.8130
11713TIP3    H256555   5.480   0.639  15.978 -0.3337  0.3822  0.2137
11714TIP3   OH256556   4.308   2.866   5.599 -0.2793  0.2872  1.2614
11714TIP3    H156557   4.326   2.812   5.522 -0.5569 -0.7374  1.9000
11714TIP3    H256558   4.383   2.926   5.603 -0.3518  0.4829  0.0979
11715TIP3   OH256559   5.736   4.154  17.163  0.3407 -0.3296  0.4383
11715TIP3    H156560   5.655   4.104  17.155  0.2851  0.0184 -1.9563
11715TIP3    H256561   5.804   4.088  17.173  0.0993 -0.8555 -1.1236
11716TIP3   OH256562   2.973   2.765  12.131 -0.2323 -0.1980  0.3693
11716TIP3    H156563   3.056   2.811  12.148 -1.4514  1.5885  1.8611
11716TIP3    H256564   2.959   2.710  12.208  0.9364 -2.8489 -1.1640
11717TIP3   OH256565   0.488   0.039  13.388 -0.3494 -0.2592 -0.4455
11717TIP3    H156566   0.417   0.006  13.443  0.8462 -1.1821  0.6118
11717TIP3    H256567   0.468   0.008  13.300 -1.4015 -0.2395 -0.2213
11718TIP3   OH256568   6.526   2.511   2.481  0.2782 -0.6992  0.4799
11718TIP3    H156569   6.580   2.513   2.402 -1.4535  2.7080 -0.8420
11718TIP3    H256570   6.582   2.550   2.549  0.6507 -0.4521  0.0354
11719TIP3   OH256571   6.751   5.875  15.425 -0.1436  0.3865  0.4698
11719TIP3    H156572   6.696   5.846  15.498  1.9558 -0.9684  1.6258
11719TIP3    H256573   6.837   5.888  15.465  1.4651 -1.8320 -2.0140
11720TIP3   OH256574   5.134   0.803   1.333 -0.3554  0.0141 -0.2730
11720TIP3    H156575   5.048   0.842   1.350 -0.5080 -0.3905 -0.1123
11720TIP3    H256576   5.114   0.716   1.297 -0.0109 -0.3016  0.2870
11721TIP3   OH256577   2.033   6.337   0.260 -0.2927 -0.0419 -0.3336
11721TIP3    H156578   2.112   6.290   0.288 -0.3380  0.2439  0.3081
11721TIP3    H256579   1.961   6.278   0.285 -0.4240  0.8506  1.6168
11722TIP3   OH256580   3.729   3.528   3.639  0.1159 -0.5029 -0.0653
11722TIP3    H156581   3.780   3.514   3.560  0.0755 -0.9779 -0.0156
11722TIP3    H256582   3.728   3.442   3.682  1.2594  0.0420  1.1274
11723TIP3   OH256583   4.083   6.453  15.369  0.0852 -0.1164 -0.5785
11723TIP3    H156584   4.047   6.442  15.281 -1.6942 -0.3749  0.1384
11723TIP3    H256585   4.090   6.548  15.381  0.6840 -0.0863 -1.1111
11724TIP3   OH256586   1.221   2.270   1.773  0.2971 -0.1284  0.5082
11724TIP3    H156587   1.311   2.302   1.775 -0.1964  1.2943  1.7246
11724TIP3    H256588   1.202   2.256   1.680  1.2759  1.0061  0.1165
11725TIP3   OH256589   3.987   1.806  14.878 -0.1189  0.3827 -0.1362
11725TIP3    H156590   4.022   1.754  14.950 -0.6791 -0.4865 -0.4802
11725TIP3    H256591   3.939   1.877  14.921 -0.6667 -0.2754  0.3635
11726TIP3   OH256592   3.671   2.956  13.370 -0.3559  0.0341 -0.6775
11726TIP3    H156593   3.590   2.946  13.421  0.8461  1.7989  1.8006
11726TIP3    H256594   3.666   2.888  13.303 -2.9604 -1.1901  0.6167
11727TIP3   OH256595   5.735   0.462  16.841 -0.1575  0.5946  0.2394
11727TIP3    H156596   5.751   0.368  16.834 -0.2030  0.5004  1.3352
11727TIP3    H256597   5.639   0.469  16.846 -0.1712  0.7317 -0.1412
11728TIP3   OH256598   2.048   0.814  12.802  0.0217 -0.7017 -0.1410
11728TIP3    H156599   2.028   0.722  12.787 -1.3358  0.0112 -3.6342
11728TIP3    H256600   2.122   0.833  12.745 -0.0732  0.4674  0.0885
11729TIP3   OH256601   1.151   6.092  13.415 -0.3717 -0.8683  0.1699
11729TIP3    H156602   1.112   6.042  13.343  3.0890 -2.9111 -0.5343
11729TIP3    H256603   1.160   6.028  13.486 -0.7320  0.2548  1.2655
11730TIP3   OH256604   6.139   0.151   2.880  0.3792  0.3565 -0.0275
11730TIP3    H156605   6.145   0.073   2.934  0.0918  1.3533  1.5227
11730TIP3    H256606   6.214   0.145   2.821  0.6530 -0.8327  0.4136
11731TIP3   OH256607   1.683   2.651   2.022  0.3368  0.5758  0.0874
11731TIP3    H156608   1.751   2.711   1.990  0.1098 -0.1500 -1.9420
11731TIP3    H256609   1.635   2.702   2.087  2.0891  1.5003  0.7466
11732TIP3   OH256610   5.763   0.699   3.645 -0.3866 -0.1387 -0.7389
11732TIP3    H156611   5.831   0.765   3.628  1.5684 -1.6528  0.6987
11732TIP3    H256612   5.693   0.721   3.585  0.9371  2.1600 -1.5730
11733TIP3   OH256613   6.223   6.732   2.216  0.4293  0.0906 -0.1718
11733TIP3    H156614   6.259   6.647   2.190 -0.2827 -0.4955  0.7041
11733TIP3    H256615   6.297   6.778   2.256  1.0625  0.2823 -1.5252
11734TIP3   OH256616   1.050   2.020   2.846  0.1601  0.5701  0.2720
11734TIP3    H156617   1.114   1.973   2.899  1.3323  1.5782 -0.2147
11734TIP3    H256618   0.984   2.050   2.909 -0.8273 -1.9336  0.5661
11735TIP3   OH256619   2.474   4.725   5.965 -0.0851  0.1638 -0.2566
11735TIP3    H156620   2.441   4.767   6.045  0.2198  1.2052 -0.6551
11735TIP3    H256621   2.486   4.633   5.989  4.2700  1.1076  2.3528
11736TIP3   OH256622   3.895   0.959   3.701 -0.5709 -0.1358  0.4558
11736TIP3    H156623   3.900   0.873   3.742  1.5630 -0.1019  0.3763
11736TIP3    H256624   3.802   0.971   3.680 -0.6697 -3.2779 -1.4240
11737TIP3   OH256625   6.639   3.972   2.406 -1.0044  0.2519 -0.0355
11737TIP3    H156626   6.594   4.056   2.405 -1.2998  0.0926 -0.5426
11737TIP3    H256627   6.597   3.921   2.337  0.8746  0.5846 -1.5203
11738TIP3   OH256628   1.070   1.519  16.062  1.0402  0.1816  0.2421
11738TIP3    H156629   1.136   1.571  16.016  1.2022 -1.0507 -0.9904
11738TIP3    H256630   0.988   1.541  16.018  1.2927 -1.5319 -1.2283
11739TIP3   OH256631   4.402   4.772   3.300 -0.1454  0.0549  0.8388
11739TIP3    H156632   4.314   4.735   3.303 -0.0174 -0.8975 -2.7374
11739TIP3    H256633   4.392   4.853   3.249  1.2723 -1.4025 -2.0312
11740TIP3   OH256634   5.446   0.310   3.218 -0.5323 -0.1888 -0.1093
11740TIP3    H156635   5.489   0.263   3.290 -0.5034 -0.2449 -0.1639
11740TIP3    H256636   5.434   0.245   3.150  1.9435  0.4546 -1.2673
11741TIP3   OH256637   6.201   5.301  16.059  0.4987  0.0253  0.6881
11741TIP3    H156638   6.258   5.350  16.119  2.0787 -2.9036  1.7564
11741TIP3    H256639   6.131   5.267  16.115  1.1072 -1.4139  0.6083
11742TIP3   OH256640   6.274   1.354   4.504 -0.1274 -0.0477  0.0071
11742TIP3    H156641   6.243   1.281   4.559  2.7566 -0.6338  0.9970
11742TIP3    H256642   6.287   1.314   4.418 -0.3502 -0.2254  0.0533
11743TIP3   OH256643   0.150   3.784  14.606 -0.0174  0.3024  0.6174
11743TIP3    H156644   0.176   3.712  14.663 -2.9194 -0.5606  1.0145
11743TIP3    H256645   0.070   3.818  14.645 -0.9074  1.1305 -1.7501
11744TIP3   OH256646   0.762   2.618   4.907  0.3977  0.6117 -0.0100
11744TIP3    H156647   0.814   2.537   4.903 -0.1440  0.1988  0.9390
11744TIP3    H256648   0.794   2.670   4.833  2.4228  0.5383  0.7471
11745TIP3   OH256649   0.315   3.708   4.743 -0.1685 -0.8658  0.0969
11745TIP3    H156650   0.331   3.730   4.651  1.4506 -1.6214  0.1715
11745TIP3    H256651   0.327   3.790   4.790  1.2696 -0.9099 -0.1384
11746TIP3   OH256652   6.012   6.699   5.354  0.3418  0.7441 -0.2111
11746TIP3    H156653   5.991   6.661   5.440 -0.6512  0.5139 -0.5471
11746TIP3    H256654   5.951   6.657   5.294 -0.2455  2.2983 -0.7311
11747TIP3   OH256655   5.758   0.403   3.787 -0.5446 -0.4133 -0.1111
11747TIP3    H156656   5.716   0.470   3.733  1.4390 -1.4474 -3.1576
11747TIP3    H256657   5.850   0.405   3.762  0.0585 -2.5352  1.6210
11748TIP3   OH256658   2.759   1.231   4.682  0.5152  0.0955  0.0951
11748TIP3    H156659   2.717   1.314   4.705  1.6464  0.6021  0.3906
11748TIP3    H256660   2.742   1.174   4.756  2.9941  1.2943  1.7095
11749TIP3   OH256661   5.787   1.431   5.636 -0.0400  0.2819 -0.5155
11749TIP3    H156662   5.768   1.428   5.730  2.2739 -0.5448  0.0110
11749TIP3    H256663   5.706   1.402   5.594 -0.9774  0.1931  1.2436
11750TIP3   OH256664   6.322   0.018  12.638  0.0247  0.0821 -0.1255
11750TIP3    H156665   6.406   0.062  12.642  0.5073 -0.8052 -0.2246
11750TIP3    H256666   6.342  -0.074  12.658 -1.0968  0.0856  1.2460
11751TIP3   OH256667   1.537   5.357   2.557 -0.0299 -0.0399  0.2789
11751TIP3    H156668   1.607   5.315   2.608  1.5441  3.7599  1.5987
11751TIP3    H256669   1.571   5.358   2.467  0.0621 -1.1498  0.2867
11752TIP3   OH256670   3.414   1.502  15.704 -0.4079  0.7832 -0.0988
11752TIP3    H156671   3.483   1.498  15.638  0.7935 -0.8308  1.1725
11752TIP3    H256672   3.445   1.568  15.767 -0.9821  1.4536 -0.4996
11753TIP3   OH256673   3.017   4.582   1.235  0.2371 -0.0371  0.1859
11753TIP3    H156674   3.009   4.677   1.241  1.7574  0.2867 -1.7786
11753TIP3    H256675   2.988   4.549   1.320 -0.6835  2.1366  0.7683
11754TIP3   OH256676   4.882   3.355   3.032  0.1401 -0.2152 -0.5353
11754TIP3    H156677   4.930   3.372   2.952 -2.1587 -1.7511 -2.3943
11754TIP3    H256678   4.925   3.279   3.071  1.2140  0.4862 -0.3169
11755TIP3   OH256679   3.640   1.398   2.473  0.2333 -0.1428  0.1780
11755TIP3    H156680   3.637   1.307   2.442 -1.0642  0.4869 -1.6987
11755TIP3    H256681   3.577   1.402   2.544 -0.0789 -0.6142 -0.0669
11756TIP3   OH256682   1.582   5.992   4.908  0.4836 -0.2191 -0.1010
11756TIP3    H156683   1.669   5.977   4.871  0.2690 -0.2757 -0.5882
11756TIP3    H256684   1.571   6.087   4.905  0.2087 -0.2660 -0.7907
11757TIP3   OH256685   2.656   4.089   5.120  0.2943  0.1344  0.3491
11757TIP3    H156686   2.625   4.179   5.105  0.1559 -0.1903 -1.4897
11757TIP3    H256687   2.669   4.053   5.032 -1.5198 -2.2989  0.9935
11758TIP3   OH256688   3.548   1.659   5.722 -0.7475  0.1967  0.1981
11758TIP3    H156689   3.475   1.716   5.741  0.4623  1.9613 -0.1897
11758TIP3    H256690   3.539   1.639   5.629 -0.2073  1.2599 -0.0997
11759TIP3   OH256691   3.980   6.749  12.138  0.0778 -0.1327  0.1605
11759TIP3    H156692   4.053   6.763  12.199  0.1020 -2.1944  0.6554
11759TIP3    H256693   3.996   6.812  12.068  0.6533  1.5545  1.7200
11760TIP3   OH256694   6.279   3.318   5.208 -0.0692 -0.2859  0.6501
11760TIP3    H156695   6.244   3.246   5.156 -1.2065  0.3540  0.5013
11760TIP3    H256696   6.347   3.357   5.152 -0.0994 -0.6636  0.3508
11761TIP3   OH256697   4.081   4.321   1.499 -0.0815  0.4224  0.6400
11761TIP3    H156698   3.995   4.318   1.540 -0.3621  1.4762  0.1449
11761TIP3    H256699   4.112   4.410   1.513  1.2849 -0.1385  1.4840
11762TIP3   OH256700   1.029   1.474  11.177 -0.3679 -0.0674 -0.2695
11762TIP3    H156701   1.028   1.414  11.102 -0.1000 -0.3205 -0.0776
11762TIP3    H256702   0.938   1.479  11.205 -0.6978  1.1290 -1.4636
11763TIP3   OH256703   3.453   5.351   2.934  0.3547  0.2622 -0.5965
11763TIP3    H156704   3.503   5.428   2.958 -0.2199  0.0600  1.5457
11763TIP3    H256705   3.411   5.324   3.016 -1.1685 -1.0675 -1.7472
11764TIP3   OH256706   0.615   1.148  14.120 -0.0578  0.5806  0.5338
11764TIP3    H156707   0.652   1.060  14.110 -1.1239 -0.1707  2.5621
11764TIP3    H256708   0.626   1.167  14.214 -0.2891  2.4195  0.2128
11765TIP3   OH256709   2.854   6.304  11.823 -0.4185  0.4674  0.7883
11765TIP3    H156710   2.864   6.323  11.916 -0.3077 -0.2023  0.9192
11765TIP3    H256711   2.760   6.300  11.809 -0.4398 -0.8085  1.1743
11766TIP3   OH256712   0.646   5.480  11.135 -0.5475 -0.2890  0.3084
11766TIP3    H156713   0.604   5.395  11.141 -0.1041 -0.5346  0.0156
11766TIP3    H256714   0.666   5.491  11.042  1.4689 -0.9086  0.6009
11767TIP3   OH256715   0.195   2.490   3.989 -0.3401  0.1027  0.3205
11767TIP3    H156716   0.277   2.538   3.999  1.4772 -2.8285  0.4600
11767TIP3    H256717   0.199   2.454   3.901 -0.8277 -1.1692  0.8029
11768TIP3   OH256718   1.760   0.730  13.995 -0.3364 -0.2756 -0.4893
11768TIP3    H156719   1.730   0.642  14.016  1.7534 -1.0580 -0.5166
11768TIP3    H256720   1.845   0.737  14.038  0.2039  1.1910 -1.7128
11769TIP3   OH256721   5.555   1.508  14.956 -0.0432  0.3303 -0.4794
11769TIP3    H156722   5.482   1.494  15.017 -0.3726 -0.5597 -1.0559
11769TIP3    H256723   5.515   1.551  14.880 -0.0471 -0.4758 -0.9419
11770TIP3   OH256724   2.263   1.296  10.783 -0.1002  0.4465  0.4473
11770TIP3    H156725   2.277   1.366  10.720  0.7414  1.3519  1.5937
11770TIP3    H256726   2.271   1.216  10.732 -1.3201  1.1592 -0.9418
11771TIP3   OH256727   4.423   4.262   5.575 -0.0860  0.1008 -0.0197
11771TIP3    H156728   4.329   4.263   5.592  0.1182  0.8365  1.1621
11771TIP3    H256729   4.441   4.173   5.545 -1.3081  0.2208 -1.2096
11772TIP3   OH256730   1.383   4.461   3.751 -0.5982  0.5235 -0.2088
11772TIP3    H156731   1.462   4.465   3.805 -0.0340 -0.2028 -0.9558
11772TIP3    H256732   1.408   4.506   3.670 -0.9552  0.3036 -0.4425
11773TIP3   OH256733   5.931   3.647   3.311 -0.0452  0.1058  0.4729
11773TIP3    H156734   5.943   3.645   3.405 -0.7669  2.2449  0.6706
11773TIP3    H256735   6.013   3.682   3.276 -0.0647  0.0652  0.3851
11774TIP3   OH256736   5.943   2.488  11.947 -0.3429  0.1529  0.0532
11774TIP3    H156737   5.951   2.483  11.852 -1.6065 -1.8409 -0.0148
11774TIP3    H256738   5.853   2.516  11.963 -0.4121 -0.3592  0.6393
11775TIP3   OH256739   3.969   0.119  14.204 -0.1691 -0.3448 -0.4269
11775TIP3    H156740   3.904   0.189  14.204 -1.3992 -1.4673 -0.1997
11775TIP3    H256741   4.052   0.164  14.219 -0.5805  1.3724 -2.7046
11776TIP3   OH256742   3.582   3.032  12.376 -0.6565  0.4072 -0.8054
11776TIP3    H156743   3.520   3.014  12.305  1.2050 -0.1930 -2.3471
11776TIP3    H256744   3.619   3.118  12.355  1.6817 -0.8010 -2.0012
11777TIP3   OH256745   5.186   4.049   3.758  0.0116 -0.1449 -0.2845
11777TIP3    H156746   5.251   4.111   3.791  0.0088 -0.3653  0.1444
11777TIP3    H256747   5.231   3.964   3.758 -0.4113 -0.3796  0.4562
11778TIP3   OH256748   1.017   2.613   2.038  0.1364 -0.2202 -0.1987
11778TIP3    H156749   0.987   2.689   1.988 -1.0960 -0.3441  0.3078
11778TIP3    H256750   1.083   2.572   1.982  1.4537  1.6805 -0.1080
11779TIP3   OH256751   3.815   4.861  15.840  0.2508 -0.1892  0.4173
11779TIP3    H156752   3.885   4.925  15.851 -0.3705  1.1091 -2.1940
11779TIP3    H256753   3.860   4.778  15.822  1.0655 -0.0512  1.7082
11780TIP3   OH256754   2.305   0.981  11.596 -0.1550  0.3435  0.1092
11780TIP3    H156755   2.371   1.008  11.660 -0.4377 -1.6562  1.3426
11780TIP3    H256756   2.306   1.050  11.530  0.9776  1.9091  1.6658
11781TIP3   OH256757   2.570   2.121  10.542 -0.2072  0.0080 -0.1747
11781TIP3    H156758   2.478   2.122  10.565 -0.2995  0.4148 -0.5331
11781TIP3    H256759   2.607   2.197  10.588 -0.3246  0.6177 -1.0497
11782TIP3   OH256760   1.987   1.871   0.578 -0.8729  0.3334 -0.3351
11782TIP3    H156761   2.078   1.841   0.578 -1.0326 -0.1673 -0.0907
11782TIP3    H256762   1.975   1.912   0.663 -1.1020 -0.3317 -0.0366
11783TIP3   OH256763   0.935   3.328   5.411  0.4074  0.2289  0.3164
11783TIP3    H156764   0.949   3.255   5.471  1.5468  1.6025  1.8136
11783TIP3    H256765   0.863   3.378   5.450  0.1729  0.3476 -0.2543
11784TIP3   OH256766   0.875   3.997  17.260  0.2298 -0.4721  0.3843
11784TIP3    H156767   0.792   3.957  17.236  0.8372 -1.3940 -0.2249
11784TIP3    H256768   0.909   4.033  17.178  1.2468 -1.6345  0.2771
11785TIP3   OH256769   3.708   3.895   5.034  0.1287 -0.2248 -0.1017
11785TIP3    H156770   3.741   3.839   4.964 -0.0721  0.2059 -0.5476
11785TIP3    H256771   3.623   3.926   5.003  0.4983  0.8095 -0.1414
11786TIP3   OH256772   0.803   3.306   2.887 -0.0121 -0.5190  0.3419
11786TIP3    H156773   0.815   3.401   2.898 -0.7079 -0.3651 -0.1525
11786TIP3    H256774   0.852   3.267   2.959 -1.3531  0.3013  1.7648
11787TIP3   OH256775   6.338   1.619   2.983  0.2616 -0.2153  0.0991
11787TIP3    H156776   6.282   1.696   2.990  1.3874  0.6979 -0.5663
11787TIP3    H256777   6.416   1.641   3.035  0.9495 -0.5613 -0.7657
11788TIP3   OH256778   2.252   2.552   5.592  0.0382  0.5234  0.2618
11788TIP3    H156779   2.268   2.578   5.683  1.1022 -0.8250  0.4842
11788TIP3    H256780   2.338   2.556   5.550 -0.4149  0.9843 -0.6672
11789TIP3   OH256781   3.634   2.930  14.970  0.3071  0.2047 -0.0003
11789TIP3    H156782   3.588   2.985  15.034  1.1560  1.8415 -0.7281
11789TIP3    H256783   3.601   2.959  14.885  0.4677 -0.7250 -0.3931
11790TIP3   OH256784   4.997   0.124  12.838 -0.1126 -0.0911  0.1319
11790TIP3    H156785   5.064   0.057  12.851  0.6019  0.3442 -1.0860
11790TIP3    H256786   5.047   0.206  12.831 -0.4050 -0.0508 -3.5268
11791TIP3   OH256787   1.716   6.616   1.179 -0.2580 -0.0576  0.2957
11791TIP3    H156788   1.800   6.656   1.202  0.5044  0.1737 -2.5527
11791TIP3    H256789   1.734   6.523   1.175 -0.3138 -0.0671  0.2728
11792TIP3   OH256790   2.416   1.908   2.841  0.4290 -0.1264  0.2306
11792TIP3    H156791   2.352   1.882   2.908 -2.9376 -1.3686 -3.0731
11792TIP3    H256792   2.424   1.831   2.785  3.5110  0.6761 -0.6022
11793TIP3   OH256793   5.221   0.175  14.819  0.4066 -0.5408 -0.1593
11793TIP3    H156794   5.270   0.242  14.773  0.1410  0.5360  1.0666
11793TIP3    H256795   5.182   0.122  14.750 -1.6189  2.1713 -1.2725
11794TIP3   OH256796   5.210   5.627  14.259  0.2533 -0.2009  0.2063
11794TIP3    H156797   5.117   5.604  14.257  0.1259  0.3435 -0.8505
11794TIP3    H256798   5.245   5.578  14.333 -0.4445 -2.0932 -0.6473
11795TIP3   OH256799   6.454   4.282  16.016 -0.1547 -0.2992  0.0904
11795TIP3    H156800   6.547   4.299  16.026  0.0299  0.7236 -2.6141
11795TIP3    H256801   6.449   4.190  15.990 -0.1757 -1.1042  2.6869
11796TIP3   OH256802   1.054   1.258  17.184  0.4663 -0.4237  0.1747
11796TIP3    H156803   0.978   1.312  17.165  0.2157 -0.0444  2.0472
11796TIP3    H256804   1.067   1.267  17.278  2.6149 -0.7633 -0.0249
11797TIP3   OH256805   5.372   0.067   5.599  0.0560 -0.4399  0.0209
11797TIP3    H156806   5.305   0.135   5.604  0.5727  0.2088 -1.4705
11797TIP3    H256807   5.375   0.029   5.688 -1.0044  0.7280  0.5746
11798TIP3   OH256808   6.328   1.983   2.513  0.1378 -0.4625  0.0404
11798TIP3    H156809   6.346   2.077   2.507 -0.6194 -0.2458  0.9655
11798TIP3    H256810   6.389   1.943   2.450  0.1984  0.6708 -0.6465
11799TIP3   OH256811   3.896   4.941   1.324  0.5588  0.0548  0.3286
11799TIP3    H156812   3.933   4.872   1.379  1.5807  0.2544 -0.0897
11799TIP3    H256813   3.970   4.998   1.303  0.0458  0.3972 -0.6439
11800TIP3   OH256814   2.297   4.493  13.291  0.3441  0.3959  0.3186
11800TIP3    H156815   2.292   4.398  13.282 -0.2592  0.4524  0.0329
11800TIP3    H256816   2.270   4.527  13.206 -1.4394  0.8571  1.0225
11801TIP3   OH256817   4.505   5.474  17.360  0.4154 -0.0903 -0.3211
11801TIP3    H156818   4.497   5.435  17.273  0.3830 -2.1438  0.5592
11801TIP3    H256819   4.422   5.522  17.372  0.3017 -0.0272 -1.2886
11802TIP3   OH256820   3.894   5.228   3.819  0.0232  0.5717 -0.4920
11802TIP3    H156821   3.897   5.165   3.891 -1.5188  1.0329  0.0063
11802TIP3    H256822   3.961   5.197   3.757  2.2766  0.8496  1.6372
11803TIP3   OH256823   3.915   1.084   2.480 -0.4914  0.2606 -0.3096
11803TIP3    H156824   3.821   1.067   2.467 -0.3680 -0.6492 -0.0700
11803TIP3    H256825   3.959   1.007   2.445  0.3093  1.5217 -2.2214
11804TIP3   OH256826   5.856   4.357   3.700  0.0118  0.0704 -0.8304
11804TIP3    H156827   5.892   4.390   3.618 -0.5252  2.8539 -0.0228
11804TIP3    H256828   5.929   4.361   3.762 -0.0380 -0.3964 -0.7344
11805TIP3   OH256829   1.217   3.681   4.786 -0.1331  0.1705  0.1489
11805TIP3    H156830   1.124   3.663   4.771  0.2605 -2.4744  0.4024
11805TIP3    H256831   1.246   3.724   4.705 -1.2609 -0.3501 -0.5664
11806TIP3   OH256832   4.827   5.341  13.908 -0.8923 -1.1413  0.3284
11806TIP3    H156833   4.869   5.420  13.875 -2.2935 -0.6679 -0.3975
11806TIP3    H256834   4.858   5.271  13.850 -0.0990 -1.0428  0.6209
11807TIP3   OH256835   1.514   3.320  11.506  0.5740  0.9120 -0.1270
11807TIP3    H156836   1.609   3.312  11.506  0.7550  1.9279  2.8252
11807TIP3    H256837   1.498   3.414  11.504 -0.3064  0.7983  0.9162
11808TIP3   OH256838   5.627   2.839   2.185 -0.3626  0.0257  0.1481
11808TIP3    H156839   5.575   2.907   2.228  0.9582  1.4289 -0.3979
11808TIP3    H256840   5.610   2.760   2.237 -1.7316  0.8103  0.9568
11809TIP3   OH256841   2.075   3.661  13.530 -0.3233  0.5398  0.1196
11809TIP3    H156842   2.026   3.684  13.451  0.4770  0.7949 -0.3106
11809TIP3    H256843   2.026   3.588  13.568 -0.7596  0.4710 -0.5630
11810TIP3   OH256844   2.958   3.662   4.224 -0.4782 -0.1856  0.6339
11810TIP3    H156845   3.047   3.634   4.243 -0.3880 -0.2660  0.1072
11810TIP3    H256846   2.959   3.757   4.238  0.4433  0.3040 -2.0174
11811TIP3   OH256847   1.930   0.979   4.013  0.5829  0.3647  0.3901
11811TIP3    H156848   1.862   0.949   3.953  1.4914  0.4642 -0.7122
11811TIP3    H256849   1.952   0.903   4.066 -1.5462  0.7295  1.9587
11812TIP3   OH256850   2.413   4.130  12.874 -0.1524 -0.3404 -0.0466
11812TIP3    H156851   2.320   4.152  12.866  0.0580  0.4519 -0.4735
11812TIP3    H256852   2.443   4.118  12.784  0.2519 -0.1661  0.0597
11813TIP3   OH256853   3.146   5.386   5.764 -0.7470 -0.7102 -0.6891
11813TIP3    H156854   3.068   5.405   5.712 -0.0649  1.0083 -1.1675
11813TIP3    H256855   3.116   5.393   5.855 -1.1188  0.2105 -0.8628
11814TIP3   OH256856   0.595   6.510   4.672  0.3325 -0.9625  0.0947
11814TIP3    H156857   0.568   6.598   4.645 -1.1914 -1.0721  1.1392
11814TIP3    H256858   0.574   6.454   4.598  0.5393 -0.5786 -0.2613
11815TIP3   OH256859   4.870   6.284   5.472  0.1929 -0.0452  0.7178
11815TIP3    H156860   4.832   6.289   5.384  0.5842  1.7079  0.6110
11815TIP3    H256861   4.878   6.376   5.500  0.8725 -0.5370  2.2374
11816TIP3   OH256862   3.465   5.757  14.611  0.2099  0.2426 -0.0356
11816TIP3    H156863   3.534   5.792  14.668  0.3632 -1.2026  0.7078
11816TIP3    H256864   3.390   5.744  14.669  1.0961 -3.5417  0.5320
11817TIP3   OH256865   2.562   4.712   2.183 -0.0605 -0.3005 -0.8148
11817TIP3    H156866   2.618   4.725   2.106  1.1966 -0.6538  0.0121
11817TIP3    H256867   2.622   4.717   2.258 -0.7598 -2.6999 -0.0068
11818TIP3   OH256868   1.667   1.518   2.015 -0.2066  0.3509 -0.0786
11818TIP3    H156869   1.593   1.578   2.003  0.0796  1.0215  1.2608
11818TIP3    H256870   1.681   1.516   2.110 -1.1266 -3.0150  0.1102
11819TIP3   OH256871   5.357   0.925   1.828  0.5276  0.3468  0.7601
11819TIP3    H156872   5.315   0.843   1.855  1.7016  0.1333  2.1343
11819TIP3    H256873   5.331   0.989   1.895 -2.6190  1.9349 -1.7582
11820TIP3   OH256874   0.829   5.319   3.143  0.4443 -0.2413  0.1050
11820TIP3    H156875   0.859   5.249   3.085  0.4808 -0.2105  0.0869
11820TIP3    H256876   0.790   5.274   3.217 -1.6678 -0.3204 -0.9719
11821TIP3   OH256877   2.944   1.702  13.191 -0.0656  0.4922  0.2975
11821TIP3    H156878   2.868   1.749  13.227 -1.8054  0.5587 -3.1064
11821TIP3    H256879   3.003   1.694  13.266 -2.4778  2.3049  2.6410
11822TIP3   OH256880   1.424   1.840  17.119 -0.4682  0.6757 -0.1381
11822TIP3    H156881   1.338   1.883  17.119 -1.1416 -0.6162  0.2272
11822TIP3    H256882   1.445   1.829  17.212 -1.1207 -1.2660 -0.1695
11823TIP3   OH256883   3.545   5.771  10.797 -0.4782  0.0591  0.5318
11823TIP3    H156884   3.570   5.756  10.888  0.0042 -2.0751  0.1006
11823TIP3    H256885   3.467   5.716  10.784 -0.9796  0.8933 -0.1739
11824TIP3   OH256886   3.348   6.059  14.195  0.1614  0.3647 -0.1929
11824TIP3    H156887   3.262   6.028  14.222  0.3258 -0.0910 -0.1940
11824TIP3    H256888   3.398   5.980  14.176  0.1703  0.6520 -1.4839
11825TIP3   OH256889   5.910   6.150   1.584 -0.0214 -0.1368 -0.3025
11825TIP3    H156890   5.961   6.228   1.563 -1.2822  1.2435  1.4864
11825TIP3    H256891   5.904   6.150   1.679 -0.6009 -2.0928 -0.2910
11826TIP3   OH256892   0.178   1.034   4.110  0.0260  0.0950 -0.2608
11826TIP3    H156893   0.264   1.054   4.147  0.0626 -1.7479  0.8050
11826TIP3    H256894   0.196   0.967   4.044 -0.5242 -0.0117 -0.3055
11827TIP3   OH256895   5.738   0.035  12.800  0.0886 -0.1123 -0.2225
11827TIP3    H156896   5.726   0.118  12.753 -0.8948 -0.2887 -0.3070
11827TIP3    H256897   5.831   0.014  12.788 -0.0805 -0.0379 -1.9241
11828TIP3   OH256898   1.216   5.189  15.838  0.0245  0.0172  0.4417
11828TIP3    H156899   1.139   5.171  15.893  0.5499 -0.3044  1.0914
11828TIP3    H256900   1.289   5.192  15.900  0.7540 -1.1251 -0.3154
11829TIP3   OH256901   6.288   0.364  12.695  0.0978 -0.1039  0.1079
11829TIP3    H156902   6.289   0.308  12.618 -0.5106 -1.4457  1.0502
11829TIP3    H256903   6.377   0.401  12.698  0.4103 -0.7546 -0.6964
11830TIP3   OH256904   6.554   5.989  11.251 -0.0927 -0.5267  1.0681
11830TIP3    H156905   6.538   5.909  11.302 -1.0016 -0.8157  0.3538
11830TIP3    H256906   6.472   6.006  11.205  0.1545  0.7149  1.0429
11831TIP3   OH256907   4.071   4.294   3.220  0.3629  0.7659  0.2811
11831TIP3    H156908   4.002   4.311   3.156  0.3694  0.9320  0.3171
11831TIP3    H256909   4.130   4.233   3.177 -0.4541 -0.3524  0.6840
11832TIP3   OH256910   6.300   3.364   2.914  0.0070  0.2684 -0.2439
11832TIP3    H156911   6.384   3.319   2.902 -0.3523 -0.1476 -1.3706
11832TIP3    H256912   6.279   3.399   2.827 -1.3393 -0.2815 -0.1662
11833TIP3   OH256913   1.642   3.314   3.991  0.1699  0.2099 -0.4275
11833TIP3    H156914   1.649   3.396   3.941 -1.0474  1.0033  0.6338
11833TIP3    H256915   1.728   3.303   4.031  0.3854  0.9176 -0.6712
11834TIP3   OH256916   5.891   6.082  13.340  0.0514  0.1376 -0.2781
11834TIP3    H156917   5.902   6.157  13.281  0.3821  0.0168 -0.3728
11834TIP3    H256918   5.797   6.064  13.339 -0.0682  0.7284 -0.0339
11835TIP3   OH256919   5.744   0.044  15.819  0.1695 -0.0676 -0.4900
11835TIP3    H156920   5.798  -0.032  15.845 -2.0101 -1.1697  1.2096
11835TIP3    H256921   5.779   0.116  15.870  0.1087 -0.7564  0.5630
11836TIP3   OH256922   5.460   3.615  11.287  0.2960  0.0851 -0.2658
11836TIP3    H156923   5.542   3.574  11.316 -0.0314 -1.2651 -1.1578
11836TIP3    H256924   5.392   3.572  11.338  0.0813  0.7615  0.0266
11837TIP3   OH256925   2.458   0.496  17.140 -0.0396  0.4052 -0.3603
11837TIP3    H156926   2.417   0.410  17.129  0.1800  0.1630  0.5926
11837TIP3    H256927   2.530   0.497  17.077 -1.0451  0.5567 -1.5436
11838TIP3   OH256928   1.171   5.909   0.394  0.0327  0.1362 -0.2863
11838TIP3    H156929   1.217   5.948   0.319 -0.0248  0.8545  0.0510
11838TIP3    H256930   1.109   5.976   0.422  0.9307  0.3843  1.2129
11839TIP3   OH256931   2.509   5.709  14.992  0.3818 -0.4710 -0.8469
11839TIP3    H156932   2.470   5.640  14.939 -1.1083 -0.1468 -0.2047
11839TIP3    H256933   2.568   5.663  15.051 -1.5984 -1.4038  0.4956
11840TIP3   OH256934   0.977   3.376  10.774  0.4513 -0.4308 -0.4273
11840TIP3    H156935   1.042   3.446  10.772  0.2378 -0.2399 -1.5179
11840TIP3    H256936   1.016   3.305  10.724  0.7257 -1.1689  0.7890
11841TIP3   OH256937   4.758   3.969  13.449 -0.4322  0.3094 -0.3231
11841TIP3    H156938   4.672   3.999  13.479 -1.0481 -1.0786 -0.6285
11841TIP3    H256939   4.817   4.042  13.469 -1.9947  2.1174 -1.9409
11842TIP3   OH256940   1.002   5.985   3.020  0.2029 -0.6209  0.3256
11842TIP3    H156941   1.083   5.981   3.070  0.2718 -0.3311  0.2405
11842TIP3    H256942   0.938   6.023   3.080  0.4116  0.2015  0.0370
11843TIP3   OH256943   4.876   6.139  12.352  0.3314  0.0285  0.7199
11843TIP3    H156944   4.832   6.120  12.435  0.4904  2.3153  1.3980
11843TIP3    H256945   4.871   6.234  12.344  2.2896  0.0542 -0.7997
11844TIP3   OH256946   3.378   0.463   4.336 -0.0750 -0.1859 -1.0400
11844TIP3    H156947   3.317   0.451   4.263 -0.9898 -1.0234 -0.1735
11844TIP3    H256948   3.358   0.549   4.370  0.2972  0.1761 -1.7059
11845TIP3   OH256949   5.647   4.889  14.979 -0.7704  0.3690 -0.4635
11845TIP3    H156950   5.585   4.816  14.977 -0.5601  0.1715  0.1065
11845TIP3    H256951   5.700   4.873  15.057  0.1453  0.4156 -1.0609
11846TIP3   OH256952   5.529   2.108  14.508  0.5171 -0.0723 -0.2048
11846TIP3    H156953   5.479   2.048  14.564 -0.2546  0.7236  0.0002
11846TIP3    H256954   5.599   2.055  14.471  0.6382 -0.7916  0.9886
11847TIP3   OH256955   5.373   4.875   0.450  0.0605 -0.4764  0.4482
11847TIP3    H156956   5.406   4.810   0.387  1.8848  0.2229  0.6290
11847TIP3    H256957   5.345   4.949   0.396 -0.7140 -0.8379  0.3338
11848TIP3   OH256958   2.498   3.258   0.285 -0.1496 -0.1335 -0.1552
11848TIP3    H156959   2.517   3.242   0.377 -0.6517 -1.0222 -0.1862
11848TIP3    H256960   2.580   3.290   0.248  0.3731 -0.8323  0.3748
11849TIP3   OH256961   1.529   4.462   0.051  0.3901  0.4377 -0.1591
11849TIP3    H156962   1.615   4.480   0.013  0.5672  0.5308  0.2921
11849TIP3    H256963   1.485   4.408  -0.016  1.3138 -0.8090  0.1951
11850TIP3   OH256964   5.812   4.547  14.802 -0.1133 -0.1894 -0.2406
11850TIP3    H156965   5.863   4.477  14.843  0.0041 -1.4680 -2.4036
11850TIP3    H256966   5.853   4.628  14.833  1.2413 -1.1272  0.5172
11851TIP3   OH256967   5.265   6.501  10.705  0.0279 -0.2640  0.4678
11851TIP3    H156968   5.262   6.415  10.745  1.6574 -0.5665 -0.0047
11851TIP3    H256969   5.311   6.556  10.768  0.6897 -0.2181 -0.0477
11852TIP3   OH256970   6.751   2.913   2.684 -0.3200 -0.4940 -0.2774
11852TIP3    H156971   6.752   2.937   2.591 -0.9637 -0.0084 -0.1704
11852TIP3    H256972   6.842   2.914   2.710 -0.2685  1.5291 -0.3716
11853TIP3   OH256973   6.201   1.534  14.089  0.1427 -0.8151  0.1784
11853TIP3    H156974   6.154   1.561  14.010  0.5310  0.2654  0.3061
11853TIP3    H256975   6.284   1.501  14.058  0.3369 -0.2923  0.1347
11854TIP3   OH256976   1.282   4.501   6.637 -0.1863 -0.4601  0.8245
11854TIP3    H156977   1.372   4.520   6.664 -0.4487  2.3556  0.0576
11854TIP3    H256978   1.230   4.511   6.717  0.0218 -0.6380  0.9826
11855TIP3   OH256979   0.729   0.011   1.164 -0.3110  0.2055  0.2010
11855TIP3    H156980   0.635  -0.009   1.166 -0.5031  1.0250 -0.1066
11855TIP3    H256981   0.733   0.099   1.126  0.6529 -0.2081 -0.6814
11856TIP3   OH256982   1.446   4.722  11.076  0.7820 -0.2627 -0.1079
11856TIP3    H156983   1.529   4.679  11.098  0.3178 -0.8891  0.4795
11856TIP3    H256984   1.470   4.794  11.019  1.8820  0.3571  1.0837
11857TIP3   OH256985   4.176   0.468  10.908 -0.4305 -0.3105 -0.3993
11857TIP3    H156986   4.171   0.556  10.946 -3.2941 -0.0542 -1.1331
11857TIP3    H256987   4.265   0.439  10.926  0.8563  3.0094 -0.7852
11858TIP3   OH256988   2.352   1.505   0.387 -0.0636 -0.6521  0.3914
11858TIP3    H156989   2.266   1.463   0.379  0.7747 -2.2028 -1.5988
11858TIP3    H256990   2.414   1.432   0.383  1.3757  0.3841  2.2416
11859TIP3   OH256991   4.810   2.814  15.335 -0.0040 -0.0295  0.2172
11859TIP3    H156992   4.863   2.756  15.280 -1.4301  1.1348 -2.6250
11859TIP3    H256993   4.871   2.883  15.363  0.8062 -0.7521  0.2612
11860TIP3   OH256994   0.101   6.047  14.399 -0.4085 -0.7465 -0.0361
11860TIP3    H156995   0.108   6.124  14.344  1.0845 -0.3035  0.7254
11860TIP3    H256996   0.185   6.002  14.389 -0.7769 -1.5885  0.5145
11861TIP3   OH256997   2.044   3.619  14.751 -0.6667  0.1157 -0.0703
11861TIP3    H156998   2.026   3.633  14.844 -0.2791  0.6908 -0.0809
11861TIP3    H256999   2.099   3.693  14.725 -0.6186 -0.1383 -0.7140
11862TIP3   OH257000   1.359   4.163  13.398  0.3506  0.9322  0.7980
11862TIP3    H157001   1.350   4.166  13.303 -0.3741  0.9975  0.8566
11862TIP3    H257002   1.274   4.130  13.429  0.1585  2.0000  1.4823
11863TIP3   OH257003   1.696   5.602   4.332 -0.4837  0.0309 -0.6586
11863TIP3    H157004   1.758   5.534   4.358  1.3205  1.4132 -1.1976
11863TIP3    H257005   1.745   5.659   4.272 -2.2914  1.1536 -1.1706
11864TIP3   OH257006   1.002   4.179  16.643 -0.3082 -0.3783 -0.4488
11864TIP3    H157007   1.005   4.084  16.647 -0.8570 -0.3575  0.8971
11864TIP3    H257008   1.013   4.200  16.550  1.0568 -1.6979 -0.6237
11865TIP3   OH257009   6.313   4.629   6.421 -0.4359  0.3559 -0.6954
11865TIP3    H157010   6.379   4.668   6.479 -1.3621 -0.1932  0.7764
11865TIP3    H257011   6.262   4.703   6.389  0.6944  0.7658 -1.6556
11866TIP3   OH257012   1.568   4.746  16.797  0.2568 -0.0029  0.1101
11866TIP3    H157013   1.589   4.821  16.853 -0.6252  0.2657  0.0950
11866TIP3    H257014   1.631   4.751  16.725  0.6462  0.3247  0.4686
11867TIP3   OH257015   1.200   0.795  13.655  0.0977  0.2498  0.1272
11867TIP3    H157016   1.206   0.830  13.566 -0.6209 -0.5474 -0.2503
11867TIP3    H257017   1.191   0.872  13.711  0.7292  0.7657 -0.4706
11868TIP3   OH257018   4.063   6.099   5.739  0.7131  0.3638  0.0258
11868TIP3    H157019   4.023   6.053   5.813  0.2245 -1.0357 -1.0619
11868TIP3    H257020   4.020   6.063   5.661  2.0872  0.8785 -1.0280
11869TIP3   OH257021   2.987   2.396   2.935 -0.3851 -0.1227 -0.0490
11869TIP3    H157022   2.975   2.301   2.941 -1.7179 -0.0563 -1.1306
11869TIP3    H257023   3.057   2.415   2.997  0.5863 -1.9367 -0.5004
11870TIP3   OH257024   0.177   5.162   6.323  0.2772  0.2371  0.3825
11870TIP3    H157025   0.250   5.201   6.371  0.5086  0.5519 -0.2120
11870TIP3    H257026   0.211   5.149   6.235  0.5138 -2.1864  0.7603
11871TIP3   OH257027   5.776   0.779  10.996 -0.6274  0.4368  0.2852
11871TIP3    H157028   5.687   0.774  10.960 -0.4406 -0.9144 -0.0263
11871TIP3    H257029   5.833   0.763  10.921 -0.1279  0.7251  0.5978
11872TIP3   OH257030   4.719   6.006   4.677  0.2225 -0.1217  0.5477
11872TIP3    H157031   4.801   5.962   4.697  0.7559  0.8436  0.5105
11872TIP3    H257032   4.726   6.092   4.719 -1.1412 -0.3510  1.3234
11873TIP3   OH257033   1.077   4.502  17.304  0.1950 -0.1027 -0.2149
11873TIP3    H157034   1.144   4.542  17.250  0.9768 -2.8755 -1.4793
11873TIP3    H257035   1.123   4.437  17.356 -1.4411 -2.3103 -1.3364
11874TIP3   OH257036   5.227   6.331  11.688  0.6702  0.8435 -0.8682
11874TIP3    H157037   5.158   6.282  11.643 -0.0727  0.4549  0.6411
11874TIP3    H257038   5.252   6.274  11.761  2.1602  1.2641 -1.0277
11875TIP3   OH257039   5.752   0.427   2.673 -0.0997  0.6709  0.1885
11875TIP3    H157040   5.805   0.371   2.731 -1.5596 -0.3911  0.5535
11875TIP3    H257041   5.684   0.463   2.730 -2.1332 -1.1256 -0.9745
11876TIP3   OH257042   0.603   2.599  10.645  0.1981 -0.1117  0.1770
11876TIP3    H157043   0.554   2.567  10.569 -0.1996  0.6803  0.0912
11876TIP3    H257044   0.680   2.542  10.650 -0.2996 -0.8234 -0.2007
11877TIP3   OH257045   5.473   1.380  15.325  0.6524 -0.1341 -0.1334
11877TIP3    H157046   5.439   1.418  15.244  0.9952 -0.1695 -0.2955
11877TIP3    H257047   5.395   1.360  15.377  0.4346 -0.0575 -0.4302
11878TIP3   OH257048   6.285   0.690  16.193  0.9967  0.1276  0.9623
11878TIP3    H157049   6.199   0.718  16.225  1.3576  0.6408  1.5065
11878TIP3    H257050   6.347   0.748  16.238  1.6548 -0.5260  0.9105
11879TIP3   OH257051   2.932   3.509  16.871  0.4698  0.2762 -0.2654
11879TIP3    H157052   2.919   3.506  16.966  0.0891  2.3739 -0.2121
11879TIP3    H257053   2.846   3.485  16.835  0.0916  1.1973 -0.0288
11880TIP3   OH257054   0.456   1.391  16.840  0.7372  0.0785  0.3849
11880TIP3    H157055   0.505   1.464  16.877  0.6802 -1.1171  3.0211
11880TIP3    H257056   0.364   1.419  16.844  0.7914  0.2390  0.4858
11881TIP3   OH257057   5.556   4.642   5.773 -0.5768  0.7812  0.0105
11881TIP3    H157058   5.540   4.633   5.867 -1.4119 -1.3279 -0.2814
11881TIP3    H257059   5.640   4.598   5.759 -1.4135 -0.7211 -0.4853
11882TIP3   OH257060   5.398   4.191   0.752  0.5018 -0.3284 -0.2101
11882TIP3    H157061   5.327   4.140   0.714 -0.7035  0.8472  0.3815
11882TIP3    H257062   5.457   4.209   0.679 -0.9245  0.4949 -1.1805
11883TIP3   OH257063   5.707   3.768   0.494  0.1958 -0.4647 -0.5157
11883TIP3    H157064   5.614   3.755   0.473  0.7950 -1.9736 -2.6813
11883TIP3    H257065   5.738   3.828   0.426  0.2072  2.7653  2.1191
11884TIP3   OH257066   2.647   1.323   1.245  0.5663  0.2590 -0.3669
11884TIP3    H157067   2.641   1.240   1.197  1.4277 -0.3222  0.4848
11884TIP3    H257068   2.718   1.370   1.201  0.0188  0.5935 -0.9057
11885TIP3   OH257069   5.020   3.303  15.394  0.6404 -0.1678  0.5085
11885TIP3    H157070   4.940   3.318  15.445  1.0382  1.1973  0.7733
11885TIP3    H257071   5.091   3.317  15.457  1.1147  0.6024 -0.1834
11886TIP3   OH257072   1.051   5.847   3.396  0.5700  0.1558 -0.4960
11886TIP3    H157073   0.956   5.857   3.392  0.7632  2.2618 -0.7978
11886TIP3    H257074   1.071   5.843   3.489  0.2096 -0.1880 -0.4304
11887TIP3   OH257075   1.634   4.930   0.611  0.4031 -0.4819 -0.4505
11887TIP3    H157076   1.605   4.839   0.608  0.0676 -0.3512 -1.7436
11887TIP3    H257077   1.602   4.963   0.695  0.9175 -1.6716  0.2311
11888TIP3   OH257078   2.117   3.385   0.022  0.2137 -0.6833 -0.1440
11888TIP3    H157079   2.171   3.351  -0.049  0.8206  0.2973 -0.1672
11888TIP3    H257080   2.031   3.345   0.007  0.6301 -1.3959 -0.7446
11889TIP3   OH257081   5.025   2.930  11.367 -0.0891  0.1833 -0.0330
11889TIP3    H157082   5.098   2.917  11.307 -1.0313 -0.5894 -1.0677
11889TIP3    H257083   5.036   3.019  11.400  1.3987  0.0233 -0.0311
11890TIP3   OH257084   5.766   2.628   4.713 -0.4686 -0.1660 -0.0023
11890TIP3    H157085   5.788   2.536   4.698 -0.3604 -0.4521  1.6911
11890TIP3    H257086   5.731   2.629   4.802 -1.1909  1.3210 -0.2849
11891TIP3   OH257087   4.360   2.259   3.672 -0.0611 -0.5515  0.1054
11891TIP3    H157088   4.389   2.189   3.614  1.3872  2.2704 -2.9216
11891TIP3    H257089   4.264   2.260   3.661  0.0349 -1.1319 -0.9840
11892TIP3   OH257090   3.866   0.196   1.174 -0.7909 -0.1151  0.4492
11892TIP3    H157091   3.777   0.164   1.164 -0.5716 -0.1981 -1.6592
11892TIP3    H257092   3.882   0.248   1.096  1.5137 -1.3496  0.0019
11893TIP3   OH257093   3.888   2.902  13.171  0.1401 -0.5792  0.0760
11893TIP3    H157094   3.842   2.985  13.157  3.8012  2.3640  3.2852
11893TIP3    H257095   3.938   2.888  13.090 -0.9480 -0.0039 -0.7199
11894TIP3   OH257096   3.208   0.162   4.061 -0.1029 -0.2691  0.0390
11894TIP3    H157097   3.217   0.257   4.071  2.1928 -0.5791  1.5618
11894TIP3    H257098   3.133   0.151   4.001  0.0093  2.4852 -0.7299
11895TIP3   OH257099   3.621   5.345  17.307 -0.7408 -0.2227  0.0659
11895TIP3    H157100   3.653   5.404  17.376  0.3558 -0.3555 -0.3021
11895TIP3    H257101   3.531   5.373  17.291 -0.6176  0.5900  0.7125
11896TIP3   OH257102   0.526   1.295  16.571  0.1465  0.4085  0.1559
11896TIP3    H157103   0.614   1.281  16.607 -0.5383  0.5433  2.0080
11896TIP3    H257104   0.480   1.344  16.640 -1.4412  0.1399 -0.6796
11897TIP3   OH257105   1.035   6.316   1.115 -0.2144 -0.3008 -0.1793
11897TIP3    H157106   1.005   6.258   1.186 -0.4554  2.0799  1.8082
11897TIP3    H257107   1.130   6.320   1.126 -0.3215  0.6497  0.5455
11898TIP3   OH257108   6.446   1.541   4.583 -0.0225  0.5858  0.1205
11898TIP3    H157109   6.389   1.479   4.537 -0.3750  2.2162 -1.7876
11898TIP3    H257110   6.466   1.608   4.518  0.6033  2.3263  1.9877
11899TIP3   OH257111   0.834   3.497  11.806  0.0371  0.3146 -0.3468
11899TIP3    H157112   0.748   3.519  11.771 -0.8881  1.3000  2.3134
11899TIP3    H257113   0.893   3.560  11.764 -0.8926  1.0000 -0.6708
11900TIP3   OH257114   0.079   1.474  13.171 -0.4972  0.1278 -0.0605
11900TIP3    H157115   0.008   1.411  13.156 -1.4488  1.4364 -1.4206
11900TIP3    H257116   0.062   1.508  13.259 -0.9356 -0.3291  0.0364
11901TIP3   OH257117   4.500   1.317   2.861  0.4029 -0.4160 -0.4968
11901TIP3    H157118   4.525   1.324   2.954 -1.2501 -2.0714  0.1481
11901TIP3    H257119   4.581   1.294   2.816  0.8984 -1.4572  0.8560
11902TIP3   OH257120   4.691   2.711   1.347  0.0658  0.7843 -0.6044
11902TIP3    H157121   4.785   2.696   1.331  0.1761 -0.5694  1.0728
11902TIP3    H257122   4.684   2.724   1.441 -1.7592 -2.2508 -0.2008
11903TIP3   OH257123   3.358   4.902   1.731  0.2287 -0.4896 -0.0441
11903TIP3    H157124   3.406   4.931   1.653 -0.3163 -1.1441 -0.6393
11903TIP3    H257125   3.379   4.967   1.798 -1.3999  1.6484 -1.4545
11904TIP3   OH257126   1.453   2.591  16.865  0.3467 -0.2935  0.2171
11904TIP3    H157127   1.499   2.538  16.800  0.6419  0.1759  0.0415
11904TIP3    H257128   1.474   2.551  16.949  1.3505  0.1227  0.1696
11905TIP3   OH257129   4.400   5.370  14.295 -0.3613 -0.0945  0.3286
11905TIP3    H157130   4.324   5.357  14.238  1.3929 -1.2283 -1.8998
11905TIP3    H257131   4.437   5.453  14.265  0.0956 -0.2752  0.3988
11906TIP3   OH257132   6.343   0.088   2.709  0.3586 -0.2250 -0.1957
11906TIP3    H157133   6.278   0.135   2.657  0.4251  0.1925  0.0971
11906TIP3    H257134   6.345  -0.000   2.670  0.0290 -0.0751 -0.5628
11907TIP3   OH257135   3.782   4.922   5.090  0.1930 -0.0683  0.1002
11907TIP3    H157136   3.728   4.994   5.057  0.3020  0.4126  0.9382
11907TIP3    H257137   3.786   4.860   5.018  0.1336  0.7884 -0.6563
11908TIP3   OH257138   3.881   4.836  17.208  0.3720  0.1765  0.4096
11908TIP3    H157139   3.913   4.818  17.120  1.1086  0.7406  0.5405
11908TIP3    H257140   3.928   4.916  17.234 -1.3694  1.2063  0.5230
11909TIP3   OH257141   0.151   1.792  17.309 -0.1431 -0.3368 -0.4959
11909TIP3    H157142   0.158   1.784  17.404  0.5656 -0.3810 -0.5526
11909TIP3    H257143   0.087   1.863  17.296 -1.1144 -1.0996  0.0020
11910TIP3   OH257144   4.684   6.551  15.538  0.8178  0.1836  0.0431
11910TIP3    H157145   4.639   6.624  15.495 -2.5405 -1.2168  0.8758
11910TIP3    H257146   4.751   6.524  15.475  0.0088  1.9300 -1.6684
11911TIP3   OH257147   0.353   1.722   5.232  0.2259  0.2277 -0.1637
11911TIP3    H157148   0.413   1.753   5.301  1.4480 -0.9325 -0.6531
11911TIP3    H257149   0.287   1.671   5.279  2.0804 -2.1192  0.0776
11912TIP3   OH257150   0.785   1.228  16.692  0.0567 -0.0070  0.1233
11912TIP3    H157151   0.847   1.291  16.656  0.0973 -0.6558 -0.9979
11912TIP3    H257152   0.836   1.175  16.752  0.5443 -0.3906 -0.6197
11913TIP3   OH257153   1.854   1.043   6.623  0.1090 -0.6658 -0.3130
11913TIP3    H157154   1.891   1.074   6.540  0.3522  0.7062  0.2910
11913TIP3    H257155   1.760   1.035   6.605 -0.1297  1.4386 -0.2209
11914TIP3   OH257156   1.294   4.293  12.080  0.4285  0.0295 -0.3471
11914TIP3    H157157   1.314   4.298  11.987 -1.1954  0.1792 -0.7015
11914TIP3    H257158   1.199   4.294  12.085  0.3835 -2.6014  1.1673
11915TIP3   OH257159   5.995   1.015  14.879  0.4318 -0.3677  0.1506
11915TIP3    H157160   5.987   1.109  14.895 -0.1219 -0.2843 -0.5458
11915TIP3    H257161   5.996   0.975  14.966 -2.3312  0.0614  0.4767
11916TIP3   OH257162   2.200   0.500   2.631 -0.1177 -0.1637 -0.0083
11916TIP3    H157163   2.291   0.472   2.645  0.2530  0.7022 -0.5963
11916TIP3    H257164   2.168   0.522   2.719  0.1765 -0.6595  0.2272
11917TIP3   OH257165   1.867   6.152   5.480  0.4572  0.1189 -0.3504
11917TIP3    H157166   1.776   6.161   5.506  0.0898 -1.4168 -1.0333
11917TIP3    H257167   1.917   6.187   5.554 -0.6584  1.0314  0.0024
11918TIP3   OH257168   1.728   3.347   5.700 -0.0210 -0.0917 -0.3497
11918TIP3    H157169   1.740   3.429   5.652 -2.5027  0.7030  0.2342
11918TIP3    H257170   1.787   3.354   5.775  2.4643 -0.5037 -2.1217
11919TIP3   OH257171   5.802   5.321  11.924 -0.0103 -0.6080  0.1408
11919TIP3    H157172   5.707   5.319  11.933  0.0533 -0.5332  0.9185
11919TIP3    H257173   5.826   5.412  11.941  0.0524 -0.1958 -1.9135
11920TIP3   OH257174   4.437   5.637   3.926 -0.5674  0.6807 -0.1264
11920TIP3    H157175   4.529   5.610   3.927 -0.8369 -0.4083  2.4478
11920TIP3    H257176   4.413   5.634   3.834  1.4163 -1.0096 -0.6798
11921TIP3   OH257177   1.048   1.715   0.053 -0.2694  0.0578 -0.0731
11921TIP3    H157178   1.033   1.663   0.132 -1.4183 -1.2134 -1.0667
11921TIP3    H257179   1.100   1.658  -0.004  1.5622  1.4038  0.1809
11922TIP3   OH257180   2.890   3.428   0.681  0.0067 -0.8833  0.7099
11922TIP3    H157181   2.834   3.368   0.730 -0.4457 -0.3967  0.7942
11922TIP3    H257182   2.840   3.509   0.675  1.4063  0.1710  2.3495
11923TIP3   OH257183   0.362   5.431  13.211  0.8213 -0.2603  0.2441
11923TIP3    H157184   0.365   5.355  13.152  2.5518 -1.5467  1.8391
11923TIP3    H257185   0.376   5.393  13.298 -0.0038  1.7427  1.3022
11924TIP3   OH257186   6.672   1.654   3.843 -0.7896  0.0747  1.0321
11924TIP3    H157187   6.701   1.619   3.928 -0.4888 -0.5369  0.6885
11924TIP3    H257188   6.736   1.722   3.822 -1.1017  0.5106  1.4851
11925TIP3   OH257189   4.182   5.235  17.157 -0.0931 -0.1638  0.0591
11925TIP3    H157190   4.232   5.216  17.078 -1.7834 -3.3558 -0.3814
11925TIP3    H257191   4.139   5.319  17.138  1.1437  0.1613 -1.5237
11926TIP3   OH257192   1.726   3.343   6.536 -0.2288  0.1768  0.4953
11926TIP3    H157193   1.684   3.386   6.461 -0.5249 -0.5917  0.2103
11926TIP3    H257194   1.729   3.250   6.512  2.3670  0.2930  0.1494
11927TIP3   OH257195   3.155   6.477   5.481 -0.2316  0.1758  0.0337
11927TIP3    H157196   3.112   6.429   5.551 -0.7092  1.1108  0.3983
11927TIP3    H257197   3.111   6.449   5.401 -1.6785  1.2459  0.4131
11928TIP3   OH257198   1.930   1.795   1.450  0.0075  0.0500 -0.0406
11928TIP3    H157199   1.838   1.806   1.477 -0.6611  0.5761 -2.3035
11928TIP3    H257200   1.963   1.727   1.507 -1.7116  0.0618  1.0549
11929TIP3   OH257201   3.225   3.844   6.312 -0.2280 -0.1554  0.0311
11929TIP3    H157202   3.293   3.888   6.261 -0.1511 -0.6479 -0.3015
11929TIP3    H257203   3.273   3.797   6.381 -0.2100 -0.6656 -0.3250
11930TIP3   OH257204   4.463   2.147   2.788  0.1563 -0.2356 -0.3436
11930TIP3    H157205   4.503   2.232   2.775 -0.7923  0.2557 -0.1227
11930TIP3    H257206   4.444   2.143   2.882 -1.2122 -0.0271 -0.5890
11931TIP3   OH257207   0.650   6.027   3.064 -0.2834  0.3507  0.2480
11931TIP3    H157208   0.559   6.009   3.087 -0.8321  2.8065  0.2188
11931TIP3    H257209   0.697   5.946   3.086 -2.2295 -0.4892  1.5599
11932TIP3   OH257210   6.727   3.316  12.326 -0.3391  0.1934  0.3917
11932TIP3    H157211   6.739   3.260  12.402 -1.8036 -0.0905  0.4412
11932TIP3    H257212   6.642   3.358  12.340 -1.6251 -1.3908 -2.0117
11933TIP3   OH257213   4.860   4.963   1.599  0.2556 -0.3118  0.1155
11933TIP3    H157214   4.864   4.968   1.695  1.3967  0.1115  0.0593
11933TIP3    H257215   4.810   5.041   1.573 -0.1161 -0.4642  0.3602
11934TIP3   OH257216   4.938   5.494  13.382  0.7506  0.1965 -0.3348
11934TIP3    H157217   5.031   5.511  13.391  1.1540 -1.2142 -1.5326
11934TIP3    H257218   4.924   5.410  13.426  0.1727  0.0487 -0.7897
11935TIP3   OH257219   2.425   2.088  13.039 -0.1056  0.0440 -0.0646
11935TIP3    H157220   2.500   2.032  13.057 -0.0124  0.1858 -0.0131
11935TIP3    H257221   2.443   2.169  13.087 -0.5170 -0.0985  0.3452
11936TIP3   OH257222   5.537   2.588  12.196  0.7977 -0.3654 -0.2537
11936TIP3    H157223   5.561   2.549  12.280  0.1906 -1.3459 -0.5196
11936TIP3    H257224   5.587   2.538  12.132  0.4221 -0.3489 -0.5595
11937TIP3   OH257225   2.413   2.114   6.699  0.3792 -0.2776 -0.2069
11937TIP3    H157226   2.466   2.074   6.768  0.0105  1.5674  1.2164
11937TIP3    H257227   2.329   2.068   6.703  1.3210 -2.3183 -1.6104
11938TIP3   OH257228   3.672   4.508  17.313  0.3701  0.2976 -0.0653
11938TIP3    H157229   3.637   4.596  17.304  0.0332  0.1997  0.2487
11938TIP3    H257230   3.658   4.486  17.405 -3.0011 -1.4705 -0.8181
11939TIP3   OH257231   2.281   1.065  14.404 -0.3592 -0.1337 -0.6187
11939TIP3    H157232   2.372   1.053  14.432 -1.0431 -1.2270  1.3725
11939TIP3    H257233   2.262   1.157  14.420 -0.0956 -0.2862  0.6839
11940TIP3   OH257234   1.561   6.426  13.982 -0.4584 -0.7415 -0.0171
11940TIP3    H157235   1.626   6.369  14.022  0.7631  0.8535  0.3813
11940TIP3    H257236   1.541   6.491  14.050 -2.2853 -1.0274 -0.2237
11941TIP3   OH257237   2.974   1.864  15.952  0.5577 -0.3708 -0.3795
11941TIP3    H157238   3.002   1.935  16.011 -1.2997 -0.9110  1.2913
11941TIP3    H257239   2.940   1.909  15.875  0.3855  0.5384  0.2067
11942TIP3   OH257240   2.767   6.560   5.220 -0.1453 -0.2315  0.4706
11942TIP3    H157241   2.824   6.485   5.231 -0.0023 -0.1159  0.5151
11942TIP3    H257242   2.825   6.631   5.192 -0.5550 -0.6939 -1.8368
11943TIP3   OH257243   4.327   3.565  14.372  0.9264  0.3712  0.2770
11943TIP3    H157244   4.336   3.470  14.367  0.0053  0.3318 -1.6690
11943TIP3    H257245   4.416   3.597  14.383  1.3137 -0.7014  0.3631
11944TIP3   OH257246   1.063   2.994  12.312  0.1185  0.2395 -0.4846
11944TIP3    H157247   1.011   2.920  12.344 -1.3290  0.7608 -1.5129
11944TIP3    H257248   1.115   2.957  12.241  0.6357 -0.1235  0.0669
11945TIP3   OH257249   1.763   0.467   0.065  0.6866  0.4822  0.0875
11945TIP3    H157250   1.800   0.505  -0.015 -1.2701  0.5000 -0.8770
11945TIP3    H257251   1.716   0.389   0.035 -0.2971  0.6297  1.1716
11946TIP3   OH257252   6.348   4.620   2.111 -0.0283 -0.8204 -0.0535
11946TIP3    H157253   6.419   4.676   2.078 -0.1497  0.3542  1.5283
11946TIP3    H257254   6.392   4.539   2.137  0.3578 -0.9998 -1.2046
11947TIP3   OH257255   1.843   0.057  16.921 -0.5450 -0.1714 -0.8992
11947TIP3    H157256   1.808   0.020  16.840  0.1358 -1.9690 -0.4219
11947TIP3    H257257   1.867   0.146  16.899 -0.8944 -0.4555 -2.5242
11948TIP3   OH257258   0.195   0.913  15.879  0.1725 -0.3559  0.3085
11948TIP3    H157259   0.236   0.841  15.927  0.2375 -0.5461 -0.0367
11948TIP3    H257260   0.269   0.963  15.844  0.1597  0.4557  1.3848
11949TIP3   OH257261   1.024   0.432   4.544  0.2837 -0.1661 -0.3593
11949TIP3    H157262   1.053   0.341   4.544 -0.2409 -0.4409  2.7494
11949TIP3    H257263   1.105   0.482   4.557  0.2836 -0.4539  0.9580
11950TIP3   OH257264   2.752   3.456  15.387 -0.0623  0.3415  0.3384
11950TIP3    H157265   2.707   3.438  15.469 -0.2877  0.5836  0.2666
11950TIP3    H257266   2.764   3.551  15.386  1.5778  0.1792  0.9576
11951TIP3   OH257267   3.722   1.411   5.260 -0.3081 -0.1266 -0.0577
11951TIP3    H157268   3.631   1.396   5.286 -0.4909 -0.0966 -0.6693
11951TIP3    H257269   3.722   1.498   5.220 -0.3367 -0.7789 -1.5306
11952TIP3   OH257270   6.186   5.749   6.842 -0.0308 -0.1323  0.1777
11952TIP3    H157271   6.208   5.823   6.785  1.7538 -1.9206 -1.5960
11952TIP3    H257272   6.266   5.732   6.892 -0.4454 -0.8367  0.6215
11953TIP3   OH257273   1.565   4.068   2.990 -0.0877 -0.0917 -0.1963
11953TIP3    H157274   1.623   3.995   3.012 -0.0521  0.6831  2.6904
11953TIP3    H257275   1.621   4.129   2.943  0.7813 -0.4773  0.3094
11954TIP3   OH257276   6.562   1.187  14.868  0.2545  0.0152 -0.8574
11954TIP3    H157277   6.624   1.124  14.832 -0.9028 -1.0182 -1.0971
11954TIP3    H257278   6.500   1.135  14.918  1.0735  1.2963  1.6539
11955TIP3   OH257279   0.777   5.866   2.711 -0.9688  0.5465 -0.0993
11955TIP3    H157280   0.774   5.957   2.740 -0.7550  0.3634  0.5091
11955TIP3    H257281   0.857   5.831   2.750 -0.5103  0.3742 -1.1659
11956TIP3   OH257282   5.440   2.414  11.645 -0.0615  0.5590  0.0396
11956TIP3    H157283   5.352   2.425  11.609 -0.5867  1.6078  1.5567
11956TIP3    H257284   5.497   2.459  11.582 -0.4003 -1.1150 -1.5650
11957TIP3   OH257285   5.318   5.480   4.726  0.1232  0.1054  0.0016
11957TIP3    H157286   5.310   5.544   4.656  1.7069 -0.5196 -0.8179
11957TIP3    H257287   5.413   5.471   4.739 -0.0172 -2.3057 -0.1835
11958TIP3   OH257288   3.636   5.765  17.225  0.0294 -0.4217  0.7983
11958TIP3    H157289   3.551   5.740  17.261  0.1903 -1.3093  0.5915
11958TIP3    H257290   3.637   5.726  17.137  0.1660  0.6060  0.3340
11959TIP3   OH257291   6.314   1.053  12.316  0.3123 -0.5889  0.5269
11959TIP3    H157292   6.316   0.964  12.353  1.1968  0.0715  2.1704
11959TIP3    H257293   6.249   1.099  12.368  0.4349 -0.0546  0.2107
11960TIP3   OH257294   4.021   2.325  10.873  0.3058  0.0186 -0.3507
11960TIP3    H157295   3.956   2.378  10.919  0.3686 -0.1186 -0.1037
11960TIP3    H257296   3.979   2.240  10.861  0.7268 -0.3221  0.5101
11961TIP3   OH257297   1.376   2.623  17.253 -0.1310 -0.3047  0.4644
11961TIP3    H157298   1.323   2.697  17.224 -0.6635  0.3730  2.9272
11961TIP3    H257299   1.461   2.637  17.212  0.0594  2.2108  1.5409
11962TIP3   OH257300   6.310   4.085  13.285  0.4924 -0.5172  0.3406
11962TIP3    H157301   6.338   4.175  13.297  2.0027 -0.8333 -0.5155
11962TIP3    H257302   6.247   4.069  13.356 -0.6715  1.5149 -0.1626
11963TIP3   OH257303   2.534   3.020  11.861 -0.1517 -0.1811  0.0492
11963TIP3    H157304   2.473   2.970  11.807  0.4740 -1.7724  0.7775
11963TIP3    H257305   2.595   2.956  11.897  0.9298  1.1456  0.7185
11964TIP3   OH257306   2.541   2.647  14.094  0.1291 -0.8194  0.7278
11964TIP3    H157307   2.606   2.646  14.165  0.8237 -2.8704  0.1244
11964TIP3    H257308   2.502   2.560  14.097 -1.8320  0.0074  0.3444
11965TIP3   OH257309   5.327   1.621  14.113 -0.0951 -0.1356  0.2315
11965TIP3    H157310   5.402   1.670  14.080 -0.6587  1.2546  0.9214
11965TIP3    H257311   5.264   1.689  14.139 -0.8279 -1.2192  1.4091
11966TIP3   OH257312   1.688   0.412  10.446  0.1547 -0.7126 -0.6745
11966TIP3    H157313   1.734   0.405  10.363 -0.5402  0.5744 -1.1974
11966TIP3    H257314   1.598   0.433  10.422  0.1045  0.4236  0.3980
11967TIP3   OH257315   4.932   3.201   1.295 -0.1269  0.2777 -0.1116
11967TIP3    H157316   4.865   3.267   1.274 -0.0561  0.8566  1.3738
11967TIP3    H257317   5.004   3.252   1.332  0.5307 -0.5040 -0.3004
11968TIP3   OH257318   3.206   3.156   3.310  0.5047 -0.0384 -0.3278
11968TIP3    H157319   3.157   3.096   3.367 -1.1233  1.2740 -0.2650
11968TIP3    H257320   3.138   3.205   3.264  1.7595  2.0217 -0.0943
11969TIP3   OH257321   1.540   0.039   0.233  0.0342 -0.5762 -0.1584
11969TIP3    H157322   1.593   0.099   0.285 -0.6958 -1.2620  1.4518
11969TIP3    H257323   1.554   0.066   0.142  2.1283  0.0416  0.3088
11970TIP3   OH257324   5.956   5.427   2.790  0.0423  0.0237 -0.6332
11970TIP3    H157325   5.999   5.465   2.713 -1.9877  2.1759 -0.8236
11970TIP3    H257326   6.015   5.358   2.819  2.8307  1.7876 -1.7288
11971TIP3   OH257327   4.712   0.038  14.532  0.1873  0.0083  0.0182
11971TIP3    H157328   4.656   0.022  14.608 -1.8951 -0.1012 -1.4752
11971TIP3    H257329   4.658   0.016  14.456  2.1575  0.2089 -1.5397
11972TIP3   OH257330   4.041   0.536  16.187  0.1163  0.0621  0.6830
11972TIP3    H157331   3.951   0.562  16.168  0.0816 -0.5573 -0.0138
11972TIP3    H257332   4.061   0.467  16.123  1.6891  1.4052 -0.3420
11973TIP3   OH257333   1.358   3.012  14.172  0.3484 -0.0206  0.0007
11973TIP3    H157334   1.388   2.990  14.259  0.9344  0.0333 -0.1845
11973TIP3    H257335   1.278   2.961  14.160 -0.6804  1.2286  1.1939
11974TIP3   OH257336   3.038   3.686   0.944  0.1905  0.3279 -0.1197
11974TIP3    H157337   3.123   3.648   0.967  0.2826  0.7712  0.2842
11974TIP3    H257338   3.021   3.749   1.014 -0.7454 -0.1850  0.1184
11975TIP3   OH257339   4.953   2.372  15.188 -0.5187  0.0110  0.0565
11975TIP3    H157340   4.989   2.461  15.183  0.2294 -0.3555 -1.9092
11975TIP3    H257341   4.858   2.385  15.188 -0.4245  0.8304  0.9171
11976TIP3   OH257342   2.587   4.863   5.274 -0.1973 -0.6172  0.4502
11976TIP3    H157343   2.509   4.887   5.224 -2.0556 -0.4891  3.1514
11976TIP3    H257344   2.650   4.932   5.257 -1.5425  0.5207 -0.0521
11977TIP3   OH257345   3.588   5.928   2.718  0.8224  0.1126  0.0204
11977TIP3    H157346   3.539   5.922   2.800  0.9960 -1.8441  0.0248
11977TIP3    H257347   3.680   5.918   2.745  0.8002 -1.7349 -0.4901
11978TIP3   OH257348   4.995   3.637  11.749 -0.0763 -0.2840 -0.8316
11978TIP3    H157349   4.998   3.646  11.844  2.1575 -0.3616 -0.8534
11978TIP3    H257350   5.024   3.721  11.716  0.5991 -0.7339 -1.4046
11979TIP3   OH257351   6.760   0.391   0.936 -0.5641 -0.7803 -0.1738
11979TIP3    H157352   6.731   0.383   0.845 -1.9056 -1.9503  0.3419
11979TIP3    H257353   6.838   0.336   0.941 -0.6248 -0.9057 -0.5517
11980TIP3   OH257354   2.731   6.380   1.164 -0.1428 -0.6666  0.1390
11980TIP3    H157355   2.702   6.455   1.113 -2.3126 -2.4149 -1.4029
11980TIP3    H257356   2.784   6.329   1.103  0.8448 -0.6971  0.9951
11981TIP3   OH257357   2.328   5.330   0.058  0.2914 -0.1190  0.5141
11981TIP3    H157358   2.275   5.306   0.135  1.6088  2.4601  2.4063
11981TIP3    H257359   2.397   5.386   0.094  1.5579  0.4035 -2.4798
11982TIP3   OH257360   1.548   1.202   4.486  0.1835  0.1149  0.3036
11982TIP3    H157361   1.615   1.270   4.480 -0.1539  0.4132 -0.1918
11982TIP3    H257362   1.549   1.174   4.577  0.9283  0.1728  0.3130
11983TIP3   OH257363   6.673   5.702  13.238  0.3281  0.0327  0.1167
11983TIP3    H157364   6.596   5.733  13.285  0.9087  0.7298  0.6169
11983TIP3    H257365   6.682   5.761  13.164  1.3703  1.0408  1.0107
11984TIP3   OH257366   3.318   3.837  13.877  0.2431  0.1114  0.0420
11984TIP3    H157367   3.284   3.749  13.859  1.2361  0.0556 -1.7720
11984TIP3    H257368   3.390   3.822  13.939  0.7648 -0.4389 -0.6743
11985TIP3   OH257369   5.632   3.748   2.212  0.5197  0.0291  1.0731
11985TIP3    H157370   5.689   3.771   2.285  0.4487 -1.3565  1.5887
11985TIP3    H257371   5.678   3.676   2.167  1.2919  1.7887 -1.1515
11986TIP3   OH257372   5.876   4.873   4.178  0.0001  0.2273  0.5604
11986TIP3    H157373   5.925   4.937   4.229 -1.5487  0.2929  2.0367
11986TIP3    H257374   5.860   4.916   4.094  0.8066  0.9186  0.7513
11987TIP3   OH257375   3.486   1.254   3.067 -0.2042  0.1298 -0.0679
11987TIP3    H157376   3.492   1.162   3.040  1.6231  0.1454  0.1591
11987TIP3    H257377   3.545   1.301   3.009 -0.6835  1.0798  0.1886
11988TIP3   OH257378   5.971   0.960  16.123 -0.0141  0.0926  0.1773
11988TIP3    H157379   5.959   1.042  16.075 -2.5411 -0.2046  0.1668
11988TIP3    H257380   5.893   0.953  16.178  1.1920 -1.2598  1.8185
11989TIP3   OH257381   6.034   2.236   2.186  0.0164  0.4233  0.1786
11989TIP3    H157382   6.093   2.283   2.245  0.2595 -0.1203  0.3774
11989TIP3    H257383   5.980   2.183   2.243 -0.0113  0.1874 -0.0649
11990TIP3   OH257384   5.770   1.157   0.764  0.2015  0.8440  0.1634
11990TIP3    H157385   5.730   1.081   0.720 -0.1919  2.2313 -2.0218
11990TIP3    H257386   5.733   1.155   0.853 -1.5020 -0.2769 -0.5155
11991TIP3   OH257387   4.779   3.481   2.007  0.4507 -0.1836 -0.5339
11991TIP3    H157388   4.824   3.426   1.943  1.0550  1.8571 -1.9557
11991TIP3    H257389   4.718   3.534   1.955 -1.3406 -0.6284  0.9890
11992TIP3   OH257390   3.026   5.586   4.353  0.7093 -0.0200 -0.3488
11992TIP3    H157391   3.084   5.660   4.341 -2.2708  2.4466 -0.7968
11992TIP3    H257392   3.004   5.558   4.264 -1.9374  1.9043 -0.4283
11993TIP3   OH257393   3.799   0.825   3.344  0.3194  0.4012 -0.1142
11993TIP3    H157394   3.763   0.912   3.360 -0.3923 -0.1028  1.2071
11993TIP3    H257395   3.839   0.831   3.257  0.0217  1.9480 -0.1751
11994TIP3   OH257396   6.544   4.060   4.969  0.5451 -0.0389  0.7313
11994TIP3    H157397   6.633   4.094   4.956  0.3149  0.2456 -0.2014
11994TIP3    H257398   6.489   4.138   4.972  0.1082 -0.2716 -0.6375
11995TIP3   OH257399   0.382   0.999  14.233  0.0999  0.0413  0.1722
11995TIP3    H157400   0.425   0.920  14.200  1.7904  1.5737 -1.5508
11995TIP3    H257401   0.408   1.004  14.325  0.5839 -1.0158  0.1094
11996TIP3   OH257402   3.477   2.180   6.095 -0.5870  0.0910  0.2379
11996TIP3    H157403   3.425   2.256   6.068 -1.2026 -0.2749  0.3838
11996TIP3    H257404   3.443   2.107   6.043 -2.2678 -0.7825  2.4054
11997TIP3   OH257405   5.739   5.950  16.622  0.4719 -0.8103 -0.3580
11997TIP3    H157406   5.729   5.986  16.534  2.1061 -1.6793 -0.9475
11997TIP3    H257407   5.690   6.009  16.679  1.8653  1.5233 -1.4639
11998TIP3   OH257408   4.307   0.185  14.604  0.0906  0.5385  0.0814
11998TIP3    H157409   4.252   0.262  14.618 -0.0619  0.2738  0.9826
11998TIP3    H257410   4.312   0.176  14.509  0.3171  1.8082 -0.0342
11999TIP3   OH257411   0.171   4.726   4.784 -0.5921 -0.1338 -0.2416
11999TIP3    H157412   0.223   4.790   4.736 -0.3090 -0.9283 -1.0090
11999TIP3    H257413   0.208   4.726   4.873  0.0443  0.0535 -0.5023
12000TIP3   OH257414   1.354   2.439  14.987 -0.2719  0.4253 -0.3460
12000TIP3    H157415   1.261   2.417  14.998 -0.0683  0.0572  0.7893
12000TIP3    H257416   1.353   2.525  14.945 -1.2324  1.9858  2.5799
12001TIP3   OH257417   1.000   2.927   5.155 -0.1366 -0.2037  0.0636
12001TIP3    H157418   0.924   2.946   5.101  1.8320 -0.0432 -2.8320
12001TIP3    H257419   1.052   3.007   5.153  2.2056 -1.6558 -1.7876
12002TIP3   OH257420   1.903   0.326   0.392  0.4033 -0.2725  0.2938
12002TIP3    H157421   1.955   0.268   0.336 -0.1190 -1.8385  1.3447
12002TIP3    H257422   1.956   0.405   0.401  2.3910 -1.5956  0.9081
12003TIP3   OH257423   0.065   5.851   2.105 -0.0518  0.5495 -0.1135
12003TIP3    H157424   0.018   5.803   2.037  1.7313 -0.0381 -0.9817
12003TIP3    H257425   0.039   5.942   2.092  0.2734  0.4477 -1.6312
12004TIP3   OH257426   2.247   0.633   3.200  0.2728 -0.5069  0.5816
12004TIP3    H157427   2.314   0.665   3.260 -0.2922  3.5952 -0.6776
12004TIP3    H257428   2.285   0.644   3.113 -0.7686 -1.5347 -0.0399
12005TIP3   OH257429   6.711   6.034   3.915 -0.2813  0.2900 -0.1006
12005TIP3    H157430   6.739   6.102   3.977  0.0920  0.5224 -0.5194
12005TIP3    H257431   6.622   6.059   3.891 -0.1595  0.6244 -0.2284
12006TIP3   OH257432   6.244   6.572   0.953 -0.4032 -0.0326  0.0973
12006TIP3    H157433   6.186   6.603   0.884 -0.8433  0.7877  0.8090
12006TIP3    H257434   6.329   6.607   0.931  0.0750 -1.9788 -1.4370
12007TIP3   OH257435   6.648   4.374  11.299 -0.4946 -0.0876 -0.0769
12007TIP3    H157436   6.605   4.405  11.378 -0.9153 -0.6854 -0.0632
12007TIP3    H257437   6.689   4.452  11.261 -0.6209  0.2711  0.5179
12008TIP3   OH257438   3.939   1.162   0.347  0.1122 -0.1807  0.4897
12008TIP3    H157439   3.943   1.255   0.324  1.8586  0.1998  2.0874
12008TIP3    H257440   4.025   1.127   0.325 -0.3725 -1.3346  0.3242
12009TIP3   OH257441   4.187   3.105   4.097 -0.6470 -0.5406  0.7819
12009TIP3    H157442   4.205   3.084   4.189 -0.3282  0.3619  0.9327
12009TIP3    H257443   4.245   3.178   4.077 -1.1934 -0.2912  0.0591
12010TIP3   OH257444   0.596   2.346   2.171 -0.4108  0.2313  0.5668
12010TIP3    H157445   0.650   2.424   2.186 -0.9644  0.3303  2.3277
12010TIP3    H257446   0.532   2.373   2.106  1.4294  0.1940 -1.3701
12011TIP3   OH257447   2.317   6.640   3.189  0.2978  0.3585  0.5338
12011TIP3    H157448   2.244   6.702   3.197 -0.3031 -0.2326 -0.2380
12011TIP3    H257449   2.280   6.556   3.219  0.3197 -0.1802 -0.8667
12012TIP3   OH257450   0.019   6.016  16.084 -0.4269  0.6894  0.2065
12012TIP3    H157451   0.083   6.081  16.052  2.6165 -2.3349 -0.4935
12012TIP3    H257452  -0.016   5.977  16.004  0.1404 -0.5773  0.5537
12013TIP3   OH257453   0.796   1.102   0.479  0.1339  0.1367  0.1150
12013TIP3    H157454   0.842   1.057   0.408  0.8913  1.7106 -0.4174
12013TIP3    H257455   0.703   1.098   0.453  0.5051  1.7744 -1.6367
12014TIP3   OH257456   2.450   3.505  11.848  0.2667  0.2088  0.2578
12014TIP3    H157457   2.405   3.456  11.780 -1.3107 -0.5102  1.7319
12014TIP3    H257458   2.446   3.448  11.925  2.1860  0.8920  0.9230
12015TIP3   OH257459   0.087   3.634  15.938 -0.5570 -0.0292  0.5642
12015TIP3    H157460   0.023   3.564  15.927 -0.3913 -0.0095 -0.6078
12015TIP3    H257461   0.125   3.618  16.025 -0.8807 -1.0873  0.5289
12016TIP3   OH257462   4.660   1.707  11.398  0.4233  0.5459  0.0045
12016TIP3    H157463   4.644   1.689  11.305  0.8142 -1.1513  0.2318
12016TIP3    H257464   4.594   1.772  11.421 -0.1987  0.4136 -1.2807
12017TIP3   OH257465   6.173   2.720   0.991  0.0123 -0.6909  0.1181
12017TIP3    H157466   6.122   2.666   0.930 -0.0678 -0.8876  0.3575
12017TIP3    H257467   6.116   2.729   1.067 -0.5141  0.8033 -0.4176
12018TIP3   OH257468   4.058   3.481   2.001  0.1275 -0.3152  0.7645
12018TIP3    H157469   4.095   3.568   1.989 -2.9343  1.0499  0.2303
12018TIP3    H257470   4.107   3.425   1.939  2.3836  0.8645  1.3723
12019TIP3   OH257471   4.094   2.643  15.909  0.0228  0.4352  0.7856
12019TIP3    H157472   4.148   2.635  15.831  0.0285 -1.4332  0.9218
12019TIP3    H257473   4.103   2.558  15.953 -1.1034  0.9404  2.0748
12020TIP3   OH257474   4.762   3.977  15.926  0.2919 -0.1148 -0.5294
12020TIP3    H157475   4.849   4.017  15.933 -1.1782  3.4311 -0.2766
12020TIP3    H257476   4.741   3.951  16.016  0.0765  1.5984 -0.0388
12021TIP3   OH257477   5.596   5.943   3.484  0.5132  0.3041  0.1155
12021TIP3    H157478   5.612   5.873   3.548  1.2147  1.0479  0.7824
12021TIP3    H257479   5.508   5.926   3.452  0.4719 -0.5829  0.6554
12022TIP3   OH257480   6.144   0.131   4.075  0.1218 -0.5974 -0.4014
12022TIP3    H157481   6.234   0.138   4.108  0.2751  0.5755 -0.9928
12022TIP3    H257482   6.108   0.054   4.119  0.3393  0.7732  2.4467
12023TIP3   OH257483   5.298   4.450   0.782 -0.1750  0.2239 -0.0953
12023TIP3    H157484   5.381   4.495   0.797 -1.2076  1.9429  0.7623
12023TIP3    H257485   5.323   4.360   0.762  1.9953  1.1513 -2.0450
12024TIP3   OH257486   0.645   1.550   0.754 -0.1799  0.4940 -0.3654
12024TIP3    H157487   0.726   1.601   0.757  0.9909 -1.2214 -1.3405
12024TIP3    H257488   0.641   1.515   0.665  0.0995 -2.6073  0.7086
12025TIP3   OH257489   5.670   3.486  11.413 -0.6504 -0.0812 -0.3074
12025TIP3    H157490   5.657   3.538  11.492  0.1037  0.7743 -0.7342
12025TIP3    H257491   5.761   3.502  11.388 -1.3152  0.9467 -2.2683
12026TIP3   OH257492   4.092   0.450  10.663  0.3270  0.6761  0.0157
12026TIP3    H157493   4.165   0.472  10.606  1.7505 -1.2002  1.0082
12026TIP3    H257494   4.130   0.446  10.751 -1.2249  0.7972  0.7304
12027TIP3   OH257495   3.803   6.009  15.578  0.1045 -0.4646  0.0526
12027TIP3    H157496   3.878   6.068  15.583 -0.4816  0.2303  0.8833
12027TIP3    H257497   3.841   5.924  15.555  0.9982  0.1530 -0.8264
12028TIP3   OH257498   5.935   4.644  13.675  0.4397  0.7212 -0.3673
12028TIP3    H157499   5.959   4.676  13.589  1.8922 -1.1745 -0.7413
12028TIP3    H257500   5.911   4.552  13.661  1.9559 -0.0223  1.3732
12029TIP3   OH257501   5.207   4.037   0.662 -0.2348 -0.3946 -0.5738
12029TIP3    H157502   5.194   3.942   0.662  0.3622 -0.4845 -0.8992
12029TIP3    H257503   5.121   4.073   0.683 -0.1832 -1.0365  0.8690
12030TIP3   OH257504   1.749   4.970   5.652 -0.4714 -0.3650  0.0745
12030TIP3    H157505   1.823   5.026   5.628  0.0741 -1.0765  0.0788
12030TIP3    H257506   1.673   5.015   5.616 -0.0469  0.4157  0.1322
12031TIP3   OH257507   2.148   4.788   2.074 -0.1447 -0.2286 -0.1609
12031TIP3    H157508   2.206   4.776   1.999  0.9513  0.6099  0.5226
12031TIP3    H257509   2.062   4.805   2.035  0.6380  1.4725 -1.2915
12032TIP3   OH257510   6.138   4.184  12.051 -0.5982 -0.7034 -0.0531
12032TIP3    H157511   6.216   4.224  12.013  0.9440 -3.1319  0.3373
12032TIP3    H257512   6.119   4.110  11.993 -2.8778 -0.0058 -0.3241
12033TIP3   OH257513   3.913   1.461  16.633  0.4978  0.3264 -0.1285
12033TIP3    H157514   3.946   1.409  16.560  1.3719  0.7043 -0.0118
12033TIP3    H257515   3.947   1.549  16.617 -0.8824  0.8567 -0.2755
12034TIP3   OH257516   4.845   4.620   5.998 -0.2030 -0.3978 -0.8041
12034TIP3    H157517   4.823   4.624   6.090 -1.1802 -2.9803 -0.8377
12034TIP3    H257518   4.935   4.587   5.996 -0.4333 -1.0325 -0.7735
12035TIP3   OH257519   2.134   1.457   2.771 -0.0575 -0.0951  0.2601
12035TIP3    H157520   2.083   1.536   2.752  0.0012  0.0778  0.8167
12035TIP3    H257521   2.150   1.461   2.865 -1.9649 -1.8902  0.7444
12036TIP3   OH257522   2.337   2.953   4.369  0.4220  0.4439  0.4191
12036TIP3    H157523   2.311   2.933   4.279  1.3194  2.4245 -0.3208
12036TIP3    H257524   2.327   2.870   4.416  0.1270 -0.6711 -1.5380
12037TIP3   OH257525   0.015   6.357  16.038 -0.0650 -0.3749 -0.9217
12037TIP3    H157526  -0.020   6.311  16.115 -1.1095 -3.0790 -2.8849
12037TIP3    H257527   0.095   6.309  16.016  0.4730  0.6691 -1.2937
12038TIP3   OH257528   0.693   0.800  12.497 -0.1699  0.4156  0.0553
12038TIP3    H157529   0.658   0.877  12.542  0.7326  0.8004  0.1274
12038TIP3    H257530   0.760   0.766  12.557 -0.4505 -0.3393 -0.0450
12039TIP3   OH257531   6.472   4.954   0.329  0.1661  0.2767 -0.3882
12039TIP3    H157532   6.519   5.002   0.260  0.5693 -1.5120 -1.4231
12039TIP3    H257533   6.461   4.866   0.293  0.1997 -0.6633  1.7739
12040TIP3   OH257534   0.187   3.405   0.859  0.0441  0.1976  0.4988
12040TIP3    H157535   0.213   3.491   0.890 -1.6040  0.0851  2.4295
12040TIP3    H257536   0.092   3.402   0.872 -0.1264 -1.4442 -0.7467
12041TIP3   OH257537   2.637   5.153  16.234 -0.2006  0.1300 -0.1171
12041TIP3    H157538   2.666   5.073  16.279 -1.1010 -0.6946 -0.9521
12041TIP3    H257539   2.700   5.165  16.164  1.2309  1.4418  1.3254
12042TIP3   OH257540   5.920   3.429   5.620  0.1541  0.0038 -0.2073
12042TIP3    H157541   5.942   3.338   5.641  0.7687 -0.2085 -1.6586
12042TIP3    H257542   5.826   3.436   5.639  0.6241 -0.1275  2.5216
12043TIP3   OH257543   3.928   2.043  13.183  0.3006  0.4055 -0.6598
12043TIP3    H157544   3.926   2.005  13.095 -0.9049 -0.4036 -0.3013
12043TIP3    H257545   3.927   1.968  13.242  0.6714  0.9510  0.0594
12044TIP3   OH257546   6.558   0.310   2.762 -0.2071 -0.2694  0.8631
12044TIP3    H157547   6.502   0.233   2.753  0.2639 -0.5687  0.4249
12044TIP3    H257548   6.639   0.276   2.800  0.2038 -0.0874  0.1611
12045TIP3   OH257549   4.320   3.598   6.659  0.2065  0.0885 -0.0624
12045TIP3    H157550   4.239   3.562   6.624  0.9896  0.7444 -2.7840
12045TIP3    H257551   4.347   3.535   6.726 -3.0544  0.4400  1.7817
12046TIP3   OH257552   2.778   4.188  15.366 -0.9646 -0.3260  0.2090
12046TIP3    H157553   2.795   4.263  15.308 -0.1252 -1.9810 -1.8292
12046TIP3    H257554   2.858   4.135  15.359  0.1265  0.3650  4.6381
12047TIP3   OH257555   2.161   3.388  12.536 -0.5388 -0.1504 -0.8728
12047TIP3    H157556   2.183   3.304  12.577  0.0623  0.6924  0.5989
12047TIP3    H257557   2.227   3.449  12.569 -2.9455  1.6802  0.8446
12048TIP3   OH257558   5.242   5.546  12.277 -0.0798  0.5328 -0.1580
12048TIP3    H157559   5.251   5.559  12.183  1.2935 -0.0587 -0.1219
12048TIP3    H257560   5.211   5.456  12.286 -0.9179  0.8225 -0.0588
12049TIP3   OH257561   3.442   4.731   4.142 -0.0796 -0.1830  0.1214
12049TIP3    H157562   3.354   4.706   4.167  0.9484 -2.8155  1.4015
12049TIP3    H257563   3.452   4.698   4.052  0.5719 -2.7316  1.0699
12050TIP3   OH257564   6.527   5.257  14.938  0.5238  0.0995 -0.1640
12050TIP3    H157565   6.560   5.168  14.947 -0.7178 -0.2708  1.3364
12050TIP3    H257566   6.591   5.311  14.984 -0.3264 -0.4769  1.8140
12051TIP3   OH257567   5.330   6.375  15.774  0.3011  0.2860  0.4718
12051TIP3    H157568   5.277   6.303  15.740  1.1713 -0.7332  1.1790
12051TIP3    H257569   5.275   6.416  15.840 -0.5311  0.8405 -0.5440
12052TIP3   OH257570   0.005   3.014   1.678  0.8509 -0.0425 -1.1221
12052TIP3    H157571  -0.029   2.961   1.606 -0.5831 -1.4111  0.4712
12052TIP3    H257572  -0.070   3.066   1.707  1.2861  0.1501 -0.3215
12053TIP3   OH257573   1.319   0.495   4.564 -0.1062 -0.1028  0.1691
12053TIP3    H157574   1.403   0.542   4.565 -0.3936  0.4165  0.3933
12053TIP3    H257575   1.343   0.403   4.559  0.4668  0.0809 -0.6593
12054TIP3   OH257576   5.180   6.705  16.897 -0.7505  0.1820  0.2796
12054TIP3    H157577   5.268   6.728  16.928 -0.6847 -0.3464  0.4861
12054TIP3    H257578   5.163   6.619  16.934 -0.6224 -0.5434 -1.2813
12055TIP3   OH257579   5.863   1.675  16.897 -0.7448  0.0869  0.0483
12055TIP3    H157580   5.816   1.749  16.859 -1.3812 -0.3510 -0.0451
12055TIP3    H257581   5.794   1.619  16.932 -0.5031 -1.8023 -2.2594
12056TIP3   OH257582   6.489   1.112  15.347 -0.0443  0.1817  0.3355
12056TIP3    H157583   6.501   1.025  15.310 -1.2453  0.1920 -0.1003
12056TIP3    H257584   6.571   1.158  15.329 -0.2049 -0.1608 -1.3711
12057TIP3   OH257585   5.232   2.994   1.371 -0.0359 -0.2913 -0.0780
12057TIP3    H157586   5.154   2.970   1.321  0.8531 -0.8247 -1.2455
12057TIP3    H257587   5.304   2.951   1.326  0.9015 -0.1414  1.2238
12058TIP3   OH257588   2.730   0.309  17.205  0.0429  0.0880  0.1416
12058TIP3    H157589   2.725   0.405  17.211 -1.3130  0.0304  0.0389
12058TIP3    H257590   2.643   0.282  17.177  0.4181 -1.1858  0.1740
12059TIP3   OH257591   2.200   2.509  14.966 -0.0071  0.2300  0.2080
12059TIP3    H157592   2.216   2.595  14.927  0.0950 -0.1474 -0.6179
12059TIP3    H257593   2.276   2.457  14.942  1.1451  0.5692  2.8130
12060TIP3   OH257594   3.035   2.981  11.833 -0.2081  0.2576  0.3184
12060TIP3    H157595   2.942   3.000  11.823 -0.6799 -1.4924  0.8918
12060TIP3    H257596   3.044   2.891  11.801  1.2227  0.2826  0.5822
12061TIP3   OH257597   5.153   3.949  12.327 -0.3271  0.2293 -0.0141
12061TIP3    H157598   5.070   3.925  12.285 -0.7746  2.2380 -0.4119
12061TIP3    H257599   5.218   3.896  12.282 -1.2740 -0.7059 -0.3424
12062TIP3   OH257600   0.196   2.369   1.258 -0.1869 -0.1643  0.1685
12062TIP3    H157601   0.114   2.358   1.208  0.0812 -1.2781 -0.0638
12062TIP3    H257602   0.232   2.452   1.227 -1.2419  0.3617  0.3008
12063TIP3   OH257603   3.921   1.982  12.909 -0.2895 -0.1660  0.3432
12063TIP3    H157604   3.880   1.904  12.873  0.4547  0.4589 -2.0965
12063TIP3    H257605   3.876   2.055  12.866  0.5615  0.6535  0.7970
12064TIP3   OH257606   0.467   1.678   4.016 -0.2818 -0.5387 -0.2670
12064TIP3    H157607   0.439   1.643   4.101 -2.3074  1.1607 -0.1553
12064TIP3    H257608   0.386   1.688   3.966  0.8080 -0.9641 -2.2291
12065TIP3   OH257609   2.343   2.487  12.483 -0.0379  0.5100 -0.1999
12065TIP3    H157610   2.392   2.408  12.458 -1.0966 -0.4808  0.7171
12065TIP3    H257611   2.393   2.559  12.446  2.3047 -0.4101  0.9401
12066TIP3   OH257612   1.912   4.056   2.244  0.0976 -0.5619  0.3966
12066TIP3    H157613   1.959   4.071   2.326  0.0194  3.3285 -0.0495
12066TIP3    H257614   1.822   4.086   2.262 -0.0564 -0.1781 -0.9107
12067TIP3   OH257615   5.509   2.135   5.399  0.6075 -0.2773 -0.4576
12067TIP3    H157616   5.466   2.106   5.480  2.5663 -1.0061  0.3922
12067TIP3    H257617   5.572   2.065   5.380  2.4426  1.4075 -0.8074
12068TIP3   OH257618   0.337   0.849  12.633  0.5128  0.5139 -0.4032
12068TIP3    H157619   0.291   0.924  12.670  0.5100 -0.1911  1.0771
12068TIP3    H257620   0.422   0.884  12.606  0.7311  0.9355  0.8019
12069TIP3   OH257621   1.306   0.761   5.750  0.4030  0.9468  0.2459
12069TIP3    H157622   1.214   0.762   5.776 -0.3428 -0.5662 -1.9863
12069TIP3    H257623   1.331   0.669   5.756  1.1055  1.0152 -1.1271
12070TIP3   OH257624   1.452   5.613   2.617 -0.0462 -0.0243 -0.6686
12070TIP3    H157625   1.464   5.518   2.613 -0.7518 -0.0930 -1.4323
12070TIP3    H257626   1.442   5.632   2.711  2.3628 -0.3793 -0.2719
12071TIP3   OH257627   1.415   4.608   2.915  0.2717 -0.5324  0.0582
12071TIP3    H157628   1.351   4.664   2.959 -0.4012 -0.6564 -0.7429
12071TIP3    H257629   1.427   4.648   2.829  0.6471 -0.9764 -0.1013
12072TIP3   OH257630   3.392   1.679   4.411 -0.2706 -0.3587  0.1562
12072TIP3    H157631   3.362   1.605   4.465  1.6199 -0.6036  0.9528
12072TIP3    H257632   3.313   1.731   4.396 -0.5348  1.8235  6.3551
12073TIP3   OH257633   3.155   5.153  14.757  0.0180  0.8139 -0.0430
12073TIP3    H157634   3.147   5.240  14.719  0.1364  0.8475  0.0089
12073TIP3    H257635   3.110   5.159  14.841  0.2699  0.9009  0.0852
12074TIP3   OH257636   5.057   5.747  16.924 -0.1669  0.2197  0.1606
12074TIP3    H157637   4.967   5.715  16.920  0.3255 -1.1545 -0.9212
12074TIP3    H257638   5.060   5.803  17.002 -1.6812 -0.5352  0.7978
12075TIP3   OH257639   0.382   6.322   3.490 -0.2209  0.1169 -0.1352
12075TIP3    H157640   0.372   6.259   3.418  1.4707 -3.0139  2.1503
12075TIP3    H257641   0.453   6.379   3.462 -1.0455  0.3913 -1.8123
12076TIP3   OH257642   1.145   1.789  12.588 -0.1145 -0.1269  0.4016
12076TIP3    H157643   1.200   1.853  12.542 -1.2985  1.1116  0.6526
12076TIP3    H257644   1.204   1.748  12.651  0.4849  1.3757  0.8595
12077TIP3   OH257645   1.321   5.112  12.678 -0.7025 -0.2012  0.0435
12077TIP3    H157646   1.272   5.165  12.741 -1.4762 -0.9264  0.0771
12077TIP3    H257647   1.256   5.089  12.611 -0.0333  0.0767 -0.7119
12078TIP3   OH257648   6.031   1.589  12.796  0.3991  0.4032  0.5442
12078TIP3    H157649   6.124   1.567  12.804 -0.0203 -0.9701  2.1799
12078TIP3    H257650   5.995   1.521  12.739  0.3877  0.9618 -0.1271
12079TIP3   OH257651   3.985   5.905  12.319 -0.1329 -0.5772  0.6076
12079TIP3    H157652   3.999   5.858  12.236  1.0214 -0.0966  0.5112
12079TIP3    H257653   3.890   5.903  12.332 -0.1673 -2.4412  0.3254
12080TIP3   OH257654   0.008   2.179   4.624 -0.1504 -1.0700  0.9961
12080TIP3    H157655   0.024   2.257   4.570  0.8890 -1.3373  0.8950
12080TIP3    H257656  -0.072   2.141   4.588  0.1471 -0.8589  0.0922
12081TIP3   OH257657   6.398   6.524   6.153 -0.0758 -0.3725  0.2825
12081TIP3    H157658   6.403   6.433   6.182  2.4910 -0.6823 -0.8608
12081TIP3    H257659   6.430   6.574   6.228  0.4712 -0.6090  0.2113
12082TIP3   OH257660   4.777   2.294   5.768  0.0080  0.4086 -0.3189
12082TIP3    H157661   4.861   2.303   5.723 -0.2846  1.0846 -0.7371
12082TIP3    H257662   4.801   2.281   5.860  0.5674  1.2036 -0.3433
12083TIP3   OH257663   0.322   5.855   1.248  0.2869 -0.2069 -0.6904
12083TIP3    H157664   0.259   5.897   1.307  1.1332  0.4083 -0.2042
12083TIP3    H257665   0.304   5.762   1.257  0.1659 -0.0979  0.2702
12084TIP3   OH257666   0.518   5.708   5.903  0.0464 -0.0596  0.2706
12084TIP3    H157667   0.488   5.642   5.841 -0.1548 -0.4468  0.7721
12084TIP3    H257668   0.439   5.733   5.951  0.4558 -0.8765  1.4043
12085TIP3   OH257669   4.172   0.098   5.071 -0.2902  0.4314  0.4300
12085TIP3    H157670   4.220   0.127   5.148  0.0443 -0.8057  0.7155
12085TIP3    H257671   4.239   0.091   5.002 -0.3935  0.5096  0.3223
12086TIP3   OH257672   3.497   0.964   1.815  0.5656 -0.5027  0.2023
12086TIP3    H157673   3.505   1.044   1.764  0.1521 -0.7750 -0.3037
12086TIP3    H257674   3.530   0.987   1.902  2.6251 -0.4094 -0.5581
12087TIP3   OH257675   0.460   5.817   0.311 -0.4022 -0.7232 -0.4759
12087TIP3    H157676   0.444   5.783   0.399 -0.4176 -2.0016 -0.9462
12087TIP3    H257677   0.531   5.762   0.276 -0.2253 -0.0769 -1.1684
12088TIP3   OH257678   6.347   3.639  15.618  0.0809  0.7991 -0.2593
12088TIP3    H157679   6.383   3.717  15.661 -1.3378  0.9263  0.7723
12088TIP3    H257680   6.368   3.567  15.677 -1.2796  0.8687  0.3252
12089TIP3   OH257681   2.721   3.680   5.610  0.0640  0.2869  0.5602
12089TIP3    H157682   2.809   3.658   5.640 -0.8487 -0.7982  2.6705
12089TIP3    H257683   2.700   3.613   5.545 -0.0989 -1.0592  1.9292
12090TIP3   OH257684   0.887   3.348   3.812  0.5793 -0.5902  0.0979
12090TIP3    H157685   0.877   3.255   3.831 -2.5336 -0.4357 -0.3159
12090TIP3    H257686   0.948   3.351   3.738 -0.9895 -2.5070 -1.3664
12091TIP3   OH257687   6.207   5.862  12.613 -0.2741  0.5893  0.1895
12091TIP3    H157688   6.213   5.774  12.575 -1.9577  1.5069 -2.4403
12091TIP3    H257689   6.280   5.910  12.574  0.6839  0.4020  1.6739
12092TIP3   OH257690   1.227   1.007  13.454  0.3241  0.4767  0.6960
12092TIP3    H157691   1.222   1.101  13.435  1.1861  0.2455 -0.7884
12092TIP3    H257692   1.194   0.965  13.375 -1.2598 -0.4940  1.8016
12093TIP3   OH257693   3.192   1.685  11.121  0.6786  0.2991 -0.5401
12093TIP3    H157694   3.269   1.741  11.111  0.5758  0.3199 -1.2617
12093TIP3    H257695   3.155   1.679  11.033  0.4306 -0.5407 -0.3831
12094TIP3   OH257696   2.668   4.413   5.359 -0.0171  0.2469 -0.3968
12094TIP3    H157697   2.638   4.323   5.375 -1.0696  0.7456  0.4791
12094TIP3    H257698   2.590   4.460   5.330  0.4004  1.0279 -0.2858
12095TIP3   OH257699   1.330   3.694   3.579 -0.0355 -0.0895 -0.1271
12095TIP3    H157700   1.246   3.649   3.564 -0.6388  0.7588  0.6111
12095TIP3    H257701   1.306   3.785   3.598  0.9120 -0.2042  1.9006
12096TIP3   OH257702   6.568   4.881  16.048  0.3362  0.2755  0.1363
12096TIP3    H157703   6.538   4.855  16.135 -1.0874  0.1826 -0.3578
12096TIP3    H257704   6.503   4.945  16.018  1.6478  1.4879 -0.2542
12097TIP3   OH257705   5.792   0.310   0.414 -0.0649  0.4154  0.3342
12097TIP3    H157706   5.875   0.357   0.415 -0.4703  1.1412  0.2208
12097TIP3    H257707   5.725   0.378   0.424 -0.6734 -0.0982 -0.1381
12098TIP3   OH257708   2.332   2.440  14.227 -0.0577  0.2723 -0.6126
12098TIP3    H157709   2.410   2.386  14.245 -0.5379  0.3054  1.9574
12098TIP3    H257710   2.259   2.380  14.241 -0.5908  1.3876  2.0300
12099TIP3   OH257711   0.278   2.096   2.560  0.0771 -0.1163  1.0012
12099TIP3    H157712   0.258   2.165   2.497 -0.3661  0.7359  2.0482
12099TIP3    H257713   0.374   2.090   2.558  0.0575 -2.6248 -2.3352
12100TIP3   OH257714   5.908   1.998   5.752 -0.0358  0.9637  0.4476
12100TIP3    H157715   5.921   1.950   5.834  0.0233  1.9580  1.0306
12100TIP3    H257716   5.988   1.984   5.702 -0.7103 -1.0037 -0.1670
12101TIP3   OH257717   1.987   5.515   4.106 -0.2607 -0.0115  0.3460
12101TIP3    H157718   1.968   5.609   4.104 -0.3246 -0.0233  0.4508
12101TIP3    H257719   1.982   5.489   4.014 -0.8242 -0.0312  0.3817
12102TIP3   OH257720   2.124   3.591  13.883 -0.5563  0.0100  0.2699
12102TIP3    H157721   2.122   3.603  13.978 -0.2941 -0.0611  0.2857
12102TIP3    H257722   2.174   3.666  13.850  1.6953 -1.3321  0.4267
12103TIP3   OH257723   6.172   1.620  14.359  0.1475 -0.0225  0.1346
12103TIP3    H157724   6.248   1.575  14.397  0.9679  1.3582  0.1879
12103TIP3    H257725   6.189   1.620  14.264  1.5330  2.4621  0.2971
12104TIP3   OH257726   5.088   6.526   4.288  0.3981  0.8035  0.0333
12104TIP3    H157727   5.057   6.465   4.356  0.8100  0.0140 -0.4832
12104TIP3    H257728   5.024   6.517   4.217  0.5543  0.8619 -0.1131
12105TIP3   OH257729   1.375   0.278  11.733 -0.0512 -0.0830  0.3946
12105TIP3    H157730   1.301   0.219  11.723 -1.0163  0.9362  1.3100
12105TIP3    H257731   1.336   0.364  11.749  1.3047  0.9454 -1.3651
12106TIP3   OH257732   1.707   0.810  13.259  0.3866 -0.2716 -0.1683
12106TIP3    H157733   1.742   0.836  13.344 -0.9951  0.8547  0.0898
12106TIP3    H257734   1.614   0.792  13.275  0.2847 -0.8533 -1.2815
12107TIP3   OH257735   2.077   6.746  12.168  0.1683  0.3860  0.3102
12107TIP3    H157736   2.031   6.662  12.175  1.4041 -0.1876  2.1775
12107TIP3    H257737   2.072   6.783  12.256  0.9616  1.5719 -0.1272
12108TIP3   OH257738   3.512   5.014  15.111 -0.1979 -0.4279  0.1432
12108TIP3    H157739   3.569   4.967  15.171  0.4502  0.9152  0.6339
12108TIP3    H257740   3.435   4.958  15.102 -0.8024 -0.2538  3.0764
12109TIP3   OH257741   4.452   0.493  16.401 -0.1846 -0.3264 -0.3738
12109TIP3    H157742   4.435   0.446  16.483  0.3717  0.4105  0.1851
12109TIP3    H257743   4.372   0.543  16.386 -0.6584 -1.1930 -0.8056
12110TIP3   OH257744   5.881   0.383  11.356 -0.2587  0.7755  0.1084
12110TIP3    H157745   5.952   0.439  11.386  0.9871  0.0749 -1.3660
12110TIP3    H257746   5.867   0.409  11.265 -0.6906 -0.2661 -0.1425
12111TIP3   OH257747   4.914   2.006   5.302  0.1984  0.3054 -0.0289
12111TIP3    H157748   4.982   2.051   5.252 -0.3848 -0.2076 -1.3046
12111TIP3    H257749   4.949   1.918   5.316  0.7713  0.7143  1.3380
12112TIP3   OH257750   3.736   2.187   1.681  0.2021 -0.1500 -0.1497
12112TIP3    H157751   3.815   2.141   1.709  0.1120 -0.0887  0.2086
12112TIP3    H257752   3.683   2.120   1.638  0.6788 -0.0791 -0.8711
12113TIP3   OH257753   4.118   5.211   3.052 -0.6922  0.2558 -0.4295
12113TIP3    H157754   4.039   5.165   3.025 -1.5130  0.4732  1.4170
12113TIP3    H257755   4.087   5.297   3.079  0.0371  0.0592  1.1290
12114TIP3   OH257756   5.260   6.286   2.987 -0.2420  0.1171  0.0216
12114TIP3    H157757   5.249   6.249   2.900 -0.5431  0.0915  0.0690
12114TIP3    H257758   5.248   6.380   2.976 -1.2242  0.0183  0.1876
12115TIP3   OH257759   2.430   4.817   2.531  0.1462  0.0048  0.7675
12115TIP3    H157760   2.478   4.895   2.556  0.9617  0.5240 -2.0871
12115TIP3    H257761   2.498   4.751   2.514 -0.3810 -0.5516  0.7894
12116TIP3   OH257762   1.196   1.843  15.306  0.0291  0.0737 -0.1296
12116TIP3    H157763   1.126   1.905  15.286  0.0989 -0.0309 -0.7065
12116TIP3    H257764   1.152   1.768  15.345 -0.0144  0.6574  1.0148
12117TIP3   OH257765   1.878   0.295  13.831  0.0356  0.9859  0.5149
12117TIP3    H157766   1.974   0.291  13.837  0.0330 -1.0841 -0.0496
12117TIP3    H257767   1.856   0.380  13.869  2.1464  1.9575 -0.2406
12118TIP3   OH257768   2.973   5.047  15.279  0.4099  0.4003  0.5074
12118TIP3    H157769   2.913   5.017  15.210 -0.2626 -0.9757  1.6420
12118TIP3    H257770   2.919   5.103  15.334  0.7588  0.9018  0.3510
12119TIP3   OH257771   1.556   5.784  13.785 -0.6489  0.3166  0.2656
12119TIP3    H157772   1.558   5.708  13.728 -0.4644 -0.4035  1.2086
12119TIP3    H257773   1.591   5.855  13.732  1.2836 -0.7374  0.0449
12120TIP3   OH257774   6.580   5.370   4.900 -0.0945  0.2683 -0.0291
12120TIP3    H157775   6.516   5.394   4.833 -0.6193 -0.9459  0.0192
12120TIP3    H257776   6.529   5.327   4.968  0.6382  0.2202  0.4991
12121TIP3   OH257777   3.180   4.190  16.949 -0.4076  0.2377 -0.3446
12121TIP3    H157778   3.120   4.137  17.002 -1.2398  2.1998  0.7755
12121TIP3    H257779   3.219   4.128  16.888 -0.6160 -1.8429  1.4999
12122TIP3   OH257780   0.529   3.813   2.754  0.1914 -0.0920  0.5488
12122TIP3    H157781   0.522   3.718   2.753  0.1735 -0.0929 -0.1838
12122TIP3    H257782   0.522   3.838   2.662 -0.4421  0.6631  0.7961
12123TIP3   OH257783   2.816   5.521  16.794  0.2136 -0.1235  0.0505
12123TIP3    H157784   2.892   5.573  16.821 -0.8407  1.2200  0.5290
12123TIP3    H257785   2.820   5.443  16.850  0.0628  0.9395  1.6240
12124TIP3   OH257786   3.255   6.603  14.371 -0.1251 -0.5695  0.9269
12124TIP3    H157787   3.173   6.622  14.417  0.1992  0.9493  0.9239
12124TIP3    H257788   3.227   6.552  14.294 -0.9874 -0.6579  1.2840
12125TIP3   OH257789   1.107   5.088   6.413  0.2423 -0.0442 -0.5189
12125TIP3    H157790   1.108   5.020   6.346 -0.1267  1.6646 -2.3762
12125TIP3    H257791   1.199   5.113   6.423  0.6838 -2.3100  1.8863
12126TIP3   OH257792   1.238   6.049   1.289  0.3119 -0.1334  0.0471
12126TIP3    H157793   1.154   6.015   1.259  1.4903 -2.7169 -0.6420
12126TIP3    H257794   1.239   6.140   1.261 -2.7592  0.3807  1.2990
12127TIP3   OH257795   1.925   2.931   2.257 -0.2873  0.0068  0.1628
12127TIP3    H157796   1.944   2.894   2.171  0.3620 -0.3161  0.4419
12127TIP3    H257797   1.894   2.856   2.308  1.7787 -0.3745  0.9644
12128TIP3   OH257798   3.754   4.217   4.484  0.0827  0.4986  0.3570
12128TIP3    H157799   3.817   4.191   4.552  1.4583  0.3279 -0.9366
12128TIP3    H257800   3.732   4.135   4.440  1.3487  0.9385 -1.1677
12129TIP3   OH257801   2.704   3.048   3.031  0.1323 -0.8268 -0.9892
12129TIP3    H157802   2.628   3.016   2.982  0.1210  0.2111 -1.6757
12129TIP3    H257803   2.770   2.980   3.018 -0.7181 -1.8204 -0.2412
12130TIP3   OH257804   4.920   2.249   3.475 -0.5442 -0.4750 -0.7641
12130TIP3    H157805   4.865   2.226   3.400 -1.7883 -0.5791  0.1559
12130TIP3    H257806   4.912   2.344   3.482 -0.1981 -0.4325 -0.9339
12131TIP3   OH257807   3.808   4.814  13.797 -0.0776  0.2920 -0.2671
12131TIP3    H157808   3.713   4.825  13.800  0.0302  1.3589 -0.3100
12131TIP3    H257809   3.835   4.865  13.720  0.5996  0.5801  0.1565
12132TIP3   OH257810   5.405   3.590   1.709 -0.3035 -0.2459  0.1178
12132TIP3    H157811   5.479   3.641   1.675 -0.2484 -0.6545 -0.3891
12132TIP3    H257812   5.380   3.634   1.790  0.8201 -0.3920  0.5595
12133TIP3   OH257813   3.498   3.769  14.088 -0.6182 -0.6551  0.5890
12133TIP3    H157814   3.588   3.741  14.072 -0.8519 -1.5429  0.7335
12133TIP3    H257815   3.461   3.699  14.142 -1.4726 -0.4371  0.2985
12134TIP3   OH257816   1.415   5.263  11.663  0.0852 -0.1560  0.4201
12134TIP3    H157817   1.344   5.230  11.609 -0.2633 -0.0370  0.8037
12134TIP3    H257818   1.386   5.350  11.690 -0.2668 -0.6710  1.7628
12135TIP3   OH257819   6.110   4.736   0.285  0.2195 -0.7027  0.2200
12135TIP3    H157820   6.093   4.718   0.193  0.2807 -1.7458  0.4003
12135TIP3    H257821   6.066   4.665   0.332  0.8087 -0.5972  0.9510
12136TIP3   OH257822   4.721   3.165   3.913 -1.1526 -0.2540 -0.4963
12136TIP3    H157823   4.805   3.176   3.869 -0.6594 -1.0396  0.2085
12136TIP3    H257824   4.686   3.084   3.878 -0.8600 -0.7684  0.3609
12137TIP3   OH257825   4.264   6.066  16.214 -0.0193 -0.6535  0.3951
12137TIP3    H157826   4.293   6.117  16.289 -0.7126 -0.2369  0.3938
12137TIP3    H257827   4.172   6.091  16.202  0.2142 -0.3194 -0.9050
12138TIP3   OH257828   3.688   5.000   1.162  0.4146 -0.4344 -0.5245
12138TIP3    H157829   3.752   4.965   1.224 -1.4631  1.1853  2.5404
12138TIP3    H257830   3.607   4.954   1.183 -1.3598  3.2577  1.5213
12139TIP3   OH257831   1.034   5.293  16.533 -0.2442  0.4167  0.8201
12139TIP3    H157832   0.957   5.268  16.583  1.1836  0.0540  3.0051
12139TIP3    H257833   1.065   5.374  16.576 -0.3916  1.5776 -1.1621
12140TIP3   OH257834   3.223   4.227   3.192  0.3620  0.0740  0.5307
12140TIP3    H157835   3.286   4.171   3.236 -0.3308 -1.3430 -0.2274
12140TIP3    H257836   3.186   4.282   3.262 -0.8349 -2.2286  1.8013
12141TIP3   OH257837   1.231   2.495   1.907 -0.0728  0.0172  0.5039
12141TIP3    H157838   1.271   2.520   1.824 -1.6037 -0.1137 -0.3171
12141TIP3    H257839   1.202   2.405   1.894  1.7617 -0.8808  2.0364
12142TIP3   OH257840   3.207   5.762  13.102 -0.0958 -0.0806 -0.3007
12142TIP3    H157841   3.190   5.673  13.133  0.5928 -0.1857 -0.2081
12142TIP3    H257842   3.192   5.817  13.179  2.0214 -0.3806  0.3999
12143TIP3   OH257843   2.401   0.424   2.384  0.1198  0.4233  0.1564
12143TIP3    H157844   2.406   0.500   2.441 -0.6510  1.7357 -1.4637
12143TIP3    H257845   2.491   0.405   2.361  0.2182  2.1583 -1.0490
12144TIP3   OH257846   2.959   4.496  17.127  0.3584 -0.2437 -0.1365
12144TIP3    H157847   2.996   4.531  17.046 -0.3852  0.2778 -0.2640
12144TIP3    H257848   3.028   4.510  17.192  0.4238  0.6581 -0.3767
12145TIP3   OH257849   2.478   6.379   3.011 -0.3428  0.6871 -0.4914
12145TIP3    H157850   2.394   6.386   3.056 -0.1108 -0.6444  0.2006
12145TIP3    H257851   2.544   6.390   3.080  0.0224 -0.3016 -0.6727
12146TIP3   OH257852   3.630   1.910   5.560  0.1205  0.1028  0.0112
12146TIP3    H157853   3.725   1.910   5.576  0.1041  0.1898  0.1095
12146TIP3    H257854   3.595   1.970   5.626  0.0215  0.2450 -0.1738
12147TIP3   OH257855   0.176   0.232  13.394  0.0238  0.2800 -0.2275
12147TIP3    H157856   0.249   0.259  13.449 -1.8108  0.8676  2.1111
12147TIP3    H257857   0.134   0.160  13.442  0.2971 -1.5873 -2.5939
12148TIP3   OH257858   5.762   2.301  12.508 -0.6084 -0.4004 -0.0865
12148TIP3    H157859   5.720   2.228  12.553 -0.6508  1.9374  4.1317
12148TIP3    H257860   5.850   2.304  12.544 -0.8902  2.0948  0.5324
12149TIP3   OH257861   1.025   2.092   0.507  0.1546 -0.1673  0.1438
12149TIP3    H157862   0.973   2.014   0.522  0.0342  0.1362  1.4812
12149TIP3    H257863   0.969   2.164   0.535  0.6702  0.3060 -0.0157
12150TIP3   OH257864   4.094   2.139  14.484 -0.1849  0.1276 -0.4560
12150TIP3    H157865   3.999   2.141  14.483 -0.2382 -1.2566 -0.7534
12150TIP3    H257866   4.116   2.093  14.565  0.1790 -0.4965 -0.8968
12151TIP3   OH257867   4.135   2.903   6.280 -0.5232  0.0133 -0.4340
12151TIP3    H157868   4.185   2.847   6.339  0.3560  1.2315  0.0268
12151TIP3    H257869   4.184   2.900   6.197  1.0180  2.0214  0.3079
12152TIP3   OH257870   4.625   5.493  15.268 -0.1607  0.5216 -0.7822
12152TIP3    H157871   4.647   5.441  15.345  0.3080  0.5070 -0.9214
12152TIP3    H257872   4.689   5.467  15.202 -0.2036  0.9413 -0.9980
12153TIP3   OH257873   4.831   5.870  14.220  0.0710 -0.4943  0.2874
12153TIP3    H157874   4.826   5.929  14.144 -0.2324 -0.7208  0.1262
12153TIP3    H257875   4.895   5.803  14.193  0.7690  0.0150  0.6541
12154TIP3   OH257876   2.995   5.589   5.898  0.4177  0.3322  0.0205
12154TIP3    H157877   2.935   5.524   5.860  1.7192 -0.5154 -0.6526
12154TIP3    H257878   2.961   5.604   5.986 -0.0590 -1.0785  0.1028
12155TIP3   OH257879   0.285   6.591   4.472  0.7282  0.3016  0.2545
12155TIP3    H157880   0.237   6.584   4.554 -0.6287  2.4384 -0.2817
12155TIP3    H257881   0.330   6.675   4.478  0.1049  0.7861 -1.4036
12156TIP3   OH257882   6.170   2.519  13.598  0.2846 -0.0280 -0.3123
12156TIP3    H157883   6.170   2.609  13.564 -0.0825  0.2426  0.3688
12156TIP3    H257884   6.203   2.529  13.688  0.8426 -0.6641 -0.4397
12157TIP3   OH257885   2.148   1.746   1.242 -0.4009  0.0900 -0.6838
12157TIP3    H157886   2.106   1.762   1.326 -0.7768  1.9717 -1.1885
12157TIP3    H257887   2.135   1.652   1.226 -0.6034 -0.2377  1.1789
12158TIP3   OH257888   1.290   3.273   3.811 -0.1608  0.4192  0.4706
12158TIP3    H157889   1.359   3.207   3.817  0.8467  1.4700  0.7894
12158TIP3    H257890   1.336   3.352   3.784 -1.3588  0.9833  0.0474
12159TIP3   OH257891   5.019   1.626   4.459  0.3104  0.3101  0.4844
12159TIP3    H157892   4.924   1.629   4.457  0.2581 -0.5616  0.9828
12159TIP3    H257893   5.041   1.599   4.548  0.9802 -0.3659  0.1397
12160TIP3   OH257894   3.620   0.322  11.093  0.2805  0.1134  0.1810
12160TIP3    H157895   3.597   0.413  11.111 -0.1164 -0.1072  0.8488
12160TIP3    H257896   3.714   0.323  11.076 -0.1115  1.0299 -2.4365
12161TIP3   OH257897   3.125   2.589  13.205  0.1025 -0.5839 -0.1366
12161TIP3    H157898   3.201   2.642  13.181 -0.8821  0.7457 -0.4282
12161TIP3    H257899   3.129   2.583  13.301 -0.8460  1.7989  0.1304
12162TIP3   OH257900   6.328   0.512   1.382 -0.3479 -0.0316  0.2871
12162TIP3    H157901   6.253   0.494   1.325 -0.2677  2.3750 -0.6817
12162TIP3    H257902   6.326   0.441   1.447 -0.3794 -2.9790 -2.6812
12163TIP3   OH257903   6.301   1.673   2.634  0.3929 -0.4270 -0.2304
12163TIP3    H157904   6.384   1.720   2.647 -0.0647  1.0345 -2.1737
12163TIP3    H257905   6.269   1.658   2.723  1.1775  1.8911  0.5191
12164TIP3   OH257906   3.153   4.521   2.890 -0.2773  0.2010  0.2428
12164TIP3    H157907   3.096   4.564   2.825 -0.8092 -0.0224  0.5500
12164TIP3    H257908   3.192   4.593   2.939 -1.2274  0.3542  0.8110
12165TIP3   OH257909   0.043   1.054   5.932 -0.2490  0.2243 -0.3840
12165TIP3    H157910  -0.022   0.986   5.952 -0.1747  0.4721  0.7831
12165TIP3    H257911   0.092   1.019   5.857 -2.4341  0.5256 -2.0468
12166TIP3   OH257912   0.765   5.212  16.544  0.1704 -0.3159  0.0716
12166TIP3    H157913   0.709   5.247  16.474  1.8812 -0.1043 -1.2518
12166TIP3    H257914   0.751   5.118  16.542 -1.3345 -0.1424  0.8736
12167TIP3   OH257915   4.836   1.042   1.154  0.7822 -0.1594  0.0284
12167TIP3    H157916   4.890   1.121   1.164  0.9444 -0.3273  0.4990
12167TIP3    H257917   4.789   1.056   1.071  0.1139  0.8463  0.5531
12168TIP3   OH257918   4.505   3.516  17.254 -0.0326  0.3032  0.4899
12168TIP3    H157919   4.533   3.602  17.223 -2.0822  0.8676  0.0798
12168TIP3    H257920   4.566   3.495  17.326  0.2516  2.2554  0.8584
12169TIP3   OH257921   1.481   4.252  17.239  0.0686 -0.0035  0.0690
12169TIP3    H157922   1.468   4.176  17.182 -2.0114 -0.0005  0.4505
12169TIP3    H257923   1.572   4.276  17.226 -0.0581 -0.5639 -2.5565
12170TIP3   OH257924   1.133   5.006   2.413 -0.3197 -0.3208 -0.1035
12170TIP3    H157925   1.108   5.098   2.410  0.1302 -0.1410  1.1157
12170TIP3    H257926   1.137   4.979   2.321 -3.2588  0.0729 -0.4508
12171TIP3   OH257927   1.442   3.568   2.103  0.6077  0.1850  1.0580
12171TIP3    H157928   1.419   3.505   2.035 -0.2692  2.2926 -0.7176
12171TIP3    H257929   1.360   3.588   2.147  0.3995  1.8307 -0.0093
12172TIP3   OH257930   5.784   6.398  14.398  0.1224  0.3075  0.1925
12172TIP3    H157931   5.694   6.430  14.405  0.1777  0.6634 -0.5722
12172TIP3    H257932   5.838   6.478  14.395  0.6634  0.1113  2.5953
12173TIP3   OH257933   0.085   4.094  16.684  0.7325 -0.8845  0.1093
12173TIP3    H157934   0.099   4.028  16.617 -0.5606 -2.1324  1.0242
12173TIP3    H257935   0.058   4.045  16.762  0.1137  0.6759  0.9266
12174TIP3   OH257936   1.791   3.980  14.018 -0.1868  0.5807 -0.7504
12174TIP3    H157937   1.798   3.892  14.054 -1.5977 -0.4105 -2.7329
12174TIP3    H257938   1.860   4.029  14.063  0.9518 -1.6262  0.0817
12175TIP3   OH257939   2.692   6.381   6.089  0.1782  0.2087 -0.6895
12175TIP3    H157940   2.747   6.310   6.123 -0.7691 -0.4845 -0.5518
12175TIP3    H257941   2.742   6.460   6.104  1.1417 -0.4081 -0.5770
12176TIP3   OH257942   0.230   2.814   2.792 -0.0027  0.0591  0.1574
12176TIP3    H157943   0.321   2.791   2.807 -0.2514 -0.2815  1.2926
12176TIP3    H257944   0.208   2.875   2.863 -0.9856 -0.8318  0.6566
12177TIP3   OH257945   0.514   0.381   5.700 -0.3217  0.3149 -0.5123
12177TIP3    H157946   0.569   0.446   5.657  0.3863  0.9905  1.2752
12177TIP3    H257947   0.549   0.297   5.673  2.2590  0.7033  1.2150
12178TIP3   OH257948   6.176   5.649   3.464 -0.4567 -0.4079 -0.0770
12178TIP3    H157949   6.195   5.634   3.557 -1.0025  0.2254  0.1394
12178TIP3    H257950   6.119   5.725   3.463 -0.6598 -0.5643 -0.9218
12179TIP3   OH257951   2.107   5.352  11.452  0.8868  0.1359 -0.3096
12179TIP3    H157952   2.146   5.430  11.492 -1.7923  1.6989 -0.5063
12179TIP3    H257953   2.013   5.366  11.459  0.3033 -2.1427 -2.2478
12180TIP3   OH257954   1.480   2.164  17.032 -0.0876 -0.4647  0.1297
12180TIP3    H157955   1.387   2.178  17.017 -0.0824  1.7881  1.6383
12180TIP3    H257956   1.486   2.136  17.123  0.7807  1.8925  0.8847
12181TIP3   OH257957   3.306   2.603  11.233  0.5879 -0.4112  0.5060
12181TIP3    H157958   3.323   2.548  11.310  2.2391 -1.5093 -0.5727
12181TIP3    H257959   3.235   2.559  11.186 -0.3421  0.1971  1.3019
12182TIP3   OH257960   5.821   0.812   4.904 -0.1842 -0.1463  0.4544
12182TIP3    H157961   5.908   0.833   4.940 -0.3852  0.4687  0.5847
12182TIP3    H257962   5.840   0.771   4.820  0.2070  1.2986 -0.1908
12183TIP3   OH257963   0.118   4.885   1.271  0.1510 -0.2884 -0.1276
12183TIP3    H157964   0.107   4.791   1.286 -0.0908 -0.3251 -0.5223
12183TIP3    H257965   0.208   4.903   1.298  0.9591 -1.0604 -2.0779
12184TIP3   OH257966   6.503   2.111   0.793  0.2156  0.3121 -0.2853
12184TIP3    H157967   6.494   2.188   0.849 -0.1373  0.7389 -0.9274
12184TIP3    H257968   6.416   2.098   0.756  0.5466  0.2824 -1.0630
12185TIP3   OH257969   4.742   4.666  16.982 -0.1069 -0.1767  0.1115
12185TIP3    H157970   4.688   4.662  17.062  1.1744 -0.4709  0.9968
12185TIP3    H257971   4.679   4.661  16.911 -1.2106 -1.1573  1.1114
12186TIP3   OH257972   3.945   4.457   3.433  0.2114  0.1432 -0.4602
12186TIP3    H157973   3.982   4.412   3.357  2.5454  0.8392  0.1570
12186TIP3    H257974   3.870   4.505   3.399  0.0658 -1.0414 -1.9090
12187TIP3   OH257975   5.307   0.799  11.753 -0.8338  0.5922  0.1851
12187TIP3    H157976   5.381   0.858  11.744  0.6727 -1.3529 -1.0801
12187TIP3    H257977   5.294   0.790  11.847  1.6806 -0.2949  0.5072
12188TIP3   OH257978   0.878   1.016  14.477 -0.8960 -0.7783  0.3683
12188TIP3    H157979   0.847   0.970  14.555  1.4006 -1.6907  0.8070
12188TIP3    H257980   0.908   1.101  14.510  1.4824 -1.7233  0.8222
12189TIP3   OH257981   4.516   3.096   5.020  0.0165 -0.1736 -0.2782
12189TIP3    H157982   4.609   3.120   5.025 -0.2008  0.8688 -0.8628
12189TIP3    H257983   4.470   3.176   5.044 -0.7408 -1.0783  1.4484
12190TIP3   OH257984   2.099   3.562   1.850  0.0141 -0.2903 -0.5433
12190TIP3    H157985   2.148   3.494   1.897 -0.8770 -2.3065 -2.3491
12190TIP3    H257986   2.167   3.619   1.813  0.8604 -1.0780 -0.2504
12191TIP3   OH257987   4.058   0.485  17.330  0.3998 -0.2714  0.1991
12191TIP3    H157988   4.091   0.571  17.354 -0.7762 -0.1230  1.4214
12191TIP3    H257989   3.996   0.463  17.400  1.0231 -2.3141  0.1819
12192TIP3   OH257990   3.150   5.581   1.039 -0.1227  0.2408 -0.0017
12192TIP3    H157991   3.152   5.486   1.047 -1.8396  0.2805  1.6346
12192TIP3    H257992   3.132   5.597   0.947  0.4716 -0.9894 -0.3605
12193TIP3   OH257993   2.350   3.752  11.001 -0.3017  0.8124  0.0966
12193TIP3    H157994   2.358   3.683  11.066  0.8963  0.9239  0.0872
12193TIP3    H257995   2.351   3.706  10.917 -1.4858  0.6997  0.1224
12194TIP3   OH257996   3.339   3.184   5.934  0.4723 -0.0506 -0.1784
12194TIP3    H157997   3.306   3.146   6.015  0.3179  0.3427 -0.0584
12194TIP3    H257998   3.270   3.167   5.869  0.1619  0.5020  0.0018
12195TIP3   OH257999   4.861   0.219  11.722  0.0157 -0.2282 -0.0815
12195TIP3    H158000   4.865   0.310  11.754 -0.0457 -0.7069  1.3583
12195TIP3    H258001   4.888   0.225  11.631 -0.9224  1.3710 -0.2850
12196TIP3   OH258002   4.443   6.164   3.629 -0.0657  0.0121  0.2750
12196TIP3    H158003   4.492   6.142   3.550  0.1673 -0.1242  0.4546
12196TIP3    H258004   4.432   6.081   3.674 -2.2774 -0.3240 -0.7601
12197TIP3   OH258005   0.782   0.069  13.728 -0.4581  0.3049 -0.3282
12197TIP3    H158006   0.802   0.068  13.634  0.2091 -0.2665 -0.1879
12197TIP3    H258007   0.687   0.065  13.732 -0.5889  1.7883 -0.9950
12198TIP3   OH258008   5.572   1.160   6.106 -0.6220  0.4014  0.4875
12198TIP3    H158009   5.565   1.146   6.012 -2.1841  1.4504  0.4195
12198TIP3    H258010   5.636   1.231   6.115  0.7506 -0.7664  0.3520
12199TIP3   OH258011   4.228   3.491  15.283 -0.2235  0.5908  0.2771
12199TIP3    H158012   4.161   3.469  15.348 -0.3374  0.7120  0.1983
12199TIP3    H258013   4.281   3.412  15.277  1.2814  1.3315  2.3271
12200TIP3   OH258014   5.886   1.493  15.724  0.5396 -0.0720  0.1606
12200TIP3    H158015   5.938   1.443  15.787  1.0336  1.2020  0.8100
12200TIP3    H258016   5.810   1.438  15.706  1.4805 -1.4048  0.1863
12201TIP3   OH258017   5.834   5.014  16.323  0.6455 -0.0947 -0.5066
12201TIP3    H158018   5.873   4.934  16.358  0.1670 -0.5402 -0.9587
12201TIP3    H258019   5.752   4.984  16.282 -0.5783  0.8941  1.0947
12202TIP3   OH258020   2.205   4.940  11.623 -0.4304  0.0531  0.1698
12202TIP3    H158021   2.245   5.016  11.580 -3.4184  1.0193 -1.1726
12202TIP3    H258022   2.180   4.973  11.710 -1.6631  0.6070 -0.3861
12203TIP3   OH258023   1.631   3.709   1.355 -1.2395  0.3371 -0.2296
12203TIP3    H158024   1.703   3.685   1.296  0.0287  1.6125  0.7270
12203TIP3    H258025   1.643   3.655   1.432  0.3158  2.3025  1.0117
12204TIP3   OH258026   4.743   6.636   4.339  0.0309  0.1340 -0.0838
12204TIP3    H158027   4.718   6.660   4.250  0.0296  0.1714 -0.0736
12204TIP3    H258028   4.806   6.704   4.365  0.3953 -0.1458 -0.2317
12205TIP3   OH258029   1.662   4.536   1.567 -0.4736  0.3106  0.0235
12205TIP3    H158030   1.615   4.606   1.523 -0.2585 -0.6521 -1.8519
12205TIP3    H258031   1.714   4.580   1.634  1.7673  2.3759 -2.8138
12206TIP3   OH258032   5.813   4.718  15.711  0.2651 -0.0031 -0.4061
12206TIP3    H158033   5.853   4.633  15.693  1.4029  0.1617  1.1376
12206TIP3    H258034   5.740   4.698  15.770 -0.3453 -0.0278 -1.1491
12207TIP3   OH258035   3.686   6.512  15.983 -0.4120 -0.1098  0.0295
12207TIP3    H158036   3.742   6.443  15.948 -1.8561 -1.0782 -0.4449
12207TIP3    H258037   3.717   6.592  15.939 -0.8173 -0.9654 -1.9163
12208TIP3   OH258038   4.171   1.551   1.611 -0.3609  0.5408  0.0534
12208TIP3    H158039   4.198   1.516   1.695 -0.1580  0.5190 -0.0199
12208TIP3    H258040   4.252   1.584   1.571 -0.1682 -0.9176 -0.8288
12209TIP3   OH258041   5.378   3.650  14.259 -0.2568 -0.0677 -0.8295
12209TIP3    H158042   5.368   3.672  14.166  0.4022  2.0142 -0.4618
12209TIP3    H258043   5.471   3.662  14.276 -0.6498  1.4457  0.5028
12210TIP3   OH258044   1.411   3.036   5.431  0.1997 -0.1906  0.0148
12210TIP3    H158045   1.366   3.026   5.515 -0.1556  1.3767  0.0394
12210TIP3    H258046   1.392   3.125   5.404  1.6465 -0.1466 -0.9657
12211TIP3   OH258047   6.108   3.213   0.398  0.4315 -0.1136 -0.0761
12211TIP3    H158048   6.079   3.286   0.454  1.0981  0.4746 -0.4719
12211TIP3    H258049   6.102   3.247   0.309 -0.0516 -0.8440 -0.3279
12212TIP3   OH258050   0.199   4.930  13.110 -0.2160 -0.2936 -0.4162
12212TIP3    H158051   0.138   4.875  13.159 -0.0464  0.4729  0.6961
12212TIP3    H258052   0.173   4.920  13.018 -0.0113 -2.4320 -0.2838
12213TIP3   OH258053   5.487   0.873   6.303  0.1557  0.2836 -0.0710
12213TIP3    H158054   5.458   0.787   6.273 -0.1152  0.5330 -0.5163
12213TIP3    H258055   5.477   0.869   6.399  1.2909 -0.6049  0.0410
12214TIP3   OH258056   6.518   2.900   3.014  0.4919  0.2101 -0.0089
12214TIP3    H158057   6.576   2.828   3.041  1.6513  0.3631 -1.9310
12214TIP3    H258058   6.454   2.859   2.955  1.6610  0.8247 -1.7801
12215TIP3   OH258059   1.372   4.847  14.783  0.3456  0.2357 -0.1167
12215TIP3    H158060   1.294   4.793  14.802  0.7810 -0.6906 -0.8640
12215TIP3    H258061   1.411   4.805  14.706  3.2217 -1.1194  1.9222
12216TIP3   OH258062   6.475   3.461   3.647 -0.1642  0.5682 -0.4868
12216TIP3    H158063   6.449   3.487   3.735 -0.9635 -1.9235  0.0750
12216TIP3    H258064   6.396   3.471   3.594  0.1934  1.6145 -0.8544
12217TIP3   OH258065   3.095   1.921   5.849 -0.3491  0.3077  0.2474
12217TIP3    H158066   3.064   1.859   5.915 -1.7411  0.6725 -0.0230
12217TIP3    H258067   3.020   1.979   5.834  0.7843  1.8313  0.2229
12218TIP3   OH258068   1.174   4.236  15.606  0.5871 -0.1809 -0.3785
12218TIP3    H158069   1.160   4.164  15.545  0.6731  0.4598 -1.1709
12218TIP3    H258070   1.267   4.235  15.625  0.2825 -1.6000  1.3140
12219TIP3   OH258071   2.087   3.534  12.061  0.1859  0.6405 -0.1436
12219TIP3    H158072   2.075   3.493  11.975 -1.1000 -0.1570  0.3758
12219TIP3    H258073   2.182   3.543  12.071  0.8053 -3.9295  0.4276
12220TIP3   OH258074   6.724   4.467  14.624 -0.1702 -0.5628 -0.3720
12220TIP3    H158075   6.713   4.535  14.690 -0.3279  0.0393 -1.0013
12220TIP3    H258076   6.813   4.434  14.638 -0.2690 -0.5740  0.2553
12221TIP3   OH258077   1.986   2.308   4.176 -0.2129  0.6730  0.0332
12221TIP3    H158078   2.030   2.223   4.184 -1.5160 -0.1109 -0.9562
12221TIP3    H258079   2.030   2.350   4.102  1.3272  1.4673  1.3193
12222TIP3   OH258080   2.754   2.045  12.194  0.2178 -0.3429 -0.0437
12222TIP3    H158081   2.764   2.043  12.289 -1.3943  0.7688  0.2025
12222TIP3    H258082   2.664   2.017  12.179  0.2419  0.1412 -1.1865
12223TIP3   OH258083   4.894   3.171  11.761 -0.0922  0.2736 -0.8998
12223TIP3    H158084   4.851   3.221  11.831  0.2282 -1.6024  0.7047
12223TIP3    H258085   4.945   3.237  11.714  0.3205  1.5000  1.1332
12224TIP3   OH258086   1.059   3.746  16.869 -0.7657 -0.1981  0.3588
12224TIP3    H158087   1.047   3.677  16.803  0.1760  0.4687 -0.5392
12224TIP3    H258088   0.985   3.735  16.929 -0.6782 -1.9429  0.2095
12225TIP3   OH258089   0.978   1.306  12.016  0.2232  0.6446  0.0934
12225TIP3    H158090   1.035   1.270  12.084  0.8626  1.5200  0.0378
12225TIP3    H258091   0.895   1.260  12.028  1.3983 -1.9401 -0.9235
12226TIP3   OH258092   6.166   6.254  14.837  0.3967  0.5016 -0.4173
12226TIP3    H158093   6.163   6.168  14.878  0.5830  0.1319 -1.1702
12226TIP3    H258094   6.249   6.256  14.790 -0.1463  0.6138 -1.4092
12227TIP3   OH258095   2.302   2.892   3.829  0.1079 -0.2072  0.1710
12227TIP3    H158096   2.339   2.979   3.812 -0.1768  0.2391  1.6809
12227TIP3    H258097   2.324   2.841   3.751 -1.9429  1.9094 -1.9980
12228TIP3   OH258098   4.389   6.290  16.506  0.7481 -0.0498 -0.2350
12228TIP3    H158099   4.336   6.211  16.513 -0.5577  0.7156 -0.8875
12228TIP3    H258100   4.472   6.268  16.549 -0.2587 -1.1451  1.2541
12229TIP3   OH258101   6.312   2.865  13.362 -0.1529 -0.4147  0.4282
12229TIP3    H158102   6.234   2.917  13.377  0.3458  0.4901 -0.0600
12229TIP3    H258103   6.283   2.793  13.305 -0.9205 -0.9059  1.4189
12230TIP3   OH258104   2.268   5.980  16.099 -0.1873 -0.4396 -0.7128
12230TIP3    H158105   2.187   6.030  16.091 -0.1830  0.0771  1.7482
12230TIP3    H258106   2.313   5.994  16.015 -0.7726  2.6560 -0.6350
12231TIP3   OH258107   5.230   3.487   2.597 -0.0694 -0.0629 -0.1281
12231TIP3    H158108   5.266   3.537   2.523  0.0343  0.4410  0.2530
12231TIP3    H258109   5.270   3.527   2.674 -2.1979  1.2256  0.4093
12232TIP3   OH258110   0.063   0.263   3.670 -0.3798 -0.7376  0.3333
12232TIP3    H158111   0.156   0.261   3.694  0.2056  1.7298 -1.3579
12232TIP3    H258112   0.016   0.252   3.752  1.3507 -2.8242  1.1394
12233TIP3   OH258113   6.709   4.807   0.242  0.1614 -0.5788  0.3814
12233TIP3    H158114   6.646   4.783   0.174  1.0981  0.6590 -0.9860
12233TIP3    H258115   6.726   4.725   0.289  0.7498 -1.8860 -1.9508
12234TIP3   OH258116   4.276   1.087   4.136 -0.1782  0.1091 -0.1435
12234TIP3    H158117   4.370   1.070   4.140 -0.0571  0.8766  1.2037
12234TIP3    H258118   4.270   1.182   4.121 -0.7330  0.0869 -0.0694
12235TIP3   OH258119   6.490   1.918  11.937 -0.2836 -0.0032 -0.4791
12235TIP3    H158120   6.544   1.840  11.950 -2.5344 -1.6770 -0.5607
12235TIP3    H258121   6.552   1.991  11.945  1.9278 -1.7509 -0.3849
12236TIP3   OH258122   2.633   4.300  14.055  0.3923  0.3089  0.2305
12236TIP3    H158123   2.609   4.208  14.069  1.7118 -0.6977 -3.0936
12236TIP3    H258124   2.723   4.306  14.086  0.2470  0.5863  0.6199
12237TIP3   OH258125   5.788   4.962   4.810  0.5137 -0.2315  0.2109
12237TIP3    H158126   5.855   4.920   4.756  0.6602 -0.2521  0.4042
12237TIP3    H258127   5.833   4.980   4.893  0.1818 -0.5726  0.4698
12238TIP3   OH258128   4.087   2.364   3.755  0.4039 -0.3478  0.6425
12238TIP3    H158129   4.014   2.346   3.695  2.7778 -0.5395 -2.4545
12238TIP3    H258130   4.051   2.350   3.842 -2.7672 -2.1752 -0.7907
12239TIP3   OH258131   0.235   3.610   2.737 -0.4671  0.2840  0.2443
12239TIP3    H158132   0.163   3.639   2.682 -0.7772 -0.2262  0.3824
12239TIP3    H258133   0.294   3.565   2.677 -0.5771  0.1381  0.2457
12240TIP3   OH258134   4.078   3.081   1.327  0.1050  0.1102 -0.3676
12240TIP3    H158135   4.042   3.055   1.412  0.3951 -1.2474 -0.6364
12240TIP3    H258136   4.162   3.036   1.322  1.8392  2.9868  0.1459
12241TIP3   OH258137   2.473   5.801   1.665  0.8506 -0.4118 -0.1065
12241TIP3    H158138   2.562   5.834   1.652  0.9769  0.0493  1.6240
12241TIP3    H258139   2.447   5.836   1.750 -1.0695 -0.3887 -0.6603
12242TIP3   OH258140   3.217   4.107  13.567 -0.2078 -0.0161  0.2996
12242TIP3    H158141   3.128   4.084  13.593  0.3412 -1.9847  0.6131
12242TIP3    H258142   3.266   4.025  13.576  1.2179  0.5484 -1.6857
12243TIP3   OH258143   0.838   1.504  12.464  0.6299 -0.4909 -0.1259
12243TIP3    H158144   0.886   1.430  12.427  1.6623 -0.1543  0.5258
12243TIP3    H258145   0.792   1.468  12.539  1.4611 -0.3900  0.4362
12244TIP3   OH258146   5.586   6.164   5.977  0.3976 -0.1939  0.6419
12244TIP3    H158147   5.536   6.212   6.043  1.3794  0.4226  0.9572
12244TIP3    H258148   5.575   6.214   5.897  0.2817 -0.2146  0.6450
12245TIP3   OH258149   1.667   1.382   0.330 -0.3869  0.4223 -0.4988
12245TIP3    H158150   1.690   1.379   0.238  2.3737 -1.5947  0.1161
12245TIP3    H258151   1.676   1.291   0.360  0.9350  1.3184  2.1743
12246TIP3   OH258152   2.823   6.503  13.424 -0.1153  0.1228 -0.1814
12246TIP3    H158153   2.886   6.575  13.434 -0.7406  0.6663 -0.0817
12246TIP3    H258154   2.837   6.471  13.335  1.4894 -0.9063  0.4169
12247TIP3   OH258155   0.771   1.629  17.095 -0.0560  0.4419  0.0534
12247TIP3    H158156   0.693   1.660  17.049  0.6911  2.0057 -0.2075
12247TIP3    H258157   0.756   1.652  17.187 -0.3248 -0.1675  0.1684
12248TIP3   OH258158   5.867   2.699   5.010 -0.8914  0.1465 -0.0302
12248TIP3    H158159   5.858   2.723   5.102 -0.4663 -1.6106  0.5261
12248TIP3    H258160   5.952   2.733   4.984 -0.3963 -0.5090  0.6629
12249TIP3   OH258161   1.168   4.970   0.152  0.1663 -0.5298  0.0965
12249TIP3    H158162   1.119   4.977   0.070  1.7601 -0.6312 -0.9030
12249TIP3    H258163   1.259   4.965   0.125  0.6343 -2.1054  1.8211
12250TIP3   OH258164   5.339   4.071   2.557  0.5499 -0.3400 -0.2282
12250TIP3    H158165   5.367   4.138   2.621  0.8007  0.0407 -0.7290
12250TIP3    H258166   5.259   4.035   2.595  0.6080 -0.0084  0.2312
12251TIP3   OH258167   6.361   2.107   3.953 -0.1970  0.8201  0.0478
12251TIP3    H158168   6.415   2.126   3.877  0.9025 -1.6480  0.1153
12251TIP3    H258169   6.382   2.176   4.016  0.7332  1.4887 -0.9740
12252TIP3   OH258170   5.823   5.413  14.950  0.2079  0.8032 -0.0842
12252TIP3    H158171   5.737   5.401  14.991  0.9975 -2.7837  0.8971
12252TIP3    H258172   5.883   5.423  15.024  1.2163 -2.3509 -0.3212
12253TIP3   OH258173   3.702   2.759  16.797 -0.3813 -0.7088 -0.9515
12253TIP3    H158174   3.693   2.826  16.864 -0.7454  0.2874 -1.9681
12253TIP3    H258175   3.730   2.681  16.845  0.7527  0.3367  0.1556
12254TIP3   OH258176   3.265   5.122   4.186  0.1701 -0.2121 -0.6066
12254TIP3    H158177   3.231   5.207   4.214 -0.8309 -0.0421 -2.2268
12254TIP3    H258178   3.340   5.107   4.243  0.7334  2.0311 -0.6683
12255TIP3   OH258179   2.153   1.356   3.254  0.2378  0.2747  0.6176
12255TIP3    H158180   2.078   1.397   3.211  0.6715  0.2991 -0.1402
12255TIP3    H258181   2.226   1.417   3.241  0.1720  0.7581  2.2691
12256TIP3   OH258182   4.209   0.131  10.842  0.0782 -0.3280  0.0578
12256TIP3    H158183   4.209   0.177  10.758  0.0357 -1.2113 -0.4357
12256TIP3    H258184   4.297   0.094  10.850 -0.2589 -1.1934 -0.1345
12257TIP3   OH258185   1.921   5.566  14.499 -0.4293  0.2183 -0.4632
12257TIP3    H158186   1.850   5.554  14.563  0.3490 -0.6052  0.2736
12257TIP3    H258187   1.939   5.660  14.500 -1.3117  0.3975 -0.4481
12258TIP3   OH258188   3.447   3.130   3.725 -0.7972 -0.2700 -0.2750
12258TIP3    H158189   3.535   3.132   3.761 -0.3867 -0.6099 -1.2294
12258TIP3    H258190   3.400   3.066   3.778 -0.1299 -0.9540 -0.4935
12259TIP3   OH258191   5.726   3.834   3.369 -0.3317 -0.1003 -0.3117
12259TIP3    H158192   5.784   3.899   3.409 -0.1348 -0.2059 -0.4246
12259TIP3    H258193   5.777   3.753   3.369 -0.9859 -0.5283  0.8476
12260TIP3   OH258194   5.067   0.197   1.987 -0.2888 -0.2244  0.1777
12260TIP3    H158195   5.134   0.133   2.012 -0.0132 -0.3891 -0.9310
12260TIP3    H258196   5.046   0.175   1.896 -0.0834  1.3488 -0.2782
12261TIP3   OH258197   3.903   4.305  16.075  0.5642 -0.1115 -0.0566
12261TIP3    H158198   3.821   4.302  16.026  0.5144 -0.1398  0.0294
12261TIP3    H258199   3.887   4.368  16.145  0.7904  0.2908 -0.3605
12262TIP3   OH258200   6.679   2.930  13.765 -0.0406 -0.0502 -0.0890
12262TIP3    H158201   6.755   2.938  13.823 -0.6691 -0.1056  0.7557
12262TIP3    H258202   6.656   2.837  13.768  0.0861 -0.1065 -0.6537
12263TIP3   OH258203   2.484   6.274   4.159  0.1534  0.4468  0.5472
12263TIP3    H158204   2.469   6.243   4.248  0.3216  1.4033  0.9162
12263TIP3    H258205   2.526   6.199   4.115  2.0113  0.6466  1.8613
12264TIP3   OH258206   5.165   2.737   6.024 -0.0873 -0.0896 -0.1483
12264TIP3    H158207   5.182   2.727   6.118 -3.4846  0.4174  0.6606
12264TIP3    H258208   5.127   2.825   6.017  0.2442 -0.0744 -2.0612
12265TIP3   OH258209   6.547   0.615  16.778  0.5018 -0.4222 -0.2119
12265TIP3    H158210   6.464   0.608  16.731  1.0047  2.0442 -1.6616
12265TIP3    H258211   6.613   0.588  16.715  0.8725 -2.5620  0.9965
12266TIP3   OH258212   5.845   6.034   3.090 -0.0372 -0.2805 -0.2647
12266TIP3    H158213   5.869   5.942   3.104  0.2284 -0.0522  0.9361
12266TIP3    H258214   5.751   6.036   3.107 -0.1631 -0.4418 -0.9265
12267TIP3   OH258215   3.761   6.263  11.805  0.3255 -0.1646 -0.6632
12267TIP3    H158216   3.777   6.346  11.850  1.3809 -1.4302  1.4919
12267TIP3    H258217   3.671   6.239  11.830  0.6982 -0.5702  0.3481
12268TIP3   OH258218   5.069   5.333  16.658  0.0061  0.7690 -0.6873
12268TIP3    H158219   5.074   5.373  16.571 -1.8175 -0.1698 -1.2638
12268TIP3    H258220   5.014   5.392  16.709 -0.8313  0.1725 -0.8768
12269TIP3   OH258221   6.273   1.091  12.043 -0.4690 -0.5033  0.5391
12269TIP3    H158222   6.189   1.045  12.042 -0.2901 -0.8987 -1.4697
12269TIP3    H258223   6.303   1.085  12.133 -1.2160 -2.9665  0.7034
12270TIP3   OH258224   5.270   2.167   3.360 -0.0908  0.2652 -0.0072
12270TIP3    H158225   5.298   2.238   3.302  3.5695 -0.3783  0.7260
12270TIP3    H258226   5.209   2.115   3.306  1.8232  0.6273 -2.7586
12271TIP3   OH258227   1.130   5.872  12.771  0.6785  0.1155 -0.4417
12271TIP3    H158228   1.039   5.842  12.766  0.8034 -0.6791  1.3245
12271TIP3    H258229   1.127   5.949  12.828  1.1209  0.0717 -0.3559
12272TIP3   OH258230   1.846   3.573   4.741 -0.0106 -0.5481  0.3608
12272TIP3    H158231   1.853   3.575   4.836  0.2097 -0.3283  0.3418
12272TIP3    H258232   1.772   3.631   4.721  1.1743  0.9969  0.2919
12273TIP3   OH258233   2.282   5.489   2.323 -0.0553  0.3683  0.2161
12273TIP3    H158234   2.256   5.402   2.291  0.7053 -0.3167  1.4150
12273TIP3    H258235   2.229   5.550   2.272 -0.1044 -0.7637 -1.1413
12274TIP3   OH258236   5.149   5.271   5.556  0.1284 -0.1662  0.0876
12274TIP3    H158237   5.059   5.249   5.533  0.0597 -0.8248  0.9407
12274TIP3    H258238   5.160   5.237   5.645  0.1482  2.8801  1.3854
12275TIP3   OH258239   0.050   2.150   6.024 -0.6237 -0.3410 -0.1784
12275TIP3    H158240   0.048   2.121   6.115 -0.6220 -1.2261 -0.4468
12275TIP3    H258241  -0.030   2.201   6.013  1.1286  3.1094  1.3346
12276TIP3   OH258242   5.143   2.782   3.378  0.3945 -0.6271  0.0028
12276TIP3    H158243   5.078   2.845   3.410 -0.6354 -1.7765  0.2489
12276TIP3    H258244   5.129   2.779   3.283  1.3319  0.4421 -0.2022
12277TIP3   OH258245   6.469   3.434  16.219 -0.0562  0.5376  0.0881
12277TIP3    H158246   6.524   3.362  16.251  0.6634  0.7574 -0.6309
12277TIP3    H258247   6.423   3.398  16.143  1.6170  1.3221 -1.3437
12278TIP3   OH258248   6.006   2.211   3.906  0.7225  0.3109 -0.2585
12278TIP3    H158249   6.062   2.262   3.964 -0.2033 -1.1376  2.0647
12278TIP3    H258250   6.066   2.173   3.842  2.2181 -0.0711  1.3051
12279TIP3   OH258251   3.287   1.253  15.181  0.9456  0.2273 -0.1967
12279TIP3    H158252   3.232   1.331  15.189  0.6545 -0.0689  0.7497
12279TIP3    H258253   3.350   1.260  15.252  0.9436 -0.3719 -0.1289
12280TIP3   OH258254   4.517   1.651  16.258 -0.0515  0.4441 -0.1752
12280TIP3    H158255   4.568   1.578  16.292  1.2253  2.1534  1.9070
12280TIP3    H258256   4.460   1.677  16.331  0.1032  1.9846 -0.5512
12281TIP3   OH258257   5.320   6.187  12.118 -0.0798 -0.1056 -0.2446
12281TIP3    H158258   5.387   6.253  12.131 -0.8136  0.5714  0.2152
12281TIP3    H258259   5.298   6.157  12.206 -0.3969 -0.2986 -0.3867
12282TIP3   OH258260   3.592   5.701   6.203  0.2692  0.4026 -0.0271
12282TIP3    H158261   3.523   5.759   6.236 -0.0907 -0.4880  0.8281
12282TIP3    H258262   3.619   5.650   6.279  0.1598 -0.9654 -0.8719
12283TIP3   OH258263   1.595   5.535  12.163  0.0872  0.3678 -0.1313
12283TIP3    H158264   1.609   5.538  12.068  0.6492  1.3922 -0.0288
12283TIP3    H258265   1.527   5.468  12.175 -1.3390  1.5214 -1.4232
12284TIP3   OH258266   2.259   1.327   1.551  0.2297  0.1900  0.0702
12284TIP3    H158267   2.242   1.338   1.457  1.1447 -0.2201 -0.1557
12284TIP3    H258268   2.172   1.324   1.591 -0.1691  1.8755 -0.5742
12285TIP3   OH258269   5.460   5.103   3.012  1.1353 -0.0613 -0.3247
12285TIP3    H158270   5.488   5.140   2.928  0.2392  0.4529 -0.4082
12285TIP3    H258271   5.441   5.180   3.067  0.6217 -0.3918 -0.0286
12286TIP3   OH258272   3.860   1.554   1.484 -0.5059  0.2139  0.3552
12286TIP3    H158273   3.810   1.579   1.407  0.2695  2.2032  0.4504
12286TIP3    H258274   3.888   1.637   1.523  3.1524 -0.7110  0.1245
12287TIP3   OH258275   1.457   4.099  15.366 -0.0723 -0.1159  0.2024
12287TIP3    H158276   1.421   4.050  15.440 -0.4543 -0.2386 -0.0641
12287TIP3    H258277   1.533   4.145  15.403  2.1226 -3.1630 -0.1265
12288TIP3   OH258278   3.920   5.608   0.911  0.6767  0.3843 -0.1822
12288TIP3    H158279   3.946   5.589   1.001 -1.7319 -0.6518  0.3735
12288TIP3    H258280   3.917   5.704   0.907  2.2388  0.4883  0.3435
12289TIP3   OH258281   2.944   0.471  11.148 -0.1302  0.2818  0.0749
12289TIP3    H158282   2.873   0.466  11.212 -0.9686 -2.8568 -0.9435
12289TIP3    H258283   3.006   0.403  11.176  1.0218  0.9520 -0.7477
12290TIP3   OH258284   5.868   5.280  12.467  0.0655  0.2696 -0.6523
12290TIP3    H158285   5.963   5.263  12.467 -0.0995 -1.5948  2.4198
12290TIP3    H258286   5.834   5.229  12.393  1.2162 -1.5720 -0.0052
12291TIP3   OH258287   0.540   2.042  17.173  0.1623  0.4582 -0.1697
12291TIP3    H158288   0.599   2.117  17.183 -0.1715  0.5630  1.2401
12291TIP3    H258289   0.599   1.967  17.167  0.5653  0.3118  3.2412
12292TIP3   OH258290   6.707   1.805  13.985  0.0927  0.1925  0.3502
12292TIP3    H158291   6.779   1.753  14.021 -1.1850 -0.7305  1.6990
12292TIP3    H258292   6.652   1.824  14.061 -1.3258  0.4615 -0.7184
12293TIP3   OH258293   0.407   4.091  11.058 -0.1584 -0.3918  0.1530
12293TIP3    H158294   0.383   4.172  11.102 -0.3915 -0.6428  0.4905
12293TIP3    H258295   0.488   4.112  11.010 -1.2661  0.6040 -1.3785
12294TIP3   OH258296   0.571   1.684  12.499  0.0706  0.4010 -0.3037
12294TIP3    H158297   0.645   1.634  12.464 -0.4151  0.6433 -1.7451
12294TIP3    H258298   0.496   1.653  12.449 -1.1059 -0.8395  2.0909
12295TIP3   OH258299   3.193   2.148   2.775 -0.1377 -0.4387 -0.1173
12295TIP3    H158300   3.199   2.053   2.774  0.5909 -0.4224  0.6113
12295TIP3    H258301   3.157   2.169   2.861  0.8082 -0.0317  0.2017
12296TIP3   OH258302   6.347   5.715   5.087  0.1873 -0.0061 -0.3037
12296TIP3    H158303   6.318   5.635   5.132  0.9342 -0.6818 -0.9835
12296TIP3    H258304   6.267   5.751   5.047 -0.4991  0.6477  1.5791
12297TIP3   OH258305   1.572   3.140   1.545  0.0827 -0.1118 -0.6909
12297TIP3    H158306   1.635   3.080   1.505  0.6312  0.1900 -0.2833
12297TIP3    H258307   1.597   3.144   1.637 -2.0950 -1.9850  0.0740
12298TIP3   OH258308   1.959   3.804   1.408 -0.2641  0.3845  0.2294
12298TIP3    H158309   1.936   3.812   1.501  0.3364 -0.7049  0.4887
12298TIP3    H258310   2.023   3.874   1.394 -0.1353  0.3710  0.7159
12299TIP3   OH258311   2.629   5.943  15.877 -0.4177 -0.4124 -0.4351
12299TIP3    H158312   2.639   5.955  15.783  1.9367 -1.5262 -0.3899
12299TIP3    H258313   2.569   6.013  15.904 -1.3310 -0.2175 -2.7659
12300TIP3   OH258314   0.708   4.704  11.311 -0.5470 -0.6900  0.2168
12300TIP3    H158315   0.789   4.726  11.263 -0.2328 -0.7056  0.7294
12300TIP3    H258316   0.727   4.730  11.401 -0.3302 -2.6261  0.7684
12301TIP3   OH258317   4.540   5.228  15.514 -0.1102  0.4027  0.0942
12301TIP3    H158318   4.527   5.195  15.425 -2.4398 -0.1523  0.5910
12301TIP3    H258319   4.561   5.150  15.566 -0.2963  0.4882  0.3001
12302TIP3   OH258320   6.320   3.949   2.297  0.4581 -0.3948 -0.2609
12302TIP3    H158321   6.339   4.030   2.343  1.2433 -0.3281 -0.6951
12302TIP3    H258322   6.262   3.901   2.357  0.2023  0.3584  0.1122
12303TIP3   OH258323   5.247   1.216   1.706 -0.1424  0.2981  0.6059
12303TIP3    H158324   5.252   1.163   1.786  1.4891  0.0805  0.3896
12303TIP3    H258325   5.206   1.158   1.642 -0.1036 -0.0337  0.8780
12304TIP3   OH258326   4.524   0.155  15.543  0.1390 -0.1352 -0.4637
12304TIP3    H158327   4.586   0.165  15.471 -0.0814 -0.9512 -0.7689
12304TIP3    H258328   4.577   0.170  15.622  0.4705  0.3255 -0.7740
12305TIP3   OH258329   0.449   3.487  14.133  0.4533 -0.1503  0.3379
12305TIP3    H158330   0.492   3.402  14.141  1.3676  0.3281  0.7267
12305TIP3    H258331   0.503   3.536  14.071  1.0627  0.7898  1.5477
12306TIP3   OH258332   2.481   5.106   4.793  0.7876 -0.0697 -0.9932
12306TIP3    H158333   2.473   5.178   4.731 -0.2647 -0.6908 -1.6123
12306TIP3    H258334   2.525   5.037   4.744 -0.6749 -0.8164 -1.3108
12307TIP3   OH258335   5.620   5.109  14.827  0.4060  0.0819 -0.8148
12307TIP3    H158336   5.635   5.039  14.891  2.1950 -0.6263 -1.9259
12307TIP3    H258337   5.576   5.066  14.755  2.2460 -0.1575 -1.8597
12308TIP3   OH258338   4.914   2.914   4.975  0.3493 -0.4316  0.2205
12308TIP3    H158339   4.850   2.879   4.913 -0.5340 -0.6036  1.2055
12308TIP3    H258340   4.998   2.884   4.942  0.1720  1.3775 -2.1898
12309TIP3   OH258341   6.471   2.573  13.197  0.5430 -0.3331 -0.6442
12309TIP3    H158342   6.464   2.527  13.280  0.8136 -3.2837 -2.1320
12309TIP3    H258343   6.382   2.572  13.161  0.4597  0.7716 -0.5041
12310TIP3   OH258344   2.220   3.403  16.255  0.2604 -0.1080 -0.2788
12310TIP3    H158345   2.264   3.319  16.272  0.1154 -0.0985  0.1689
12310TIP3    H258346   2.136   3.394  16.300 -0.5695 -0.4686 -1.8634
12311TIP3   OH258347   5.090   2.418   2.451 -0.1952 -0.3655 -0.4811
12311TIP3    H158348   5.165   2.458   2.406  0.7076 -0.1742  1.1383
12311TIP3    H258349   5.123   2.333   2.481 -1.0242 -0.8215 -0.8328
12312TIP3   OH258350   4.686   2.729  13.606  0.0614 -0.2784  0.3510
12312TIP3    H158351   4.714   2.684  13.686 -2.9800 -2.6388  0.2484
12312TIP3    H258352   4.702   2.665  13.536 -0.2793  0.5052 -0.4580
12313TIP3   OH258353   0.066   0.641   3.096 -0.1545 -0.0865 -0.4755
12313TIP3    H158354   0.077   0.626   3.190 -1.7210 -1.8059 -0.4915
12313TIP3    H258355   0.130   0.708   3.074  0.4292  0.1681  1.7668
12314TIP3   OH258356   2.431   4.302   5.159  0.0771  0.4643 -0.1903
12314TIP3    H158357   2.429   4.318   5.065  2.3139  0.8128 -0.2297
12314TIP3    H258358   2.419   4.389   5.198 -0.6492  0.3492 -0.1585
12315TIP3   OH258359   5.753   1.206  17.178 -0.5347 -0.5605 -0.1522
12315TIP3    H158360   5.662   1.236  17.171 -0.2426  0.3000 -0.2509
12315TIP3    H258361   5.745   1.113  17.202 -1.4812  0.3834  4.0471
12316TIP3   OH258362   1.512   1.939   4.679 -0.9239  0.5360  0.0275
12316TIP3    H158363   1.417   1.927   4.686 -1.3451  3.5117  0.6619
12316TIP3    H258364   1.541   1.958   4.768 -0.2070  2.3138 -0.5502
12317TIP3   OH258365   5.663   4.710   2.961  0.0491  0.1520 -0.3046
12317TIP3    H158366   5.739   4.747   3.005  0.8670 -1.0082 -0.7047
12317TIP3    H258367   5.699   4.659   2.888 -1.2364  1.5911 -2.0467
12318TIP3   OH258368   0.440   3.893   4.209 -0.2867  0.3825  0.3609
12318TIP3    H158369   0.500   3.935   4.147  1.2651  0.4508  1.8426
12318TIP3    H258370   0.394   3.965   4.252 -0.7597  0.3628 -0.0953
12319TIP3   OH258371   6.539   4.149   2.825  0.5114  0.4733  0.7151
12319TIP3    H158372   6.591   4.093   2.883  1.0871  0.0369 -0.1970
12319TIP3    H258373   6.602   4.183   2.761  0.1427  2.0325  1.1263
12320TIP3   OH258374   5.026   5.894   5.090 -0.5912  0.6724 -0.0498
12320TIP3    H158375   4.999   5.845   5.012  0.7264 -0.2450  0.0370
12320TIP3    H258376   5.106   5.938   5.063  0.0716  0.0551  0.8801
12321TIP3   OH258377   2.147   6.225  14.343  0.4945  0.0418 -0.0737
12321TIP3    H158378   2.176   6.261  14.427  0.0048 -0.6846  0.4145
12321TIP3    H258379   2.077   6.164  14.366  0.2279 -0.0194 -1.0315
12322TIP3   OH258380   4.379   0.872  13.313  0.6260 -0.2933 -0.0691
12322TIP3    H158381   4.299   0.901  13.355 -0.2308 -1.1877 -1.0082
12322TIP3    H258382   4.351   0.847  13.224  1.3546 -3.2640  0.4153
12323TIP3   OH258383   5.547   3.071  11.467  0.2514  0.3336 -0.0667
12323TIP3    H158384   5.531   3.127  11.391 -1.5928  0.3274  0.2648
12323TIP3    H258385   5.538   2.981  11.433  2.7980  0.1756 -0.5105
12324TIP3   OH258386   1.689   6.285   0.403 -0.2271  0.4044 -1.0640
12324TIP3    H158387   1.678   6.380   0.403 -1.3105  0.4481  2.4282
12324TIP3    H258388   1.614   6.252   0.353 -2.5898  1.4302  1.4935
12325TIP3   OH258389   4.451   3.335   2.404  0.3320 -0.4591 -0.0359
12325TIP3    H158390   4.378   3.313   2.462 -0.4109  0.4926 -0.6032
12325TIP3    H258391   4.469   3.254   2.357 -1.7384 -0.1879 -1.4041
12326TIP3   OH258392   4.227   2.189   0.658  0.1649  0.2560  0.3347
12326TIP3    H158393   4.210   2.105   0.615  0.8281  0.2493  0.0777
12326TIP3    H258394   4.287   2.234   0.599 -0.4271  1.0454  0.3174
12327TIP3   OH258395   6.181   1.185   4.300  0.3099  0.5761 -0.0723
12327TIP3    H158396   6.270   1.153   4.316  0.4413  1.4929  1.1418
12327TIP3    H258397   6.126   1.107   4.305  1.2708 -0.5048 -3.5779
12328TIP3   OH258398   0.262   1.153   2.679  0.2564  0.2635  0.2573
12328TIP3    H158399   0.325   1.224   2.691  0.6118  0.2515 -1.3099
12328TIP3    H258400   0.260   1.138   2.584 -2.6389  0.7501  0.1257
12329TIP3   OH258401   2.620   6.657  14.278  0.1485  0.2652  0.1074
12329TIP3    H158402   2.664   6.686  14.197 -2.1414  0.3572 -1.1897
12329TIP3    H258403   2.566   6.583  14.251  0.2276 -0.4849  1.8567
12330TIP3   OH258404   5.081   2.611  11.199  0.1049  0.1935  0.3339
12330TIP3    H158405   5.011   2.661  11.157  0.0541 -0.5667 -0.5178
12330TIP3    H258406   5.054   2.520  11.191 -0.4552  0.0492  3.0572
12331TIP3   OH258407   4.418   6.118  12.796  0.3343 -0.3555  0.2332
12331TIP3    H158408   4.426   6.053  12.865 -1.1737  0.5575  1.3166
12331TIP3    H258409   4.351   6.179  12.827  1.1938  1.3324 -1.0501
12332TIP3   OH258410   5.344   4.455  15.038  0.6722 -0.3520  0.0512
12332TIP3    H158411   5.385   4.382  15.084 -0.4599 -0.7709  0.4151
12332TIP3    H258412   5.356   4.435  14.945  1.0018 -0.6248  0.1492
12333TIP3   OH258413   2.147   5.849  13.462 -0.6520 -0.4784 -0.3304
12333TIP3    H158414   2.207   5.920  13.441 -0.5978 -0.4440 -0.0606
12333TIP3    H258415   2.067   5.870  13.413 -1.3920  0.8843  1.3164
12334TIP3   OH258416   6.098   4.694  15.178  0.6158  0.1279  0.1217
12334TIP3    H158417   6.008   4.714  15.149  0.8273  0.0062 -0.6271
12334TIP3    H258418   6.117   4.763  15.242 -0.0663  0.0672  0.4069
12335TIP3   OH258419   4.952   5.656  12.253  0.4885 -0.3246 -0.0087
12335TIP3    H158420   5.044   5.680  12.242  0.3969  0.3932  0.7262
12335TIP3    H258421   4.903   5.731  12.220  0.1609 -0.5998 -0.1622
12336TIP3   OH258422   2.383   3.182   1.077 -0.3353  0.4312 -0.3595
12336TIP3    H158423   2.386   3.120   1.004 -0.3468 -1.7304  1.3733
12336TIP3    H258424   2.423   3.262   1.042 -0.2693 -0.5379 -2.6832
12337TIP3   OH258425   1.798   0.039   4.437 -0.0799  0.0403  0.0051
12337TIP3    H158426   1.719   0.093   4.433  0.0159  0.1543 -0.3662
12337TIP3    H258427   1.786  -0.014   4.516  0.2550  1.2674  0.9172
12338TIP3   OH258428   4.279   6.037  12.484  0.1579  0.1702  0.0947
12338TIP3    H158429   4.314   6.066  12.568 -0.9510  0.1318  0.5924
12338TIP3    H258430   4.227   6.110  12.452  0.2201  0.0239 -0.3598
12339TIP3   OH258431   3.592   0.003   3.441  0.0057 -0.1719  0.5855
12339TIP3    H158432   3.595   0.077   3.501  2.0031  0.6192 -0.3981
12339TIP3    H258433   3.543   0.034   3.366  0.0442 -0.1537  0.5676
12340TIP3   OH258434   0.273   3.510  11.879  0.1166  0.2419  0.2016
12340TIP3    H158435   0.298   3.450  11.808 -0.8069  0.3628 -0.2394
12340TIP3    H258436   0.283   3.597  11.841  1.1655  0.3806  0.7483
12341TIP3   OH258437   3.923   2.811  16.587 -0.2245 -0.0412  0.1485
12341TIP3    H158438   3.865   2.766  16.649 -0.5562  0.5506  0.2746
12341TIP3    H258439   3.869   2.829  16.511 -0.8967  2.4547  1.0928
12342TIP3   OH258440   3.974   4.011  13.664  0.0607  0.5245 -0.1840
12342TIP3    H158441   4.018   3.932  13.694  0.9010  0.8305 -0.5785
12342TIP3    H258442   3.943   4.053  13.745  2.3025  1.3452  0.3348
12343TIP3   OH258443   5.088   1.332  10.522  0.1597 -0.1025  0.8190
12343TIP3    H158444   5.065   1.399  10.458 -0.1882  1.1861  2.2356
12343TIP3    H258445   5.004   1.293  10.547  0.1379  0.3300  1.4506
12344TIP3   OH258446   3.988   5.755   1.701  0.2170  0.3437  0.9425
12344TIP3    H158447   3.923   5.686   1.710  1.7170 -1.3167 -0.1591
12344TIP3    H258448   3.954   5.812   1.632  0.5188 -1.3317 -0.6792
12345TIP3   OH258449   1.212   2.782   5.906  0.4704  0.0838 -0.0631
12345TIP3    H158450   1.234   2.834   5.828  1.8984 -2.5031 -1.5502
12345TIP3    H258451   1.181   2.699   5.870 -0.5286 -0.5785  2.1812
12346TIP3   OH258452   2.049   0.533   0.324 -0.5107 -0.2767 -0.3738
12346TIP3    H158453   2.127   0.557   0.275 -0.7329  1.0762 -0.1104
12346TIP3    H258454   1.985   0.601   0.303 -0.6052  0.3781  1.7702
12347TIP3   OH258455   6.000   6.513  15.171  0.0791  0.6591  0.3350
12347TIP3    H158456   5.954   6.536  15.252  0.5872  0.9600  0.5441
12347TIP3    H258457   5.999   6.418  15.169  0.0976  0.6490  0.7155
12348TIP3   OH258458   5.845   4.423  16.352 -0.2592  0.0761 -0.0839
12348TIP3    H158459   5.878   4.357  16.413 -0.6742  0.1176  0.1865
12348TIP3    H258460   5.827   4.374  16.272 -0.1011 -0.0508 -0.0441
12349TIP3   OH258461   2.541   3.121   5.695 -0.0515  0.1032 -0.2710
12349TIP3    H158462   2.587   3.127   5.611  1.3358  2.4642  0.5583
12349TIP3    H258463   2.487   3.042   5.687  2.6889 -1.7959 -2.0469
12350TIP3   OH258464   3.977   2.065   1.750  0.0397 -0.1872  0.1255
12350TIP3    H158465   3.983   2.007   1.826  0.8742 -1.5782 -0.9407
12350TIP3    H258466   4.010   2.149   1.781 -1.8723 -0.0074  1.9219
12351TIP3   OH258467   5.088   0.530   3.146 -0.3126 -0.1807 -0.3748
12351TIP3    H158468   5.044   0.446   3.135  0.1962 -0.4521 -0.3459
12351TIP3    H258469   5.163   0.511   3.203 -1.9597  0.8644  2.3535
12352TIP3   OH258470   5.296   4.973  11.460  0.3830  0.3938 -0.3559
12352TIP3    H158471   5.205   4.944  11.455  0.2445  0.2165  2.0577
12352TIP3    H258472   5.341   4.922  11.392 -1.4037  1.0684 -2.1303
12353TIP3   OH258473   1.251   6.723   0.326  0.3180  0.1617  0.2249
12353TIP3    H158474   1.335   6.689   0.356 -0.0596 -0.8409  0.1610
12353TIP3    H258475   1.261   6.733   0.231  0.7592  1.1939  0.3706
12354TIP3   OH258476   0.909   5.052   1.630 -0.1064 -0.2194 -0.3531
12354TIP3    H158477   0.891   4.973   1.680 -2.0177  0.0167 -0.5706
12354TIP3    H258478   0.967   5.023   1.559 -1.6705 -1.7067 -1.1063
12355TIP3   OH258479   0.507   6.548  14.041  0.3333  0.2402  0.0706
12355TIP3    H158480   0.455   6.501  13.977 -1.1017  0.1091  1.2646
12355TIP3    H258481   0.584   6.577  13.993 -0.6006  0.0130 -1.6478
12356TIP3   OH258482   3.570   4.518  10.878 -0.2055 -0.1636  0.4821
12356TIP3    H158483   3.580   4.609  10.849 -1.5398 -0.1385  0.0380
12356TIP3    H258484   3.515   4.478  10.812 -0.2328 -1.1127  1.0621
12357TIP3   OH258485   3.951   4.625  10.663  0.3117 -0.4168 -0.2265
12357TIP3    H158486   3.875   4.676  10.638  0.3649  0.4252  1.2369
12357TIP3    H258487   3.960   4.559  10.594 -0.1865  1.0760 -1.7758
12358TIP3   OH258488   3.017   5.904   2.455  0.2724  0.6170 -0.5324
12358TIP3    H158489   3.094   5.891   2.510  0.6209  1.1110 -0.8896
12358TIP3    H258490   3.035   5.854   2.375 -0.2018 -0.0427 -0.2433
12359TIP3   OH258491   3.645   6.734   4.673 -0.4650  0.2128 -0.2762
12359TIP3    H158492   3.562   6.755   4.630 -0.3473 -0.1212 -0.6761
12359TIP3    H258493   3.621   6.711   4.763 -0.8468 -0.2379 -0.4930
12360TIP3   OH258494   0.606   1.111  13.699 -0.0852  1.2192 -0.2569
12360TIP3    H158495   0.539   1.097  13.632  1.2389 -0.8368 -1.2600
12360TIP3    H258496   0.603   1.030  13.751  2.8059  0.1860 -1.4916
12361TIP3   OH258497   4.489   3.857   0.229  0.1435  0.1165  0.2777
12361TIP3    H158498   4.435   3.911   0.287  0.3626  1.0049 -0.3116
12361TIP3    H258499   4.499   3.911   0.150  0.2426 -0.8678 -0.3918
12362TIP3   OH258500   4.371   1.252   3.288 -0.9692 -0.0131  0.3179
12362TIP3    H158501   4.280   1.246   3.259 -0.9265  1.9890 -0.3849
12362TIP3    H258502   4.365   1.263   3.383 -1.4265 -0.3499  0.3324
12363TIP3   OH258503   0.535   6.298   5.496 -0.5387 -0.8668  0.2847
12363TIP3    H158504   0.498   6.250   5.422 -2.8594 -0.9224  1.3851
12363TIP3    H258505   0.601   6.239   5.532  1.9445 -0.1434 -2.6723
12364TIP3   OH258506   0.134   4.800   2.482  0.0792 -0.0510  0.3526
12364TIP3    H158507   0.220   4.818   2.521  0.9243  1.1267 -1.8861
12364TIP3    H258508   0.090   4.885   2.480 -0.5622 -0.3833  0.2083
12365TIP3   OH258509   0.467   6.396  15.339 -0.1913  0.2976  0.2070
12365TIP3    H158510   0.546   6.362  15.380  0.8810  0.6123 -1.5178
12365TIP3    H258511   0.490   6.484  15.312 -0.9846  0.2325 -0.7233
12366TIP3   OH258512   0.860   4.529  16.503 -0.4446  0.0406  0.2594
12366TIP3    H158513   0.873   4.604  16.445 -0.8340 -0.7757 -0.9317
12366TIP3    H258514   0.846   4.567  16.589 -0.5565  1.3362 -0.3063
12367TIP3   OH258515   2.188   3.223  11.459  0.1461 -0.0713 -0.2611
12367TIP3    H158516   2.251   3.236  11.388 -0.0689  1.0108 -0.2741
12367TIP3    H258517   2.105   3.206  11.414  0.1947 -0.3011 -0.2620
12368TIP3   OH258518   6.235   6.219  12.014 -0.2806  1.0646  0.5777
12368TIP3    H158519   6.208   6.273  11.940 -0.6407  0.9436  0.6189
12368TIP3    H258520   6.264   6.281  12.080  0.6745  1.1531  0.0982
12369TIP3   OH258521   2.604   1.161   2.611  0.0113  0.1098 -0.5916
12369TIP3    H158522   2.603   1.219   2.687 -0.1854  1.1472 -1.3531
12369TIP3    H258523   2.525   1.108   2.619  1.4818 -1.9695  1.4806
12370TIP3   OH258524   3.061   5.897  16.285  0.2484  0.0909  0.0530
12370TIP3    H158525   3.150   5.929  16.275 -0.2267  1.2725 -0.4674
12370TIP3    H258526   3.010   5.942  16.218 -0.8048 -0.3398  0.5315
12371TIP3   OH258527   2.879   6.255   4.827  0.4466 -0.1890 -0.0490
12371TIP3    H158528   2.803   6.273   4.772  0.6950  0.5163 -0.1653
12371TIP3    H258529   2.950   6.304   4.786  1.0129 -0.9814 -0.0433
12372TIP3   OH258530   2.867   3.578  14.403 -0.5152  0.2362 -0.0244
12372TIP3    H158531   2.844   3.522  14.329 -1.0319 -0.9633  0.9838
12372TIP3    H258532   2.906   3.656  14.364 -3.7470  1.1649 -1.7468
12373TIP3   OH258533   5.209   4.289  17.215 -0.1615  0.2507  0.8616
12373TIP3    H158534   5.149   4.299  17.288 -0.5689  0.7040  0.4682
12373TIP3    H258535   5.190   4.362  17.157  1.5290  1.0548  1.2500
12374TIP3   OH258536   5.445   3.733   0.705  0.4651  0.3710  0.0724
12374TIP3    H158537   5.415   3.783   0.780  0.2850  0.9801 -0.3973
12374TIP3    H258538   5.422   3.642   0.726 -2.6200  0.8712 -0.6681
12375TIP3   OH258539   6.183   1.475   6.425 -0.0632 -0.7389 -0.5011
12375TIP3    H158540   6.172   1.389   6.464 -0.6147 -0.5003 -0.1084
12375TIP3    H258541   6.217   1.458   6.338  0.3367 -1.3253 -0.2351
12376TIP3   OH258542   2.976   5.418  14.199 -0.2032 -0.3870  0.3001
12376TIP3    H158543   3.005   5.379  14.281  0.6503  0.4056  0.3951
12376TIP3    H258544   3.035   5.380  14.133  1.3249  1.4186  0.5269
12377TIP3   OH258545   3.354   4.470   4.848  0.1804 -0.4353 -0.2682
12377TIP3    H158546   3.442   4.440   4.872  0.6798 -0.2827 -1.7875
12377TIP3    H258547   3.348   4.558   4.886  1.3344  0.2122 -1.5037
12378TIP3   OH258548   0.089   5.302  13.318 -0.2073 -0.2800 -0.1754
12378TIP3    H158549   0.023   5.236  13.299  0.9140 -1.3636 -0.4360
12378TIP3    H258550   0.123   5.328  13.233 -1.0046  1.0693 -0.1162
12379TIP3   OH258551   5.601   6.290   3.171  0.3359 -0.1011 -0.0158
12379TIP3    H158552   5.589   6.196   3.185 -0.4086 -0.1704 -0.9659
12379TIP3    H258553   5.695   6.304   3.176  0.4252 -0.8447  0.4727
12380TIP3   OH258554   3.505   1.608   1.371  0.2357 -0.1566  0.2685
12380TIP3    H158555   3.581   1.592   1.314  0.5144 -0.3942  0.7017
12380TIP3    H258556   3.483   1.521   1.406 -0.1587 -0.0667  0.2483
12381TIP3   OH258557   6.142   6.125  14.462  0.8141  0.0240  1.2391
12381TIP3    H158558   6.167   6.033  14.453  1.6209  0.2053  1.4719
12381TIP3    H258559   6.047   6.124  14.472  0.5672 -0.6207 -0.7924
12382TIP3   OH258560   3.131   6.295   1.181  0.1333  0.3947 -0.2775
12382TIP3    H158561   3.126   6.292   1.276 -0.5203 -0.1111 -0.3250
12382TIP3    H258562   3.187   6.220   1.158 -0.5863 -0.1328 -0.3463
12383TIP3   OH258563   1.194   5.921  16.819 -0.8625 -0.3477 -0.1122
12383TIP3    H158564   1.176   5.983  16.889 -0.0899  0.0169 -0.2239
12383TIP3    H258565   1.117   5.924  16.763 -1.1811 -0.1113  0.3376
12384TIP3   OH258566   6.262   5.265  17.076 -0.0502  0.2005  0.0564
12384TIP3    H158567   6.243   5.355  17.102 -1.1953  0.2325 -0.8200
12384TIP3    H258568   6.358   5.261  17.072  0.0845  0.9337  1.5574
12385TIP3   OH258569   0.168   4.196  11.913 -0.0515  0.3623 -0.6145
12385TIP3    H158570   0.197   4.232  11.829 -0.4141 -0.9382 -1.3320
12385TIP3    H258571   0.080   4.231  11.926 -0.6111 -0.6352 -1.5626
12386TIP3   OH258572   4.084   5.347   4.719  0.7839 -0.0767  0.1985
12386TIP3    H158573   4.169   5.392   4.723  0.3306  0.9862 -1.4398
12386TIP3    H258574   4.106   5.254   4.716  1.8252  0.1160  1.0321
12387TIP3   OH258575   3.883   5.501   3.803  0.1202  0.1377  0.0782
12387TIP3    H158576   3.881   5.405   3.798 -0.5652  0.1420  0.1398
12387TIP3    H258577   3.976   5.523   3.808  0.2534 -0.5857  1.1947
12388TIP3   OH258578   0.728   6.553   5.015 -0.8133  0.0366  0.0351
12388TIP3    H158579   0.801   6.540   4.954 -1.3068  1.4873 -0.9180
12388TIP3    H258580   0.756   6.625   5.071 -0.5774 -0.9516  1.2258
12389TIP3   OH258581   5.166   2.462   4.327 -0.4429  0.2462 -0.3172
12389TIP3    H158582   5.141   2.507   4.247 -1.8219 -0.6211 -0.3990
12389TIP3    H258583   5.224   2.391   4.298 -1.5173 -0.5144 -0.6461
12390TIP3   OH258584   1.498   2.386   3.493 -0.3065 -0.0770 -0.2806
12390TIP3    H158585   1.402   2.385   3.492 -0.3218  0.6429  0.0615
12390TIP3    H258586   1.522   2.305   3.537 -0.7451 -0.5220 -0.8341
12391TIP3   OH258587   5.777   1.212   0.173 -0.0956 -0.3757  0.1367
12391TIP3    H158588   5.793   1.124   0.210 -0.2581 -0.4188  0.1043
12391TIP3    H258589   5.854   1.263   0.200 -0.3696 -0.3138  0.8343
12392TIP3   OH258590   4.007   2.094  16.108 -0.1194  0.1687 -0.1902
12392TIP3    H158591   4.085   2.074  16.161 -1.0659 -1.0138  0.8184
12392TIP3    H258592   4.016   2.187  16.087  1.3513  0.1596  0.2551
12393TIP3   OH258593   5.144   6.381  15.221  0.1937  0.1993  0.4389
12393TIP3    H158594   5.186   6.424  15.296 -0.3658  1.9869 -0.2363
12393TIP3    H258595   5.052   6.406  15.226  0.1569  0.4014 -0.8825
12394TIP3   OH258596   1.696   5.211   0.721  0.1941 -0.2893  0.2323
12394TIP3    H158597   1.750   5.144   0.680  0.6151 -0.1061  0.4808
12394TIP3    H258598   1.661   5.262   0.648 -0.0430 -0.7118  0.0484
12395TIP3   OH258599   4.498   1.396  12.719  0.5957  0.3232  0.1813
12395TIP3    H158600   4.570   1.456  12.697 -0.1260  1.0818 -0.1556
12395TIP3    H258601   4.423   1.428  12.669  0.3446 -1.2684 -0.5409
12396TIP3   OH258602   3.059   0.855   4.234  0.4564  0.0140 -0.2524
12396TIP3    H158603   3.054   0.860   4.329 -0.4310 -0.1948 -0.2829
12396TIP3    H258604   3.025   0.939   4.204  1.2516  0.3026 -0.3864
12397TIP3   OH258605   0.886   4.720  11.529  0.1753 -0.5915  0.0335
12397TIP3    H158606   0.971   4.694  11.494 -0.8007 -1.4911 -1.8324
12397TIP3    H258607   0.906   4.774  11.605  2.4246  0.2873 -1.1152
12398TIP3   OH258608   6.624   2.720  12.130 -0.1403 -0.0732 -0.0135
12398TIP3    H158609   6.637   2.767  12.213 -1.8318 -1.1144  0.8858
12398TIP3    H258610   6.535   2.686  12.135  0.0134 -0.8878 -1.9192
12399TIP3   OH258611   6.210   0.863   3.627  0.3739  0.1146 -0.0527
12399TIP3    H158612   6.233   0.833   3.715  1.2214 -0.8642 -0.5841
12399TIP3    H258613   6.267   0.939   3.612 -0.3048  0.7578  0.5049
12400TIP3   OH258614   5.654   6.322  11.311 -0.1719 -0.0027 -0.1051
12400TIP3    H158615   5.559   6.316  11.322 -0.7281  1.7964 -2.8509
12400TIP3    H258616   5.672   6.278  11.229  1.6001 -1.2289  0.8638
12401TIP3   OH258617   3.413   5.238   2.277  0.3458  0.0517  0.4169
12401TIP3    H158618   3.327   5.233   2.234  0.1972 -0.5063  0.7621
12401TIP3    H258619   3.476   5.238   2.205  0.0733 -0.2369  0.1730
12402TIP3   OH258620   6.667   3.952  14.623  0.0115  0.2471 -0.3616
12402TIP3    H158621   6.713   3.966  14.706  1.3317 -0.1718 -0.9884
12402TIP3    H258622   6.583   3.996  14.633  0.0519 -0.0106  1.2826
12403TIP3   OH258623   2.521   0.216   2.856 -0.5483  0.1458 -0.5848
12403TIP3    H158624   2.593   0.173   2.809 -2.1515 -0.9886 -2.1103
12403TIP3    H258625   2.467   0.144   2.888  0.2355  0.8893  2.7796
12404TIP3   OH258626   5.319   1.446  15.108  0.0482 -0.1569  0.2676
12404TIP3    H158627   5.289   1.360  15.080  0.0906 -0.5786  1.4512
12404TIP3    H258628   5.240   1.490  15.140  0.1907 -0.1347  0.5937
12405TIP3   OH258629   4.785   1.980   4.937 -0.1512 -0.4475  0.4086
12405TIP3    H158630   4.829   1.942   4.862 -0.3040 -0.1949  0.1856
12405TIP3    H258631   4.783   1.911   5.003 -0.9107 -1.0071 -0.1866
12406TIP3   OH258632   4.457   6.707   3.951 -0.2554 -0.2565  0.8068
12406TIP3    H158633   4.369   6.743   3.957  0.1763  1.4040 -1.4997
12406TIP3    H258634   4.515   6.783   3.959  0.7759 -0.7138 -1.5407
12407TIP3   OH258635   5.231   3.013   0.731  0.3557  0.0020 -0.5592
12407TIP3    H158636   5.169   3.084   0.710 -0.8382 -0.4296  1.3017
12407TIP3    H258637   5.267   3.037   0.816 -0.0995 -1.6111  0.1203
12408TIP3   OH258638   4.702   5.901   3.880 -0.0700  0.3467 -0.4502
12408TIP3    H158639   4.654   5.875   3.959  0.0935  0.8080 -0.1957
12408TIP3    H258640   4.758   5.973   3.909  1.9789 -1.1942 -0.3337
12409TIP3   OH258641   5.524   1.964   0.354  0.3194  0.6008  0.9337
12409TIP3    H158642   5.542   1.870   0.366 -0.1099  0.2391 -0.8290
12409TIP3    H258643   5.610   2.005   0.359  0.6256 -0.0115  0.9011
12410TIP3   OH258644   4.567   3.847   4.534  0.2389 -1.0001 -0.5301
12410TIP3    H158645   4.490   3.865   4.588 -0.2957 -0.4214 -1.4555
12410TIP3    H258646   4.630   3.916   4.557 -0.2749 -0.3017 -1.1741
12411TIP3   OH258647   1.197   3.212   4.922 -0.5399 -0.1640  0.3429
12411TIP3    H158648   1.285   3.175   4.925 -0.8030 -0.8005  0.2146
12411TIP3    H258649   1.171   3.219   5.014 -0.9708 -1.4578  0.3322
12412TIP3   OH258650   4.463   2.056   0.415  0.0941  0.2893 -0.0386
12412TIP3    H158651   4.489   2.057   0.323 -0.5148 -0.3655 -0.2331
12412TIP3    H258652   4.382   2.107   0.417  0.2054  0.4592  0.1725
12413TIP3   OH258653   5.448   4.830   4.601  0.3466 -0.1683 -0.1184
12413TIP3    H158654   5.365   4.786   4.586  0.1187 -0.4335  1.6304
12413TIP3    H258655   5.473   4.803   4.690  2.3519 -0.1815 -0.6441
12414TIP3   OH258656   2.561   2.853  12.214 -0.1135  0.1520  0.2453
12414TIP3    H158657   2.609   2.935  12.205 -3.0811  2.1090  0.8464
12414TIP3    H258658   2.517   2.842  12.130  2.1255 -2.2674 -0.7545
12415TIP3   OH258659   5.719   1.756  15.851 -0.0222 -0.2084  0.4085
12415TIP3    H158660   5.761   1.799  15.925 -1.8797  1.3275  0.6479
12415TIP3    H258661   5.715   1.664  15.876  2.1355 -0.2312  0.8252
12416TIP3   OH258662   5.451   4.181  14.551  0.3823  0.1599  0.0223
12416TIP3    H158663   5.546   4.190  14.543  0.5107  1.0979  1.9603
12416TIP3    H258664   5.438   4.095  14.591  0.3624 -0.2409 -0.8321
12417TIP3   OH258665   1.263   6.260  13.234  0.2016 -0.0175  0.4643
12417TIP3    H158666   1.297   6.177  13.201  0.8398  0.0405  0.9551
12417TIP3    H258667   1.188   6.236  13.288  0.4968 -0.2985  0.7557
12418TIP3   OH258668   1.806   2.836  17.089  0.2186  0.4706  0.3164
12418TIP3    H158669   1.751   2.869  17.018 -0.6793 -0.0202  0.7750
12418TIP3    H258670   1.855   2.763  17.049 -0.6054 -0.0890  0.3063
12419TIP3   OH258671   0.648   5.137  12.656  0.2784  0.3948  0.2226
12419TIP3    H158672   0.674   5.195  12.585  1.3818 -1.2145 -0.7783
12419TIP3    H258673   0.730   5.113  12.699 -0.0158 -1.0496  0.0575
12420TIP3   OH258674   4.906   0.198   4.627 -0.1569 -0.3763 -0.3614
12420TIP3    H158675   4.900   0.194   4.531 -0.5039 -1.2879 -0.3147
12420TIP3    H258676   4.971   0.132   4.650 -0.4197 -0.4937  0.0590
12421TIP3   OH258677   0.611   0.166  12.880 -0.1919  0.5079  0.3213
12421TIP3    H158678   0.574   0.242  12.926  1.5220  0.5107  1.7851
12421TIP3    H258679   0.558   0.159  12.800  0.1687  3.8180 -0.3549
12422TIP3   OH258680   4.384   5.126   1.528 -0.0995  0.0780 -0.7527
12422TIP3    H158681   4.301   5.168   1.553 -0.7786 -2.0148  0.8383
12422TIP3    H258682   4.358   5.050   1.475  0.8129 -0.3452 -0.6192
12423TIP3   OH258683   6.392   0.422  11.900 -0.4796 -0.1561 -0.2791
12423TIP3    H158684   6.448   0.453  11.828 -2.7056  0.2236 -1.9535
12423TIP3    H258685   6.313   0.475  11.894 -2.8020 -3.3469 -0.7182
12424TIP3   OH258686   5.962   0.319  13.348 -0.1700 -0.0310  0.3004
12424TIP3    H158687   6.009   0.398  13.374 -0.2516  0.4592 -0.9888
12424TIP3    H258688   5.887   0.315  13.407  0.0344  0.6524  0.6180
12425TIP3   OH258689   1.275   0.054   5.116 -0.4777 -0.1895 -0.2480
12425TIP3    H158690   1.339   0.002   5.164  1.0017  0.9039 -0.9456
12425TIP3    H258691   1.221  -0.011   5.070  0.4645 -1.1260 -0.0638
12426TIP3   OH258692   5.260   2.993   0.996  0.4357 -0.1341  0.7878
12426TIP3    H158693   5.304   2.961   1.075  0.1150 -0.2353  0.9270
12426TIP3    H258694   5.205   2.920   0.968 -0.7308  0.4681  1.4255
12427TIP3   OH258695   4.152   1.154   2.060  0.2372  0.0790 -0.5836
12427TIP3    H158696   4.151   1.248   2.080 -0.7907  0.1248 -0.8209
12427TIP3    H258697   4.185   1.150   1.970 -1.5754  0.3849 -1.3042
12428TIP3   OH258698   4.733   5.349   3.694  0.0155 -0.1989  0.0380
12428TIP3    H158699   4.660   5.312   3.744 -0.1965 -0.2330 -0.2904
12428TIP3    H258700   4.703   5.347   3.603  0.4432 -0.2553 -0.1068
12429TIP3   OH258701   4.926   2.880  12.204  0.0513  0.1787  0.5194
12429TIP3    H158702   4.966   2.806  12.248  0.0506  0.0735  0.3436
12429TIP3    H258703   4.887   2.843  12.125 -0.6898  0.2176  0.8594
12430TIP3   OH258704   5.908   6.691  11.894  0.1248  0.7593 -0.9249
12430TIP3    H158705   5.842   6.692  11.825  0.4903 -0.1371 -1.2940
12430TIP3    H258706   5.980   6.744  11.859 -0.2840  1.5325 -0.6218
12431TIP3   OH258707   0.778   4.280   1.197 -0.1674  0.3666 -0.5754
12431TIP3    H158708   0.752   4.214   1.133  2.1679  0.0498 -1.2848
12431TIP3    H258709   0.768   4.364   1.151 -1.1031  0.3699 -0.3900
12432TIP3   OH258710   6.758   0.064   3.172 -0.0284 -0.0419 -0.3917
12432TIP3    H158711   6.832   0.079   3.113  0.3504 -0.9334 -0.1643
12432TIP3    H258712   6.717  -0.016   3.138 -0.5110  0.0979 -0.1408
12433TIP3   OH258713   3.484   5.071  16.611 -0.1783  0.3142  0.1284
12433TIP3    H158714   3.426   5.147  16.616 -1.0099 -0.2516 -0.6167
12433TIP3    H258715   3.466   5.022  16.692  0.0749  0.6979  0.4223
12434TIP3   OH258716   1.349   5.933  11.660 -0.5296 -0.3118  0.3886
12434TIP3    H158717   1.399   5.968  11.586 -0.2804 -1.4288  0.0106
12434TIP3    H258718   1.382   5.981  11.736  0.3931 -0.3104 -0.0008
12435TIP3   OH258719   4.811   6.028   0.272 -0.3852 -0.0522  0.1214
12435TIP3    H158720   4.892   5.977   0.278  1.0194  2.0892  0.6564
12435TIP3    H258721   4.742   5.963   0.262  1.1812 -2.0882  1.6343
12436TIP3   OH258722   4.983   2.736  16.575  0.1158 -0.3838  0.7992
12436TIP3    H158723   4.922   2.810  16.572  1.5895  0.8545 -0.0009
12436TIP3    H258724   5.051   2.758  16.512 -0.2523 -3.2401 -0.7530
12437TIP3   OH258725   4.409   1.454  16.068  0.3868 -0.0496  0.0578
12437TIP3    H158726   4.448   1.499  16.144  0.7162  0.5325 -0.4517
12437TIP3    H258727   4.357   1.521  16.024 -0.2147 -0.5186  0.0435
12438TIP3   OH258728   2.578   3.913  16.685 -0.3818  0.1578  0.2694
12438TIP3    H158729   2.593   3.909  16.590 -0.7083  0.7583  0.1860
12438TIP3    H258730   2.514   3.844  16.702 -0.2300 -0.0323  0.0677
12439TIP3   OH258731   0.881   1.000  12.676  1.0329 -0.2829  0.2222
12439TIP3    H158732   0.890   1.057  12.752  2.6293  0.5405 -0.5198
12439TIP3    H258733   0.835   0.923  12.708  0.2630  0.7283  1.6375
12440TIP3   OH258734   3.178   4.629   3.624  0.3882 -0.5127 -0.4784
12440TIP3    H158735   3.267   4.664   3.630 -0.1984  1.1204 -0.6376
12440TIP3    H258736   3.138   4.650   3.708  0.0881 -1.0534 -0.4815
12441TIP3   OH258737   5.655   3.442   1.984 -0.1836 -0.1969  0.1374
12441TIP3    H158738   5.720   3.421   2.051  1.0176 -2.1045 -1.5489
12441TIP3    H258739   5.697   3.508   1.929  0.4132 -1.4851 -0.9969
12442TIP3   OH258740   6.236   1.870   1.371  0.0029 -0.0442 -0.4587
12442TIP3    H158741   6.312   1.856   1.427  1.2458 -1.9499 -2.4591
12442TIP3    H258742   6.270   1.914   1.294 -1.1955  0.3556 -0.7807
12443TIP3   OH258743   2.818   0.538  16.939 -0.0629 -0.3168  0.3531
12443TIP3    H158744   2.885   0.470  16.946 -1.2039 -1.9100 -2.3371
12443TIP3    H258745   2.854   0.600  16.876  0.0938  0.4996  1.2202
12444TIP3   OH258746   5.225   2.449   3.803  0.0390 -0.0691  0.0728
12444TIP3    H158747   5.187   2.371   3.843  0.4027  0.0184  0.5948
12444TIP3    H258748   5.216   2.434   3.709 -1.2949 -0.0449  0.1658
12445TIP3   OH258749   5.337   1.640   6.020 -0.7805 -0.8704 -1.0874
12445TIP3    H158750   5.331   1.550   6.051 -0.9079 -0.2078  0.9776
12445TIP3    H258751   5.251   1.678   6.040  0.6962  1.0045  2.7999
12446TIP3   OH258752   0.594   4.943  15.737 -0.5441 -0.4749 -0.3166
12446TIP3    H158753   0.537   4.884  15.688  0.4051 -0.2338 -1.7788
12446TIP3    H258754   0.629   5.003  15.671 -2.7066  2.8596  1.2495
12447TIP3   OH258755   5.978   2.434   5.591 -0.6046  0.8507  0.2836
12447TIP3    H158756   5.944   2.372   5.656 -0.9030  0.8618  0.1394
12447TIP3    H258757   5.901   2.463   5.543 -0.4438  1.2004  0.2335
12448TIP3   OH258758   0.121   4.137   4.088 -0.3977 -0.2185  0.4113
12448TIP3    H158759   0.205   4.100   4.117 -0.2328 -0.0032  0.2116
12448TIP3    H258760   0.058   4.067   4.101 -0.2002 -0.3533  0.6442
12449TIP3   OH258761   2.937   1.900  14.812 -0.3257 -1.2853  0.3448
12449TIP3    H158762   2.876   1.827  14.828 -3.2309  1.1579  1.3202
12449TIP3    H258763   2.974   1.918  14.898 -0.0407 -1.2542  0.2151
12450TIP3   OH258764   0.729   2.226  17.225  0.0143 -0.5050  0.3122
12450TIP3    H158765   0.821   2.246  17.239 -0.4560  2.0840  0.2326
12450TIP3    H258766   0.683   2.307  17.246 -2.1500 -1.3773 -0.6932
12451TIP3   OH258767   1.724   4.554   5.944 -0.5936  0.5565 -0.6359
12451TIP3    H158768   1.761   4.478   5.988 -1.2160  0.6681  0.1008
12451TIP3    H258769   1.790   4.580   5.880  1.3997  1.7865  1.7798
12452TIP3   OH258770   6.056   5.645  11.739 -0.6185  0.0111 -0.0156
12452TIP3    H158771   6.013   5.712  11.792 -0.1378 -0.7059  1.3024
12452TIP3    H258772   6.144   5.638  11.775  0.1620  0.3806 -1.7185
12453TIP3   OH258773   0.238   2.910   3.419  0.3213  0.2100  1.3003
12453TIP3    H158774   0.263   2.938   3.506 -0.1709 -1.1118  1.9007
12453TIP3    H258775   0.194   2.985   3.380  4.0267  2.2656  0.6202
12454TIP3   OH258776   0.595   3.502  11.421 -0.4411  0.0842 -0.3980
12454TIP3    H158777   0.614   3.409  11.407  0.4660  0.2093 -0.0470
12454TIP3    H258778   0.677   3.547  11.400 -0.7505  0.7699 -0.1568
12455TIP3   OH258779   4.493   4.674   1.683  0.2365 -0.3137  0.0156
12455TIP3    H158780   4.500   4.641   1.593  1.2557 -0.9949  0.3210
12455TIP3    H258781   4.446   4.605   1.730 -0.7295  0.2613 -0.0897
12456TIP3   OH258782   0.250   5.029  12.424 -0.4274  0.3386  0.1113
12456TIP3    H158783   0.176   5.011  12.480  0.6638  2.5568  2.4877
12456TIP3    H258784   0.220   5.007  12.336 -3.5758  0.3567  1.0770
12457TIP3   OH258785   2.106   4.242   2.414  0.1701  0.3025 -0.0451
12457TIP3    H158786   2.188   4.288   2.394  0.4305  0.0213  0.3397
12457TIP3    H258787   2.132   4.175   2.478  0.1349 -1.5048 -1.8321
12458TIP3   OH258788   4.129   5.581  14.123 -0.3811  0.2562 -0.3078
12458TIP3    H158789   4.197   5.531  14.076 -1.5377 -0.8125 -0.9099
12458TIP3    H258790   4.073   5.514  14.162 -0.4819  1.1262  1.1116
12459TIP3   OH258791   5.087   1.867  15.745 -0.0741 -0.0329  0.1592
12459TIP3    H158792   5.094   1.960  15.764 -1.6781  1.1841 -4.1935
12459TIP3    H258793   5.006   1.839  15.787 -0.0538  0.7145  0.7111
12460TIP3   OH258794   5.759   4.605  11.858 -0.0841  0.1062  0.1562
12460TIP3    H158795   5.776   4.677  11.798 -2.9416  1.2735  0.5918
12460TIP3    H258796   5.664   4.596  11.859 -0.0366 -1.2053  2.9617
12461TIP3   OH258797   6.382   6.250   2.469 -0.0342 -0.1902 -0.6640
12461TIP3    H158798   6.457   6.201   2.503  0.8310  1.5166  0.0387
12461TIP3    H258799   6.329   6.268   2.547 -0.2419  0.1261 -0.8782
12462TIP3   OH258800   6.080   3.162  14.464 -0.2408 -0.1737 -0.1441
12462TIP3    H158801   6.132   3.227  14.418  0.7968 -0.7222  0.2134
12462TIP3    H258802   5.997   3.159  14.417 -0.6809  2.0678  0.3918
12463TIP3   OH258803   3.215   4.439   1.910 -0.0178  0.0608 -0.5940
12463TIP3    H158804   3.257   4.401   1.832  0.1896 -0.3603 -0.2808
12463TIP3    H258805   3.208   4.532   1.890 -0.1778 -0.0746 -1.2157
12464TIP3   OH258806   4.996   1.122  10.810  0.1358  0.0106  0.0910
12464TIP3    H158807   4.940   1.046  10.828  1.7919 -1.0255  1.0804
12464TIP3    H258808   4.963   1.156  10.727 -0.4880 -1.9521 -0.5226
12465TIP3   OH258809   0.788   3.073  10.605  0.4969  0.1963  0.1174
12465TIP3    H158810   0.825   3.046  10.689 -1.7156 -0.0449  1.0803
12465TIP3    H258811   0.714   3.014  10.592  0.7547  0.2631 -2.0083
12466TIP3   OH258812   2.180   2.497  15.861 -0.3743 -0.2301 -0.6803
12466TIP3    H158813   2.220   2.557  15.798  0.6506 -0.3351 -0.1458
12466TIP3    H258814   2.093   2.533  15.875  0.1298  1.0000 -0.5624
12467TIP3   OH258815   4.239   5.799   0.110 -0.0311  0.1127 -0.7108
12467TIP3    H158816   4.156   5.845   0.097  0.3802  0.3906 -2.7085
12467TIP3    H258817   4.298   5.838   0.046  0.2553 -3.3530 -2.7828
12468TIP3   OH258818   3.834   3.790   1.703  0.3786  0.3431  0.2841
12468TIP3    H158819   3.853   3.883   1.697  1.5261  0.0831 -0.5026
12468TIP3    H258820   3.836   3.759   1.612 -0.2637 -0.3892  0.5120
12469TIP3   OH258821   2.009   4.961   1.389 -0.0005  0.0533  0.5933
12469TIP3    H158822   1.952   5.017   1.336  0.2688  0.1350  0.3834
12469TIP3    H258823   2.047   4.900   1.326 -0.6020 -0.6306  0.8839
12470TIP3   OH258824   4.644   4.279  13.668  0.3835 -0.4653 -0.1337
12470TIP3    H158825   4.718   4.304  13.613  0.0731  0.4002 -0.1705
12470TIP3    H258826   4.595   4.215  13.616  0.5082 -0.2172 -0.5558
12471TIP3   OH258827   0.132   6.727  12.140 -0.2528 -0.1624  0.2592
12471TIP3    H158828   0.064   6.668  12.108  0.9461 -1.4852  0.0508
12471TIP3    H258829   0.084   6.805  12.169 -2.0449 -1.7009  1.7325
12472TIP3   OH258830   4.834   0.383   2.020  0.3468 -0.3722  0.1767
12472TIP3    H158831   4.919   0.339   2.020  1.1943  1.1489 -0.9468
12472TIP3    H258832   4.770   0.312   2.024  1.5654 -2.0504 -4.2949
12473TIP3   OH258833   1.475   4.559  14.047 -0.0674 -0.4062  0.0761
12473TIP3    H158834   1.478   4.480  13.994 -2.3578  0.1267 -0.9455
12473TIP3    H258835   1.567   4.586  14.054  0.6294 -2.4468 -0.5948
12474TIP3   OH258836   4.941   5.865  13.009  0.2551  0.0638  0.2673
12474TIP3    H158837   4.911   5.854  12.919 -2.1892 -1.1355  1.1624
12474TIP3    H258838   4.999   5.790  13.023  0.8706  0.4049 -0.3598
12475TIP3   OH258839   4.308   5.030   4.435  0.2889  0.1064 -0.2287
12475TIP3    H158840   4.283   4.961   4.496 -2.1034  0.6304 -0.5160
12475TIP3    H258841   4.313   4.986   4.350 -0.2422  0.0646 -0.2470
12476TIP3   OH258842   0.751   6.684   0.473  0.0791  0.1301  0.2474
12476TIP3    H158843   0.832   6.656   0.431 -0.2906 -0.3161 -0.1753
12476TIP3    H258844   0.775   6.701   0.564  0.4603 -0.8289  0.3269
12477TIP3   OH258845   5.975   4.004  15.903  0.1033  0.3775  0.2995
12477TIP3    H158846   5.937   4.079  15.858 -0.2972  0.3708  0.6150
12477TIP3    H258847   5.899   3.948  15.923  0.2258  0.5429  1.2821
12478TIP3   OH258848   4.551   2.982   4.694 -0.2560 -0.0826  0.2665
12478TIP3    H158849   4.493   3.058   4.698 -1.3252 -0.8796  0.4076
12478TIP3    H258850   4.539   2.946   4.606  0.7422  0.2775 -0.0272
12479TIP3   OH258851   1.264   1.469   2.956  0.2567  0.0655  0.2542
12479TIP3    H158852   1.282   1.532   3.026 -2.1560 -0.2592  1.2486
12479TIP3    H258853   1.240   1.523   2.881  0.7483  0.3556  0.2963
12480TIP3   OH258854   3.179   5.944  12.727  0.2353  0.1476  0.0525
12480TIP3    H158855   3.139   5.921  12.643 -0.3988 -0.9139  0.6174
12480TIP3    H258856   3.214   6.032  12.714  1.0361 -0.3923 -1.6306
12481TIP3   OH258857   1.264   2.211  12.247  0.0095  0.0137  0.6961
12481TIP3    H158858   1.234   2.302  12.257  1.5877  0.5156  1.1170
12481TIP3    H258859   1.184   2.159  12.256 -0.8228  1.3147  1.2326
12482TIP3   OH258860   0.857   6.499  12.249  0.0629 -0.1982  0.4740
12482TIP3    H158861   0.905   6.463  12.175  0.1616 -0.1446  0.5124
12482TIP3    H258862   0.889   6.588  12.259 -0.8622  0.2218 -0.2048
12483TIP3   OH258863   2.176   5.145  16.363  0.0126 -0.2154  0.4350
12483TIP3    H158864   2.240   5.121  16.296  0.5867 -2.7974  1.8010
12483TIP3    H258865   2.097   5.168  16.313  0.7134 -1.1155 -1.1561
12484TIP3   OH258866   6.079   3.818  12.250 -0.4344 -0.5121  0.7549
12484TIP3    H158867   6.107   3.880  12.317 -1.2409  0.2525  0.3962
12484TIP3    H258868   5.992   3.847  12.223 -0.3206 -1.0652 -0.3041
12485TIP3   OH258869   2.214   1.291  14.524 -0.4225 -0.6691 -0.0741
12485TIP3    H158870   2.140   1.247  14.566 -0.7137 -0.4053 -0.2984
12485TIP3    H258871   2.243   1.355  14.589 -0.7804 -0.3601 -0.2128
12486TIP3   OH258872   6.599   5.974   4.257 -0.2206  0.3045  0.4550
12486TIP3    H158873   6.643   6.047   4.300 -1.3637 -0.2340  2.6559
12486TIP3    H258874   6.527   6.015   4.209 -1.1430  0.6359  2.0583
12487TIP3   OH258875   4.587   2.479  14.883 -0.1811  0.9017 -0.0086
12487TIP3    H158876   4.502   2.494  14.843 -0.6993 -1.7751 -0.1228
12487TIP3    H258877   4.641   2.443  14.812  0.0155 -0.4206  0.7682
12488TIP3   OH258878   4.931   2.891  17.151 -0.1470  0.0197 -0.7810
12488TIP3    H158879   4.993   2.898  17.079  0.0947 -0.7696 -0.6555
12488TIP3    H258880   4.847   2.872  17.109  0.0951 -0.9681 -0.8245
12489TIP3   OH258881   3.486   1.514   4.983 -0.0036 -0.2351  0.2452
12489TIP3    H158882   3.523   1.581   5.041 -0.5245  0.0042  0.3116
12489TIP3    H258883   3.408   1.556   4.945 -1.0576 -1.2143  1.2403
12490TIP3   OH258884   2.229   5.270  11.203 -0.3929 -0.0849  0.2839
12490TIP3    H158885   2.156   5.295  11.147 -0.7483  1.9086  1.5420
12490TIP3    H258886   2.201   5.295  11.291  0.9840 -1.2124  1.0849
12491TIP3   OH258887   0.427   2.682  16.803 -0.0629 -0.4445  0.6860
12491TIP3    H158888   0.519   2.700  16.821  0.0482 -0.5445  0.2287
12491TIP3    H258889   0.420   2.587  16.803  0.0348 -0.4512 -0.2776
12492TIP3   OH258890   1.656   3.437  14.942  0.1548  0.2744 -0.2816
12492TIP3    H158891   1.649   3.451  15.036  0.6037  1.7958 -0.4507
12492TIP3    H258892   1.713   3.360  14.933 -1.7372 -1.3235  0.6997
12493TIP3   OH258893   0.356   4.780   1.551 -0.1929  0.3857  0.5583
12493TIP3    H158894   0.305   4.843   1.602  0.6068  0.0623  1.8020
12493TIP3    H258895   0.313   4.696   1.565  0.8647  0.0445  1.9320
12494TIP3   OH258896   6.231   3.639   0.707  0.1030  0.4298  0.0090
12494TIP3    H158897   6.286   3.603   0.637  0.5279  1.6106 -0.2801
12494TIP3    H258898   6.191   3.562   0.747 -0.1305 -0.2783 -1.5079
12495TIP3   OH258899   1.177   1.569   3.581  0.0933 -0.4375 -0.0250
12495TIP3    H158900   1.164   1.475   3.581 -0.6910 -0.3606  1.3932
12495TIP3    H258901   1.268   1.580   3.609  0.5899 -0.7812 -1.4420
12496TIP3   OH258902   0.115   5.252   1.830  0.1413  0.1799 -0.2095
12496TIP3    H158903   0.116   5.175   1.887 -1.3751 -0.5596 -1.1304
12496TIP3    H258904   0.023   5.265   1.808  0.1972  2.9187  0.7454
12497TIP3   OH258905   1.617   3.723   0.319 -0.2094 -0.2468  0.4433
12497TIP3    H158906   1.696   3.681   0.355 -0.4476 -0.1361  1.1172
12497TIP3    H258907   1.617   3.699   0.227  1.2623  0.7223  0.1422
12498TIP3   OH258908   2.405   0.183   1.478 -0.2561 -0.5128 -0.2899
12498TIP3    H158909   2.401   0.151   1.387  0.8863 -0.4694 -0.3671
12498TIP3    H258910   2.496   0.211   1.489 -1.0951  2.3441 -0.0793
12499TIP3   OH258911   0.646   3.375   2.393  0.7712 -0.2217  0.0189
12499TIP3    H158912   0.643   3.471   2.394  0.4519 -0.1642 -2.0570
12499TIP3    H258913   0.736   3.354   2.367  0.7950 -0.4837  0.3094
12500TIP3   OH258914   3.916   2.393  15.814 -0.7413 -0.0526  0.1749
12500TIP3    H158915   3.930   2.372  15.907  0.8391 -0.7366 -0.1956
12500TIP3    H258916   3.850   2.462  15.816 -0.1224  0.5615  1.8576
12501TIP3   OH258917   1.789   2.606  16.617  0.6234 -0.3223 -0.3839
12501TIP3    H158918   1.787   2.536  16.552  0.0459 -0.6040 -0.0705
12501TIP3    H258919   1.710   2.593  16.669 -0.0861  1.1973 -1.0092
12502TIP3   OH258920   2.389   6.752  12.747  0.0169 -0.3276 -0.7376
12502TIP3    H158921   2.476   6.717  12.762  0.2249 -0.6302 -2.4862
12502TIP3    H258922   2.336   6.718  12.819  1.1980 -0.6071  0.0149
12503TIP3   OH258923   1.125   0.145   1.012 -0.4806  0.3135  0.1653
12503TIP3    H158924   1.153   0.059   0.982 -0.8084  0.7567 -1.4838
12503TIP3    H258925   1.088   0.129   1.099 -2.9895 -1.6894 -1.1267
12504TIP3   OH258926   2.539   1.468   1.018  0.0107  0.7145  0.4478
12504TIP3    H158927   2.541   1.415   1.097  0.3821  1.4891  0.9659
12504TIP3    H258928   2.481   1.542   1.039  0.0047  0.8586 -0.0464
12505TIP3   OH258929   2.070   6.628  16.938 -0.5385  0.3316 -0.1785
12505TIP3    H158930   1.977   6.623  16.961 -0.9207  1.6800 -1.3011
12505TIP3    H258931   2.071   6.635  16.843  0.7029  0.5520 -0.1678
12506TIP3   OH258932   1.840   6.617  15.797  0.1509  0.2402 -0.4559
12506TIP3    H158933   1.888   6.578  15.870  0.1832 -2.6370 -1.8748
12506TIP3    H258934   1.748   6.599  15.817 -0.1613  2.4470  0.4247
12507TIP3   OH258935   6.179   3.574  16.010 -0.6069 -0.6128 -0.1234
12507TIP3    H158936   6.156   3.586  16.102 -0.3778 -1.3605  0.0383
12507TIP3    H258937   6.134   3.645  15.965  1.7226  1.7051  0.9092
12508TIP3   OH258938   5.093   4.369   3.834  0.2531  0.4904 -0.2388
12508TIP3    H158939   5.166   4.365   3.773 -0.6357  0.6482 -1.3398
12508TIP3    H258940   5.021   4.324   3.790 -0.8938  1.9983 -0.0282
12509TIP3   OH258941   0.119   6.184  11.124 -0.1353 -0.3946 -0.4782
12509TIP3    H158942   0.057   6.176  11.052  2.4166 -0.9322 -2.8016
12509TIP3    H258943   0.190   6.124  11.101  1.8073  1.0288  1.3703
12510TIP3   OH258944   2.061   2.816   1.103  0.3040 -0.0079  0.0820
12510TIP3    H158945   2.006   2.742   1.076  0.2480  0.0620  0.0054
12510TIP3    H258946   2.045   2.884   1.037 -0.8752  0.6665  1.0327
12511TIP3   OH258947   2.070   2.441   0.596 -0.0047  0.3290 -0.0904
12511TIP3    H158948   2.154   2.397   0.588  0.1175  0.2564  1.2970
12511TIP3    H258949   2.091   2.525   0.637 -0.5505  0.4974 -0.1452
12512TIP3   OH258950   3.146   5.509   5.392 -0.1401 -0.0447  0.5494
12512TIP3    H158951   3.058   5.532   5.423 -0.4162 -2.2088  1.4762
12512TIP3    H258952   3.130   5.451   5.317  0.5473  1.2833 -0.6816
12513TIP3   OH258953   0.368   4.965   3.905  0.5355  0.3379 -0.0891
12513TIP3    H158954   0.345   4.893   3.963  1.2590 -0.3748 -0.6627
12513TIP3    H258955   0.330   4.941   3.820  0.5931  0.7306 -0.2283
12514TIP3   OH258956   1.907   6.105   3.083  0.3034 -0.4352  0.2238
12514TIP3    H158957   1.855   6.038   3.038  0.0444  0.8404 -1.4553
12514TIP3    H258958   1.920   6.069   3.170 -1.3581 -1.8693 -0.0487
12515TIP3   OH258959   1.985   6.488  12.202 -0.1544 -0.0406  0.0163
12515TIP3    H158960   1.905   6.465  12.154 -0.3951 -1.6263  1.0971
12515TIP3    H258961   1.976   6.444  12.286  1.5941  0.2571  0.3938
12516TIP3   OH258962   5.065   5.013   1.413  0.0565 -0.1280 -0.1097
12516TIP3    H158963   5.105   5.089   1.456  2.6082  0.1797 -2.7045
12516TIP3    H258964   5.014   4.970   1.482  2.9748  0.8536  2.9174
12517TIP3   OH258965   0.743   5.603   6.380  0.0285  0.0970  0.4436
12517TIP3    H158966   0.811   5.663   6.348 -0.6445  0.4198 -0.4063
12517TIP3    H258967   0.695   5.576   6.301  0.3105 -1.5696  0.8049
12518TIP3   OH258968   1.839   1.020  14.182 -0.2715 -0.0607 -0.6212
12518TIP3    H158969   1.786   1.047  14.107 -0.1044  1.4824 -0.2206
12518TIP3    H258970   1.926   1.004  14.145 -0.5909 -0.9464 -1.0097
12519TIP3   OH258971   4.608   5.681  14.888  0.1268 -0.0740 -0.4647
12519TIP3    H158972   4.607   5.586  14.899  1.2247 -0.2045 -1.3190
12519TIP3    H258973   4.695   5.700  14.853  0.3014  1.3531  0.6129
12520TIP3   OH258974   3.907   6.326   3.635  0.0275 -0.3884 -0.3014
12520TIP3    H158975   3.856   6.405   3.653  0.8544  0.4756 -1.5681
12520TIP3    H258976   3.982   6.333   3.694 -0.5526 -0.9003  0.5066
12521TIP3   OH258977   1.762   1.171   1.688  0.1382 -0.0605 -0.1502
12521TIP3    H158978   1.710   1.239   1.732 -0.3899 -0.2099 -0.5459
12521TIP3    H258979   1.708   1.142   1.616 -0.3511 -2.0625  0.9651
12522TIP3   OH258980   4.796   4.324   6.501  1.1278  0.3823 -0.1915
12522TIP3    H158981   4.786   4.261   6.573 -1.3069 -0.4625 -1.1772
12522TIP3    H258982   4.888   4.350   6.505  2.0318 -2.5475  0.8318
12523TIP3   OH258983   4.776   1.611  15.264 -0.1040 -0.2669  0.1398
12523TIP3    H158984   4.699   1.640  15.313  0.2191 -2.1786  1.9489
12523TIP3    H258985   4.742   1.548  15.200 -0.0005 -2.3681  2.0175
12524TIP3   OH258986   0.592   0.310   0.079  0.0858 -0.6918  0.4118
12524TIP3    H158987   0.584   0.387   0.136  1.5042 -1.6083  1.9536
12524TIP3    H258988   0.504   0.297   0.044 -0.1166  1.8599 -0.2705
12525TIP3   OH258989   3.338   1.338  15.996 -0.2837  0.1382 -0.6886
12525TIP3    H158990   3.351   1.408  15.932 -0.6029  0.9813  0.1581
12525TIP3    H258991   3.265   1.287  15.961  0.4428 -0.2547 -1.7020
12526TIP3   OH258992   3.982   1.929   4.631  0.3056  1.1938 -0.1561
12526TIP3    H158993   4.024   1.990   4.691  0.0936 -0.7270  2.1225
12526TIP3    H258994   3.893   1.919   4.666  0.4551 -0.6409 -0.1961
12527TIP3   OH258995   0.227   6.542  17.000  0.2503 -0.1867  0.2685
12527TIP3    H158996   0.186   6.587  17.075  0.1512  0.4713 -0.1709
12527TIP3    H258997   0.158   6.540  16.933  0.4417 -0.4819  0.0774
12528TIP3   OH258998   3.548   6.759  12.270 -0.4963  0.5549  0.5478
12528TIP3    H158999   3.602   6.805  12.206  1.3566 -2.0459  0.0772
12528TIP3    H259000   3.460   6.760  12.232  0.4688 -0.6009 -1.9737
12529TIP3   OH259001   5.915   5.696  13.125  0.2576 -0.0225  0.5659
12529TIP3    H159002   6.004   5.730  13.127 -0.1101  0.9605  1.0273
12529TIP3    H259003   5.900   5.670  13.034  0.7538  0.5179  0.3282
12530TIP3   OH259004   3.120   3.782   1.428  0.2895 -1.0830 -0.3543
12530TIP3    H159005   3.051   3.808   1.489 -0.7284  1.9290 -2.5757
12530TIP3    H259006   3.201   3.806   1.472 -0.3431 -0.2998  0.4211
12531TIP3   OH259007   2.176   0.427   4.806 -0.4916 -0.3387 -0.4029
12531TIP3    H159008   2.216   0.342   4.827 -0.8077 -0.4663 -0.3180
12531TIP3    H259009   2.205   0.485   4.876 -0.9306 -0.5764 -0.0254
12532TIP3   OH259010   3.636   2.600   4.909  0.6885 -1.1022  0.6447
12532TIP3    H159011   3.669   2.687   4.890 -0.3097 -0.8673 -0.0655
12532TIP3    H259012   3.638   2.594   5.005  0.7177 -0.2838  0.6992
12533TIP3   OH259013   1.209   0.451  14.676 -0.1141 -0.2569 -0.2161
12533TIP3    H159014   1.145   0.522  14.673 -1.4855 -1.4472 -0.0152
12533TIP3    H259015   1.290   0.493  14.705 -0.9510  1.1687  0.1462
12534TIP3   OH259016   1.346   6.620   4.367  0.4384  0.2907  0.0888
12534TIP3    H159017   1.407   6.622   4.440  0.4925  0.0958  0.0517
12534TIP3    H259018   1.319   6.711   4.355 -0.5966  0.1523  1.2186
12535TIP3   OH259019   3.502   6.520  11.386 -0.1902  0.3272 -0.2127
12535TIP3    H159020   3.444   6.563  11.448 -1.2610 -0.0359 -0.9390
12535TIP3    H259021   3.467   6.544  11.300  0.7454  0.1165 -0.6640
12536TIP3   OH259022   4.138   1.861  17.130 -0.2141  0.4175  0.2494
12536TIP3    H159023   4.206   1.882  17.065 -1.2254 -1.8592 -1.7078
12536TIP3    H259024   4.181   1.802  17.191  0.5944  2.1397  1.4209
12537TIP3   OH259025   4.584   1.875  16.922 -0.2213  0.7344 -0.6638
12537TIP3    H159026   4.640   1.846  16.850 -1.9069 -0.5368 -1.5124
12537TIP3    H259027   4.646   1.900  16.991  1.4073 -1.1778 -1.3404
12538TIP3   OH259028   6.717   3.468  13.207 -0.1969 -0.1594 -0.0944
12538TIP3    H159029   6.704   3.507  13.293  1.2528  0.6537 -0.2110
12538TIP3    H259030   6.633   3.426  13.187 -1.3497  1.6382  0.6698
12539TIP3   OH259031   0.705   1.182   5.094 -0.4733  0.2592  0.1991
12539TIP3    H159032   0.681   1.269   5.125  1.6787  0.4880  1.4091
12539TIP3    H259033   0.751   1.142   5.167  0.6506 -0.9796 -1.1215
12540TIP3   OH259034   5.850   1.561  13.638  0.2553  0.0139 -0.8863
12540TIP3    H159035   5.813   1.642  13.603  0.6827  0.7763  0.3941
12540TIP3    H259036   5.798   1.492  13.596  0.0792  0.9210 -2.2226
12541TIP3   OH259037   1.678   0.439   4.164  0.3821 -0.2010 -0.0288
12541TIP3    H159038   1.619   0.365   4.176  0.2025 -0.1048 -0.3099
12541TIP3    H259039   1.620   0.515   4.161  0.4385 -0.1891 -1.1846
12542TIP3   OH259040   0.035   4.490   5.445 -0.3115  0.0150 -0.1423
12542TIP3    H159041   0.021   4.395   5.448 -3.7868  0.2784 -1.9016
12542TIP3    H259042   0.042   4.517   5.536  0.7534 -1.9126  0.3840
12543TIP3   OH259043   2.694   4.875   0.315 -0.2356  0.4133 -0.2902
12543TIP3    H159044   2.769   4.816   0.327 -0.5473 -0.3350 -1.7790
12543TIP3    H259045   2.733   4.961   0.300  0.2291  0.6129  1.7013
12544TIP3   OH259046   0.421   1.286   3.427  0.3092 -0.7283 -0.6057
12544TIP3    H159047   0.422   1.313   3.334  0.5034 -1.8169 -0.9285
12544TIP3    H259048   0.376   1.358   3.472 -0.6349 -0.6164 -1.6767
12545TIP3   OH259049   0.271   0.601  12.488 -0.5319  0.3385 -0.0170
12545TIP3    H159050   0.287   0.667  12.421  0.8266  0.3725  0.3261
12545TIP3    H259051   0.257   0.650  12.568  0.1818  0.2362  0.1783
12546TIP3   OH259052   5.522   6.663  16.211 -0.0912 -0.1284 -0.0539
12546TIP3    H159053   5.579   6.684  16.285 -2.3114  2.8471  1.0235
12546TIP3    H259054   5.545   6.728  16.144 -0.4491 -0.5517 -0.5908
12547TIP3   OH259055   6.344   2.031  13.459 -0.8531 -0.6244 -0.9502
12547TIP3    H159056   6.379   2.117  13.481  1.8552 -2.0063  0.6272
12547TIP3    H259057   6.265   2.023  13.511 -0.2314  0.2875  0.1799
12548TIP3   OH259058   0.086   5.921  11.970  0.3041  0.0767 -0.3390
12548TIP3    H159059   0.076   6.010  11.936  0.9200  0.6308  0.8629
12548TIP3    H259060   0.021   5.915  12.041 -0.6819 -0.9160 -1.2709
12549TIP3   OH259061   2.841   3.408   4.406  0.0051  0.2227 -0.2200
12549TIP3    H159062   2.754   3.416   4.369 -1.0659  0.3946  2.1382
12549TIP3    H259063   2.842   3.321   4.448  0.6318  0.5668  0.5187
12550TIP3   OH259064   5.301   4.958   3.634  0.0663  0.2786 -0.1660
12550TIP3    H159065   5.274   4.868   3.654 -0.0027  0.3274 -0.0371
12550TIP3    H259066   5.395   4.960   3.654 -0.4219  0.9465  2.4369
12551TIP3   OH259067   5.459   1.557   3.200 -0.1124 -0.8576  0.1235
12551TIP3    H159068   5.445   1.487   3.264  0.0474 -1.8883 -0.9302
12551TIP3    H259069   5.399   1.627   3.228  0.0296 -1.2358  1.4388
12552TIP3   OH259070   1.981   5.926   4.208 -0.4618  0.1543 -0.7709
12552TIP3    H159071   1.925   5.969   4.143 -1.0555  0.3032 -0.1661
12552TIP3    H259072   2.070   5.950   4.181 -0.7491  1.3104 -0.7726
12553TIP3   OH259073   0.490   5.676   4.252  0.1648 -0.0748 -0.4092
12553TIP3    H159074   0.472   5.689   4.345  3.1274 -0.1930  0.2759
12553TIP3    H259075   0.457   5.588   4.233  1.3974 -0.9152  1.1231
12554TIP3   OH259076   3.780   2.981   1.050  0.3634  0.3455  0.1313
12554TIP3    H159077   3.838   2.914   1.086  0.3824 -0.2275 -0.9187
12554TIP3    H259078   3.738   3.020   1.127  0.8532 -0.4082  0.8032
12555TIP3   OH259079   4.569   3.154   5.911  0.0527  0.3194 -0.1003
12555TIP3    H159080   4.656   3.174   5.946 -0.6008  0.0049  1.8594
12555TIP3    H259081   4.521   3.236   5.918 -0.5046 -0.0892  1.1511
12556TIP3   OH259082   5.070   3.426   3.678  0.4714  0.1310  0.2308
12556TIP3    H159083   5.021   3.364   3.731 -2.1789  2.1984  0.4510
12556TIP3    H259084   5.064   3.391   3.589  0.0635 -0.5368  0.5093
12557TIP3   OH259085   3.639   5.485   0.598  0.2995 -0.5848 -0.1856
12557TIP3    H159086   3.607   5.463   0.510 -0.4659  0.5503 -0.2236
12557TIP3    H259087   3.712   5.544   0.582 -1.3244  1.5709 -0.1069
12558TIP3   OH259088   0.290   3.589  13.696  0.5362 -0.0488 -0.3334
12558TIP3    H159089   0.285   3.685  13.694 -1.7340 -0.1055 -0.4360
12558TIP3    H259090   0.328   3.564  13.612  2.2838  0.7522  0.1652
12559TIP3   OH259091   0.038   3.859  10.468 -0.3552 -0.0011  0.3414
12559TIP3    H159092   0.088   3.939  10.451 -1.5671  0.6666 -0.2767
12559TIP3    H259093  -0.007   3.877  10.551 -0.7715  0.0493  0.1096
12560TIP3   OH259094   6.147   3.047  15.575  0.5122  0.6958 -0.4131
12560TIP3    H159095   6.236   3.012  15.587  0.0292  0.1570  1.9924
12560TIP3    H259096   6.107   2.987  15.512  0.7272 -1.2936  1.2255
12561TIP3   OH259097   0.483   4.659  16.021  0.1034  0.1829 -0.2320
12561TIP3    H159098   0.400   4.706  16.027 -0.8559 -1.3815 -0.6976
12561TIP3    H259099   0.495   4.642  15.928  1.0347  0.5159 -0.1823
12562TIP3   OH259100   0.574   1.420   5.170  0.2760  0.8122  0.0537
12562TIP3    H159101   0.578   1.513   5.152 -1.2376  0.9590  0.3511
12562TIP3    H259102   0.522   1.413   5.249  0.6940 -0.2737  0.2526
12563TIP3   OH259103   6.432   4.925  15.604 -0.1683 -0.6753 -0.0758
12563TIP3    H159104   6.436   5.012  15.643  2.1229 -0.0894 -1.4215
12563TIP3    H259105   6.345   4.892  15.626 -0.2280  0.9764  2.4863
12564TIP3   OH259106   3.394   1.845   4.711  0.2932 -0.1576 -0.6176
12564TIP3    H159107   3.414   1.836   4.804 -0.9661 -1.8509 -0.4765
12564TIP3    H259108   3.403   1.939   4.694  0.7075  0.1565  1.1553
12565TIP3   OH259109   4.781   0.036   5.751  0.0641 -0.1108 -0.1563
12565TIP3    H159110   4.740   0.032   5.664 -1.2029 -0.2095  0.4233
12565TIP3    H259111   4.716  -0.003   5.810  2.4237 -3.9107  0.3129
12566TIP3   OH259112   2.750   1.265   6.441 -0.1453  0.0001 -0.2499
12566TIP3    H159113   2.658   1.283   6.424 -0.0931 -0.9116 -1.7528
12566TIP3    H259114   2.798   1.328   6.387  0.2220  2.0026  2.2119
12567TIP3   OH259115   3.827   2.017   5.914  0.2154  0.0729  0.1227
12567TIP3    H159116   3.887   1.960   5.961 -0.1635 -1.2246 -0.9248
12567TIP3    H259117   3.826   1.984   5.824  0.7684  2.3831 -0.7864
12568TIP3   OH259118   2.966   0.394   2.600  0.2524 -0.4587  0.0043
12568TIP3    H159119   3.011   0.351   2.528  0.7909  2.1542 -1.3289
12568TIP3    H259120   3.031   0.394   2.671  0.0999 -2.0751  0.1951
12569TIP3   OH259121   6.710   4.751  17.018 -0.2134 -0.7536 -0.3770
12569TIP3    H159122   6.797   4.739  17.056 -0.1696 -1.1794 -0.6059
12569TIP3    H259123   6.684   4.663  16.990 -1.0744 -0.7900  0.4590
12570TIP3   OH259124   3.840   3.093   2.613  0.1551 -0.2506  0.2851
12570TIP3    H159125   3.859   3.171   2.562  0.6149 -0.4771  0.1031
12570TIP3    H259126   3.918   3.081   2.668  0.1083 -0.6075  0.2741
12571TIP3   OH259127   5.190   1.564   3.788  0.1499  0.2421  0.2955
12571TIP3    H159128   5.105   1.534   3.755  0.7258 -0.9068 -0.1973
12571TIP3    H259129   5.241   1.585   3.710  0.9440 -0.8684  0.4898
12572TIP3   OH259130   2.089   4.735   6.460 -0.0622 -0.0318 -0.0495
12572TIP3    H159131   2.174   4.702   6.432 -1.9471 -4.4658 -1.5580
12572TIP3    H259132   2.062   4.675   6.530 -1.9210  1.2633  0.4210
12573TIP3   OH259133   3.282   0.667  16.446  0.3518  0.1795 -0.1766
12573TIP3    H159134   3.190   0.640  16.447  0.6432 -1.0162  2.1405
12573TIP3    H259135   3.282   0.752  16.402 -1.4396 -0.9615 -2.5961
12574TIP3   OH259136   4.213   1.138  14.727 -0.2301  0.4739  0.1392
12574TIP3    H159137   4.255   1.205  14.673 -1.1132  0.5915 -0.4141
12574TIP3    H259138   4.166   1.188  14.794 -0.6944  0.3941 -0.1299
12575TIP3   OH259139   2.861   5.517  10.425  0.3057  0.1283  0.6417
12575TIP3    H159140   2.935   5.571  10.452  1.0578  0.2362 -1.4378
12575TIP3    H259141   2.820   5.565  10.353  0.1771 -1.3916 -0.3601
12576TIP3   OH259142   0.918   5.236   5.412 -0.0265  0.2091 -0.3101
12576TIP3    H159143   0.975   5.170   5.452 -0.1827 -0.9285 -1.8612
12576TIP3    H259144   0.883   5.194   5.334  0.1581  2.2505 -1.5899
12577TIP3   OH259145   2.478   4.967   2.246 -0.4132  0.0825  0.3821
12577TIP3    H159146   2.568   4.994   2.262 -0.3421  0.9657 -1.3235
12577TIP3    H259147   2.484   4.873   2.231  0.2677  0.1782  0.0163
12578TIP3   OH259148   2.123   2.815  16.104  0.8899  0.8067 -0.4810
12578TIP3    H159149   2.205   2.767  16.114  0.7329 -0.0090 -2.5750
12578TIP3    H259150   2.148   2.906  16.092  1.4396  0.6638 -0.4114
12579TIP3   OH259151   1.370   3.548  11.417 -0.0643 -0.2621 -0.1339
12579TIP3    H159152   1.352   3.636  11.383 -2.0041  0.3679  2.2620
12579TIP3    H259153   1.339   3.489  11.348  0.4595  0.8956 -1.4086
12580TIP3   OH259154   0.354   1.872  16.175 -0.5153  0.1927  0.5377
12580TIP3    H159155   0.278   1.922  16.145 -1.9574 -1.5832  1.0348
12580TIP3    H259156   0.429   1.919  16.139 -1.8569  1.7100 -0.4450
12581TIP3   OH259157   0.864   5.992  13.497  0.4848 -1.0890  0.7168
12581TIP3    H159158   0.922   5.967  13.568 -1.1757 -2.0942  1.7837
12581TIP3    H259159   0.776   5.988  13.535 -0.2636  1.3527 -0.5349
12582TIP3   OH259160   4.577   0.878  14.435  0.2105 -0.2113 -0.2826
12582TIP3    H159161   4.637   0.926  14.378  0.8522 -1.2645 -0.5151
12582TIP3    H259162   4.633   0.840  14.503 -0.5899  1.4114  1.3874
12583TIP3   OH259163   1.173   4.044   6.258 -0.1379 -0.2397  0.4566
12583TIP3    H159164   1.161   4.020   6.350 -0.3820  0.3646  0.5859
12583TIP3    H259165   1.229   3.975   6.222  1.1110  0.2440  1.3969
12584TIP3   OH259166   4.801   3.206  11.078 -0.3621 -0.0445  0.2510
12584TIP3    H159167   4.769   3.131  11.028 -0.5740 -1.2616  2.1279
12584TIP3    H259168   4.890   3.182  11.104 -0.2971  0.5164  0.5754
12585TIP3   OH259169   5.088   4.587   0.644 -0.0433  0.1349 -0.6504
12585TIP3    H159170   5.039   4.511   0.612 -0.3519 -0.4114  1.0076
12585TIP3    H259171   5.166   4.549   0.684 -0.5650  0.6048  0.8582
12586TIP3   OH259172   3.059   3.463  11.844  0.1864 -0.0096 -0.0870
12586TIP3    H159173   3.018   3.424  11.922  0.7431 -0.8235 -0.1886
12586TIP3    H259174   2.988   3.513  11.803 -0.7427 -1.4094 -0.2740
12587TIP3   OH259175   0.941   5.531  16.649  0.3639  0.2280 -0.3728
12587TIP3    H159176   0.924   5.561  16.560  0.4242 -1.7213 -1.0890
12587TIP3    H259177   0.861   5.488  16.676  1.9342 -4.0039 -1.6437
12588TIP3   OH259178   3.227   3.284  15.322 -0.6342 -0.2103 -0.1935
12588TIP3    H159179   3.135   3.308  15.320 -0.3508  0.8662 -0.6690
12588TIP3    H259180   3.272   3.353  15.274  0.4093 -0.8003 -0.1098
12589TIP3   OH259181   3.808   5.312  15.920 -0.4097  0.0495  0.1534
12589TIP3    H159182   3.869   5.386  15.922  0.9753 -1.0119  2.8800
12589TIP3    H259183   3.831   5.265  15.840  0.7078  1.0067 -0.1268
12590TIP3   OH259184   2.595   2.221   2.538 -0.4067 -0.6361  0.4739
12590TIP3    H159185   2.675   2.274   2.533 -1.0900  0.2991 -0.8798
12590TIP3    H259186   2.548   2.239   2.457 -1.9107 -1.3437  1.1430
12591TIP3   OH259187   0.985   0.149  11.636 -0.1905  0.0244  0.4072
12591TIP3    H159188   0.945   0.096  11.704  0.1810 -1.5018 -0.4985
12591TIP3    H259189   1.073   0.167  11.668  0.1015 -0.9852  0.2002
12592TIP3   OH259190   6.302   4.891   1.478 -0.1133 -0.4514  0.5012
12592TIP3    H159191   6.229   4.911   1.420  0.3878  0.7705  0.2517
12592TIP3    H259192   6.358   4.833   1.427 -0.2162 -0.2608  0.1653
12593TIP3   OH259193   1.044   2.640  11.371  0.1306 -0.2906 -0.4962
12593TIP3    H159194   1.074   2.689  11.294  1.3933 -1.8501 -1.0684
12593TIP3    H259195   0.966   2.595  11.341 -1.1263  1.4012  0.0774
12594TIP3   OH259196   3.068   2.036  16.135 -0.1439  0.7030  0.3428
12594TIP3    H159197   3.039   2.071  16.219  0.3477  1.0049  0.3964
12594TIP3    H259198   3.136   2.098  16.107  1.3905 -0.6859  0.8584
12595TIP3   OH259199   5.507   5.500   4.967  0.4305  0.1821 -0.2411
12595TIP3    H159200   5.481   5.574   5.021  1.3097 -0.7295  1.5249
12595TIP3    H259201   5.563   5.538   4.899  0.3746  1.2081  0.2665
12596TIP3   OH259202   4.921   4.954   3.320 -0.4087  0.4351  0.1382
12596TIP3    H159203   4.859   4.882   3.328  0.3715 -0.0773  2.1740
12596TIP3    H259204   4.885   5.023   3.377  1.3613 -0.2968  2.2912
12597TIP3   OH259205   4.515   4.025  14.345  0.0407 -0.0464 -0.3546
12597TIP3    H159206   4.517   4.121  14.336 -0.6057  0.0312  0.2214
12597TIP3    H259207   4.595   3.995  14.302  0.3412  0.7679 -0.3815
12598TIP3   OH259208   0.923   6.421  11.409  1.0886  0.0489 -0.0398
12598TIP3    H159209   0.869   6.435  11.331  1.3758  1.5306 -0.0045
12598TIP3    H259210   1.002   6.474  11.393  3.3861 -3.2677 -0.8314
12599TIP3   OH259211   6.107   4.621   2.272 -0.4892  0.3207 -0.1918
12599TIP3    H159212   6.114   4.526   2.259 -0.4453  0.0897  1.3649
12599TIP3    H259213   6.197   4.653   2.263  0.1742 -0.3298  2.8283
12600TIP3   OH259214   1.179   0.982  16.389  0.4445  0.4647  0.4700
12600TIP3    H159215   1.093   1.024  16.394  0.8131  1.1163  1.8099
12600TIP3    H259216   1.232   1.042  16.335 -0.2915 -0.6469 -1.5947
12601TIP3   OH259217   6.558   0.870  13.278 -0.3021 -0.1079 -0.1480
12601TIP3    H159218   6.573   0.953  13.233 -0.4787 -0.2564 -0.4855
12601TIP3    H259219   6.483   0.832  13.233  0.2399 -0.7997 -0.4867
12602TIP3   OH259220   3.125   1.415   0.747  0.1419 -0.1234  0.1441
12602TIP3    H159221   3.141   1.504   0.717 -0.8289  0.5665  1.5023
12602TIP3    H259222   3.034   1.398   0.723  0.7512 -1.3681 -1.4596
12603TIP3   OH259223   2.088   6.647  15.652 -0.1584 -0.1914 -0.1958
12603TIP3    H159224   2.057   6.714  15.592 -0.0164 -0.3154 -0.4096
12603TIP3    H259225   2.010   6.619  15.699 -0.2249  0.0918 -0.1357
12604TIP3   OH259226   1.340   5.654   2.876 -0.0094  0.1120  0.6755
12604TIP3    H159227   1.281   5.587   2.843 -0.6647  0.7306  0.5605
12604TIP3    H259228   1.302   5.681   2.960  0.2950  0.2698  0.7652
12605TIP3   OH259229   5.839   1.417  11.292  0.0084 -0.5669  0.4404
12605TIP3    H159230   5.852   1.511  11.279  1.5692 -0.9513 -1.1017
12605TIP3    H259231   5.747   1.409  11.318 -0.8940  1.2001 -1.8158
12606TIP3   OH259232   3.314   6.346  11.182  0.0558 -0.6506 -0.2207
12606TIP3    H159233   3.354   6.396  11.109  2.0886 -1.5123  0.2216
12606TIP3    H259234   3.291   6.262  11.143 -1.6535 -0.0802 -0.5255
12607TIP3   OH259235   3.190   6.282  14.585  0.1118 -0.0526  0.0930
12607TIP3    H159236   3.176   6.306  14.493  2.2167 -0.0720 -0.2838
12607TIP3    H259237   3.282   6.302  14.601 -0.1254 -0.3835  2.1221
12608TIP3   OH259238   6.190   5.735   5.637 -0.2675 -0.1619  0.0414
12608TIP3    H159239   6.173   5.712   5.729  0.5505  2.0791  0.8158
12608TIP3    H259240   6.103   5.743   5.598 -0.6656 -0.1350  0.9082
12609TIP3   OH259241   6.221   2.736  13.129 -0.0527 -0.0132  0.2860
12609TIP3    H159242   6.294   2.731  13.068  0.9586 -0.0880  1.4553
12609TIP3    H259243   6.143   2.727  13.075  0.8066  0.0282 -0.9891
12610TIP3   OH259244   5.148   6.628   6.089 -0.0865  0.3076  0.0743
12610TIP3    H159245   5.120   6.606   6.178 -1.8706 -0.1096 -0.5598
12610TIP3    H259246   5.242   6.608   6.088 -0.0661  0.1527  1.7948
12611TIP3   OH259247   6.734   1.818   0.462 -0.0261  0.0637  0.3732
12611TIP3    H159248   6.702   1.907   0.454 -0.6946 -0.0952  1.1163
12611TIP3    H259249   6.744   1.787   0.372 -0.3709  0.6751  0.1198
12612TIP3   OH259250   4.702   4.747  12.992 -0.2275 -0.2171 -0.5996
12612TIP3    H159251   4.639   4.697  13.044  0.8795 -0.5144  0.5195
12612TIP3    H259252   4.767   4.776  13.056  0.9195 -0.1635 -1.7566
12613TIP3   OH259253   4.023   0.857  15.338 -0.5292 -0.1392 -0.1770
12613TIP3    H159254   3.997   0.948  15.323 -0.6741 -0.2898 -0.8807
12613TIP3    H259255   4.105   0.864  15.387 -0.5795  0.3701 -0.1582
12614TIP3   OH259256   0.900   5.759  12.774  0.3034 -0.6701 -0.3563
12614TIP3    H159257   0.832   5.739  12.709 -0.6101  0.2823  0.2753
12614TIP3    H259258   0.874   5.709  12.852  0.4389 -0.4609 -0.1764
12615TIP3   OH259259   4.968   5.118   6.739  0.2423 -0.1558  0.1135
12615TIP3    H159260   4.911   5.190   6.711  0.2146 -0.2126  0.0249
12615TIP3    H259261   5.056   5.147   6.716  0.3820  0.4448  1.2959
12616TIP3   OH259262   1.522   5.024   2.439  0.5405  0.1583 -0.1254
12616TIP3    H159263   1.584   5.006   2.510 -0.0846 -0.0164  0.3849
12616TIP3    H259264   1.572   5.076   2.377  1.7874 -1.5104 -0.6173
12617TIP3   OH259265   4.388   2.459   1.815 -0.0266 -0.7003 -0.0913
12617TIP3    H159266   4.468   2.466   1.763 -0.0578  0.2906 -0.0313
12617TIP3    H259267   4.339   2.538   1.793 -0.1632 -0.3948  1.2331
12618TIP3   OH259268   2.064   0.473   1.001  0.0026  0.5000  0.5107
12618TIP3    H159269   1.977   0.507   1.020 -0.1270  0.4270  0.0827
12618TIP3    H259270   2.100   0.450   1.086  0.1203  1.7492  0.8123
12619TIP3   OH259271   2.620   5.357   1.837 -0.1850 -0.4465  0.1099
12619TIP3    H159272   2.601   5.327   1.748 -1.0112 -0.0934  0.1576
12619TIP3    H259273   2.563   5.433   1.849  0.1511 -0.3027  0.8300
12620TIP3   OH259274   5.052   5.804   6.710  0.2098 -0.1826  0.1009
12620TIP3    H159275   5.038   5.712   6.686 -1.2133 -0.0197  0.2192
12620TIP3    H259276   5.112   5.801   6.784 -0.1219 -1.0559  0.3472
12621TIP3   OH259277   2.179   0.084   2.075  0.0400  0.6056 -0.2095
12621TIP3    H159278   2.233   0.159   2.047  1.3218  0.6032  2.0358
12621TIP3    H259279   2.216   0.010   2.027  1.2137  0.8293  0.2961
12622TIP3   OH259280   5.549   5.761   1.699  0.2292  0.2485 -0.1369
12622TIP3    H159281   5.484   5.802   1.641  0.9945  0.4286 -0.8831
12622TIP3    H259282   5.497   5.729   1.773 -0.9235 -0.8125 -1.3442
12623TIP3   OH259283   6.644   3.543  15.594  0.5050 -0.4596 -0.0319
12623TIP3    H159284   6.619   3.537  15.686  0.2227 -3.9742 -0.2350
12623TIP3    H259285   6.585   3.609  15.558  1.3321  1.8003  2.4214
12624TIP3   OH259286   6.341   1.515  16.266 -0.2131  0.4194  0.4522
12624TIP3    H159287   6.319   1.602  16.301 -0.1152  0.3034  0.8097
12624TIP3    H259288   6.407   1.533  16.198 -1.4531  0.7812 -0.7071
12625TIP3   OH259289   1.717   1.829  13.319 -0.1592 -0.5731  0.1405
12625TIP3    H159290   1.724   1.746  13.366 -0.7443  0.0830  1.4116
12625TIP3    H259291   1.769   1.891  13.369 -0.2666 -0.0079 -0.4273
12626TIP3   OH259292   3.578   3.789   1.451  0.1558 -0.0173 -0.2726
12626TIP3    H159293   3.586   3.705   1.495  0.7781  0.0159 -0.3127
12626TIP3    H259294   3.495   3.783   1.403 -0.0786 -0.3935  0.1645
12627TIP3   OH259295   4.987   1.040  15.372 -0.5002 -0.4280  0.2945
12627TIP3    H159296   5.027   0.964  15.414  1.9564  1.1453  1.0046
12627TIP3    H259297   5.053   1.070  15.309 -1.3568  1.1784  0.1044
12628TIP3   OH259298   2.292   1.238   5.030 -0.6786 -0.8162 -0.2381
12628TIP3    H159299   2.345   1.218   4.952 -1.2006  0.3897 -0.9427
12628TIP3    H259300   2.206   1.202   5.010 -0.7202 -0.8101 -0.0638
12629TIP3   OH259301   4.276   2.469  12.814  0.2365 -0.2554  0.8482
12629TIP3    H159302   4.276   2.544  12.754 -0.3567 -0.7206  0.2590
12629TIP3    H259303   4.274   2.392  12.757  1.0329 -0.7366  1.4426
12630TIP3   OH259304   3.496   0.257  13.042 -0.3208  0.1540  0.2315
12630TIP3    H159305   3.452   0.265  13.126 -1.0646 -1.7592  0.0472
12630TIP3    H259306   3.548   0.338  13.035 -1.3357  0.9950  1.8577
12631TIP3   OH259307   0.751   3.182  15.982  0.5504 -0.2267  0.2261
12631TIP3    H159308   0.682   3.221  15.929 -0.3411 -1.4919  0.4174
12631TIP3    H259309   0.752   3.232  16.063  0.9848  0.8388 -0.4246
12632TIP3   OH259310   1.918   5.247   2.118 -0.2381 -0.1851 -0.4127
12632TIP3    H159311   1.850   5.191   2.156  0.9097 -0.5084  1.3074
12632TIP3    H259312   1.999   5.198   2.133  0.4778  0.6202 -1.5596
12633TIP3   OH259313   0.122   3.592  17.014 -0.5193 -0.1247  0.4086
12633TIP3    H159314   0.146   3.502  17.037  0.9880 -0.1618 -1.0818
12633TIP3    H259315   0.046   3.582  16.957 -1.0178 -0.3677  1.1019
12634TIP3   OH259316   6.543   0.796   3.707  0.9472 -0.2413  0.0907
12634TIP3    H159317   6.508   0.769   3.622 -0.1803 -1.5149  0.9118
12634TIP3    H259318   6.541   0.716   3.760  0.9716  0.6691  1.5222
12635TIP3   OH259319   5.616   2.633  14.284  0.4633 -0.0054  0.2693
12635TIP3    H159320   5.616   2.557  14.343  1.0808 -0.5492 -0.4210
12635TIP3    H259321   5.646   2.705  14.339 -3.9450  0.7542  2.1406
12636TIP3   OH259322   5.985   2.770  12.960 -0.3382 -0.0475  0.0018
12636TIP3    H159323   5.939   2.794  12.879  1.0046  0.8680 -0.5278
12636TIP3    H259324   5.938   2.816  13.029  0.3910  1.7493 -0.6524
12637TIP3   OH259325   6.554   1.911  15.585 -0.9381 -0.0284  0.2298
12637TIP3    H159326   6.556   1.999  15.620 -0.9911 -0.0843  0.3721
12637TIP3    H259327   6.468   1.876  15.609 -0.3636 -0.6508  1.4820
12638TIP3   OH259328   3.846   5.028   3.512 -0.4573  0.0275  0.0815
12638TIP3    H159329   3.863   5.119   3.485 -1.0770 -0.0869 -0.7188
12638TIP3    H259330   3.928   5.000   3.554 -0.3535  1.0405  0.5952
12639TIP3   OH259331   1.405   0.854   3.781 -0.4527  0.1106  0.1741
12639TIP3    H159332   1.394   0.937   3.735 -1.1123 -0.8620 -1.5298
12639TIP3    H259333   1.372   0.870   3.869 -0.7070  1.6088 -0.1760
12640TIP3   OH259334   5.153   6.034  12.304 -0.0858  0.5037  0.8037
12640TIP3    H159335   5.185   6.067  12.388 -0.7399 -0.1567  1.3306
12640TIP3    H259336   5.066   6.073  12.295 -1.5592 -2.1826  2.1988
12641TIP3   OH259337   4.747   6.290   5.223 -0.0345 -0.0049 -0.3382
12641TIP3    H159338   4.743   6.367   5.167 -0.3710  0.5499  0.4196
12641TIP3    H259339   4.737   6.216   5.164  0.0270  0.5465 -1.0492
12642TIP3   OH259340   3.758   0.537  14.057  0.5720 -0.5062 -0.5363
12642TIP3    H159341   3.784   0.593  13.985 -1.2009  0.1625 -0.7021
12642TIP3    H259342   3.752   0.595  14.133  0.7822 -0.8757 -0.2308
12643TIP3   OH259343   0.857   4.190   4.865 -0.3395  0.0017 -0.1684
12643TIP3    H159344   0.903   4.159   4.944 -1.4663 -0.4026  0.3560
12643TIP3    H259345   0.922   4.242   4.819  0.2718  0.4974  1.1832
12644TIP3   OH259346   3.885   1.352   1.874 -0.4148 -0.2244 -0.2693
12644TIP3    H159347   3.968   1.371   1.917 -0.4377 -1.5286  0.3995
12644TIP3    H259348   3.873   1.258   1.885 -1.6901 -0.1593 -0.8883
12645TIP3   OH259349   3.937   1.328  14.850 -0.4249 -0.4609 -0.7083
12645TIP3    H159350   3.881   1.251  14.838 -0.9955 -0.1486 -0.0584
12645TIP3    H259351   3.935   1.372  14.765 -0.8171 -0.6736 -0.8121
12646TIP3   OH259352   1.886   1.294  11.526 -0.2666 -0.0728 -0.0270
12646TIP3    H159353   1.802   1.314  11.567 -0.1164  0.2687  0.1179
12646TIP3    H259354   1.940   1.257  11.596 -0.2207 -0.0824 -0.0667
12647TIP3   OH259355   0.516   0.931   5.346 -0.5767  0.1717 -0.4049
12647TIP3    H159356   0.544   1.008   5.395  0.6953 -0.9679  0.7517
12647TIP3    H259357   0.465   0.880   5.409 -0.0912 -0.6626 -0.6723
12648TIP3   OH259358   3.446   0.895   1.477  0.0492  0.1795 -0.0149
12648TIP3    H159359   3.531   0.887   1.520  0.6073  2.0419 -0.6563
12648TIP3    H259360   3.396   0.954   1.533 -0.4633 -0.0822 -0.1854
12649TIP3   OH259361   4.707   3.096  16.750 -0.5500  0.2575 -0.1026
12649TIP3    H159362   4.798   3.124  16.754 -0.6717  0.6201  0.2586
12649TIP3    H259363   4.663   3.148  16.818 -1.4911  1.8815 -1.8407
12650TIP3   OH259364   6.713   3.701  16.325 -0.1052  0.3657 -0.0521
12650TIP3    H159365   6.622   3.689  16.299  0.1990  1.1382 -1.6380
12650TIP3    H259366   6.758   3.625  16.289 -0.0941  0.0851  0.5545
12651TIP3   OH259367   1.455   1.152  13.949 -0.0836 -0.3879 -0.4352
12651TIP3    H159368   1.404   1.221  13.907  2.1329  1.6654  0.0287
12651TIP3    H259369   1.539   1.193  13.970  0.1133 -2.1748  3.1096
12652TIP3   OH259370   4.024   0.848  16.557  0.3674 -0.5159 -0.4131
12652TIP3    H159371   4.074   0.831  16.637 -2.0454 -1.9672  0.8944
12652TIP3    H259372   3.978   0.765  16.539  1.5882 -0.5855 -3.9413
12653TIP3   OH259373   4.300   2.504   2.744  0.1830 -0.6825 -0.1726
12653TIP3    H159374   4.263   2.439   2.805 -0.4441 -0.3318 -0.1765
12653TIP3    H259375   4.282   2.588   2.785 -2.4111 -0.2570 -1.9281
12654TIP3   OH259376   1.404   2.188  12.478 -0.3389 -1.1898 -0.2023
12654TIP3    H159377   1.375   2.189  12.387  0.0184 -2.2769 -0.3445
12654TIP3    H259378   1.484   2.240  12.478 -0.7648 -0.5239 -0.3486
12655TIP3   OH259379   3.022   0.981  13.632  0.7622 -0.3727  0.0881
12655TIP3    H159380   3.069   1.033  13.567  0.9119  0.4979  0.8584
12655TIP3    H259381   3.047   1.020  13.716 -0.3143 -0.7376  0.5970
12656TIP3   OH259382   5.219   1.469   3.404 -0.1329 -0.1078  0.5411
12656TIP3    H159383   5.226   1.413   3.326  0.8383  1.0662 -0.2662
12656TIP3    H259384   5.125   1.480   3.418 -0.3220 -0.4182 -0.4175
12657TIP3   OH259385   3.166   2.735  11.750  0.8170  0.2964  0.6838
12657TIP3    H159386   3.240   2.795  11.745  0.0545  1.3315  1.3732
12657TIP3    H259387   3.200   2.651  11.717  1.0785  1.8563 -3.7068
12658TIP3   OH259388   3.832   6.348   4.242  0.0028  0.2453  0.7527
12658TIP3    H159389   3.837   6.308   4.329 -1.1953 -0.3304  0.5631
12658TIP3    H259390   3.757   6.307   4.200 -1.6208  2.9580  0.7208
12659TIP3   OH259391   3.810   3.466  14.707 -0.5759  0.1952  0.3034
12659TIP3    H159392   3.853   3.461  14.622  0.4571  1.9528  0.6903
12659TIP3    H259393   3.741   3.531  14.696 -2.2741 -1.5498  0.0950
12660TIP3   OH259394   6.146   6.596  10.737  0.0645 -0.6778  0.6649
12660TIP3    H159395   6.070   6.580  10.791  0.9278  0.4468  2.3078
12660TIP3    H259396   6.217   6.614  10.799  1.3361 -0.2766 -0.8204
12661TIP3   OH259397   4.619   0.705   5.472 -0.2236  0.2035 -0.2615
12661TIP3    H159398   4.533   0.746   5.456 -0.3124  0.9482  1.7980
12661TIP3    H259399   4.630   0.710   5.567  1.2483 -1.6682 -0.2845
12662TIP3   OH259400   2.551   3.546   1.895 -0.3059  0.0537  1.1701
12662TIP3    H159401   2.557   3.510   1.806  0.5806  1.0049  0.8291
12662TIP3    H259402   2.458   3.557   1.910 -0.5578 -1.4972  0.9328
12663TIP3   OH259403   2.369   2.489   1.253 -0.1532  0.0664 -0.4891
12663TIP3    H159404   2.276   2.468   1.238 -0.2769 -1.0344  1.4323
12663TIP3    H259405   2.415   2.406   1.238  0.1010 -0.1999  1.4557
12664TIP3   OH259406   6.439   5.026   2.004 -0.1349  0.2494 -0.0073
12664TIP3    H159407   6.401   4.992   2.085 -1.8294 -0.4671 -1.0461
12664TIP3    H259408   6.498   5.096   2.032  1.0425 -1.4478  1.9834
12665TIP3   OH259409   2.385   3.445   5.146 -0.5332 -0.3763  0.7056
12665TIP3    H159410   2.409   3.360   5.183  0.1086 -0.0277  1.0927
12665TIP3    H259411   2.427   3.509   5.203  0.8862  0.1632 -0.8797
12666TIP3   OH259412   5.957   6.480   3.724  0.0351 -0.1462 -0.5880
12666TIP3    H159413   5.980   6.556   3.777  0.6281 -1.3424  0.9227
12666TIP3    H259414   6.008   6.490   3.644  1.7357 -0.0115  0.4765
12667TIP3   OH259415   5.029   4.505   2.867  0.1143 -0.2123 -0.2222
12667TIP3    H159416   5.110   4.458   2.884  0.9645  0.5060 -2.0571
12667TIP3    H259417   5.034   4.582   2.924 -0.6453 -1.5128  1.7511
12668TIP3   OH259418   5.838   3.839   2.975  0.1473 -0.3102 -0.3296
12668TIP3    H159419   5.865   3.890   3.052 -0.3304  0.0678 -0.4131
12668TIP3    H259420   5.796   3.761   3.011 -0.8910  0.2918 -0.1951
12669TIP3   OH259421   5.617   4.848  12.281  0.2931 -0.2235  0.1914
12669TIP3    H159422   5.597   4.854  12.188 -0.1481 -1.7358  0.1687
12669TIP3    H259423   5.709   4.874  12.287  0.8375 -1.7881 -0.9169
12670TIP3   OH259424   1.396   2.178   0.792 -0.5961 -0.4184  0.2196
12670TIP3    H159425   1.478   2.213   0.758  1.7821 -4.2375  1.4325
12670TIP3    H259426   1.395   2.203   0.884 -0.6150 -0.6862  0.2917
12671TIP3   OH259427   4.169   2.716  12.012  0.3667  0.1912  0.1395
12671TIP3    H159428   4.207   2.741  11.928  0.7244  0.1399  0.2857
12671TIP3    H259429   4.242   2.717  12.073  0.5326 -1.8734  0.0220
12672TIP3   OH259430   4.380   3.302   4.049 -0.0151 -0.2432  0.0933
12672TIP3    H159431   4.452   3.296   3.986  0.9099 -0.6935  1.1517
12672TIP3    H259432   4.331   3.379   4.022 -0.5390 -1.2502 -2.0707
12673TIP3   OH259433   2.734   1.137   3.117 -0.2510 -0.0257 -0.8979
12673TIP3    H159434   2.688   1.103   3.193 -0.7150  1.0528 -0.6800
12673TIP3    H259435   2.746   1.231   3.135  2.2275 -0.2745 -0.8467
12674TIP3   OH259436   5.656   6.337  13.285  0.1847 -0.0292 -0.5498
12674TIP3    H159437   5.624   6.271  13.347  0.8641 -1.1339 -1.3455
12674TIP3    H259438   5.751   6.338  13.297  0.3438 -0.3902 -1.6813
12675TIP3   OH259439   3.736   3.428  14.250  0.5326  0.6741  0.0502
12675TIP3    H159440   3.797   3.431  14.323  0.8482  3.5091 -0.2155
12675TIP3    H259441   3.784   3.382  14.181  1.0816 -0.0227  0.8772
12676TIP3   OH259442   2.836   3.593  12.784 -0.1267 -0.1712 -0.3859
12676TIP3    H159443   2.894   3.605  12.709 -0.6899  2.1548 -0.5170
12676TIP3    H259444   2.878   3.642  12.855  0.9787 -3.2297  1.2519
12677TIP3   OH259445   6.004   0.845  15.086  0.5476  0.2300 -0.5849
12677TIP3    H159446   5.912   0.827  15.064  0.4688  0.5410 -0.5243
12677TIP3    H259447   6.003   0.864  15.180  0.8395 -0.8035 -0.3648
12678TIP3   OH259448   1.683   5.474  11.874  0.6303 -0.3610 -0.1298
12678TIP3    H159449   1.693   5.419  11.795 -1.1283 -0.6141 -0.2086
12678TIP3    H259450   1.637   5.552  11.843  2.6973  1.0207  0.0777
12679TIP3   OH259451   3.262   5.938  15.995 -0.0008 -0.4647 -0.4494
12679TIP3    H159452   3.301   5.966  16.078  0.2698 -1.9489 -0.0431
12679TIP3    H259453   3.291   6.004  15.932  1.4194 -0.3574  0.2668
12680TIP3   OH259454   2.976   4.234  14.650  0.2961 -0.2944  0.2591
12680TIP3    H159455   2.887   4.199  14.651  0.6472 -1.4048 -1.8035
12680TIP3    H259456   2.970   4.317  14.604  0.2144  0.0731  0.9154
12681TIP3   OH259457   3.477   2.487  17.160  0.1677 -0.5022 -0.1400
12681TIP3    H159458   3.395   2.470  17.207 -0.7708 -0.4727 -1.6950
12681TIP3    H259459   3.524   2.404  17.164 -0.0611 -0.6125  0.5130
12682TIP3   OH259460   1.302   5.296  15.400  0.0051  0.3656  0.5049
12682TIP3    H159461   1.254   5.267  15.477  0.0744 -1.3666 -0.0611
12682TIP3    H259462   1.294   5.392  15.401 -0.9287  0.3032  2.0259
12683TIP3   OH259463   4.407   1.566  12.998  0.2156  0.5271 -0.1326
12683TIP3    H159464   4.496   1.600  12.995  0.1119  0.7778 -1.8538
12683TIP3    H259465   4.365   1.604  12.920 -1.8680  1.6796  1.4285
12684TIP3   OH259466   1.242   0.957   3.340 -0.0029 -0.1272 -0.4576
12684TIP3    H159467   1.228   1.045   3.305 -0.3368  0.6266  1.4805
12684TIP3    H259468   1.310   0.967   3.406 -0.9388 -1.0647  0.6928
12685TIP3   OH259469   1.812   2.060  16.084 -0.0494  0.2108  0.2247
12685TIP3    H159470   1.834   2.120  16.156 -0.6860  1.5839 -0.6691
12685TIP3    H259471   1.757   2.112  16.026 -0.3248 -1.1608 -0.7894
12686TIP3   OH259472   1.294   3.094  11.089  0.0276  0.5529  0.0779
12686TIP3    H159473   1.211   3.061  11.056 -0.6021  2.7245 -0.7365
12686TIP3    H259474   1.326   3.152  11.019  0.7215  2.0731  1.5828
12687TIP3   OH259475   4.659   6.517   2.075 -0.4854  0.4047 -0.4166
12687TIP3    H159476   4.688   6.521   2.167  2.6167  1.2127 -1.3096
12687TIP3    H259477   4.691   6.599   2.037 -4.7186  1.7899 -1.5782
12688TIP3   OH259478   1.994   6.101   0.829  0.5972  0.9789  0.1072
12688TIP3    H159479   1.997   6.092   0.734  2.3064  2.8154 -0.0751
12688TIP3    H259480   1.968   6.014   0.861  2.2433 -0.3634 -1.9332
12689TIP3   OH259481   1.566   4.454  16.945  0.1428 -0.1868 -0.1656
12689TIP3    H159482   1.471   4.459  16.935  0.2902 -0.7979 -2.4471
12689TIP3    H259483   1.596   4.545  16.943 -0.2817 -0.0594 -1.1604
12690TIP3   OH259484   3.602   4.342   4.891 -0.0159 -0.6572 -0.1125
12690TIP3    H159485   3.563   4.323   4.976 -1.8642  0.9107 -0.5285
12690TIP3    H259486   3.683   4.388   4.911 -0.0238 -1.0348  0.8077
12691TIP3   OH259487   1.139   3.384   6.253 -0.3569 -0.4657  0.0075
12691TIP3    H159488   1.087   3.369   6.332 -0.0731 -1.3197  0.0450
12691TIP3    H259489   1.228   3.397   6.284 -0.2533 -0.7543 -0.1673
12692TIP3   OH259490   3.075   3.855  13.341 -0.4176 -0.3961 -0.0980
12692TIP3    H159491   3.031   3.871  13.424  0.4168 -1.3900  0.5604
12692TIP3    H259492   3.167   3.873  13.359 -0.3601  0.4367 -1.1152
12693TIP3   OH259493   3.495   2.476   3.984  0.7855 -0.2272 -0.0961
12693TIP3    H159494   3.568   2.498   3.926  0.6669 -2.6514 -1.2656
12693TIP3    H259495   3.529   2.408   4.042 -0.3244 -0.8569 -0.1586
12694TIP3   OH259496   3.190   5.410  16.795  0.1585  0.0775 -0.8389
12694TIP3    H159497   3.199   5.482  16.857  0.9272 -0.5177 -0.2325
12694TIP3    H259498   3.136   5.346  16.841 -0.0993  0.0501 -1.1777
12695TIP3   OH259499   2.450   5.819   0.322  0.0467 -0.0917  0.7046
12695TIP3    H159500   2.472   5.912   0.326 -1.4323  0.2609  1.5320
12695TIP3    H259501   2.382   5.814   0.254  1.0321 -0.7959 -0.2700
12696TIP3   OH259502   0.515   1.032  17.235  0.3684 -0.2200 -0.5325
12696TIP3    H159503   0.424   1.003  17.245  0.5137 -0.1292  1.3352
12696TIP3    H259504   0.518   1.069  17.147 -1.0086 -1.5874 -1.2119
12697TIP3   OH259505   0.690   6.732  15.869 -0.1820 -0.1534 -0.1095
12697TIP3    H159506   0.694   6.806  15.931 -1.5301 -0.4161  0.3186
12697TIP3    H259507   0.602   6.697  15.880  0.7081 -2.3945  0.3309
12698TIP3   OH259508   2.972   0.630   0.014  0.2463 -0.5908  0.6040
12698TIP3    H159509   2.914   0.607  -0.059 -0.2286  0.0787  0.7580
12698TIP3    H259510   2.978   0.550   0.066  1.7250 -1.5086 -0.8942
12699TIP3   OH259511   3.090   0.625   0.511 -0.2600  0.1279  0.7868
12699TIP3    H159512   3.136   0.618   0.427 -0.1820 -0.4198  0.8701
12699TIP3    H259513   3.003   0.659   0.488  0.3969  1.8669  0.7045
12700TIP3   OH259514   3.498   1.520  11.586 -0.0695  0.3402  0.0600
12700TIP3    H159515   3.423   1.460  11.592 -1.1992  1.7973  1.5201
12700TIP3    H259516   3.559   1.489  11.653 -1.6371  2.0035  2.4063
12701TIP3   OH259517   0.914   1.781  13.150 -0.3745  0.4685 -0.2200
12701TIP3    H159518   0.910   1.791  13.245 -1.4799  1.6035 -0.3568
12701TIP3    H259519   0.944   1.692  13.137  1.2529  0.7602  1.1840
12702TIP3   OH259520   1.528   4.737  15.283 -0.1746  0.7618 -0.3202
12702TIP3    H159521   1.470   4.812  15.281 -1.0996  0.0511 -0.6141
12702TIP3    H259522   1.475   4.663  15.253  0.1676 -0.3688  1.6612
12703TIP3   OH259523   0.141   5.120   5.989  0.0550 -0.5982 -0.2316
12703TIP3    H159524   0.152   5.134   5.895 -0.7073  1.7089 -0.0571
12703TIP3    H259525   0.231   5.121   6.023  0.2800 -0.2371 -0.8108
12704TIP3   OH259526   2.829   1.603   4.970  0.3975 -0.0687 -0.0013
12704TIP3    H159527   2.756   1.593   5.031 -1.5557 -1.6284 -2.3927
12704TIP3    H259528   2.833   1.697   4.953 -1.3467  0.0343 -0.0860
12705TIP3   OH259529   2.344   3.768  13.536  0.2464  0.1834 -0.7235
12705TIP3    H159530   2.261   3.722  13.524 -0.8434  2.0135 -0.6659
12705TIP3    H259531   2.328   3.856  13.500  1.3506  1.3657  1.4291
12706TIP3   OH259532   4.177   1.985   5.485  0.3649 -0.0773 -0.0010
12706TIP3    H159533   4.172   2.077   5.459  1.5800  0.2022  0.6532
12706TIP3    H259534   4.147   1.936   5.408 -0.6009  0.8669 -0.2369
12707TIP3   OH259535   2.921   4.265   0.522  0.2524  0.0981 -0.1048
12707TIP3    H159536   2.852   4.297   0.464 -1.0272 -1.0652  0.7309
12707TIP3    H259537   2.899   4.300   0.608  1.1678  0.3726  0.0330
12708TIP3   OH259538   6.577   1.782   1.274 -0.5588 -0.0280 -0.2179
12708TIP3    H159539   6.538   1.707   1.231 -0.9570  0.3602 -0.5312
12708TIP3    H259540   6.527   1.793   1.355  0.6717 -1.2326  0.7716
12709TIP3   OH259541   3.327   2.127   4.620 -0.3492 -0.3163 -0.6480
12709TIP3    H159542   3.343   2.212   4.578 -0.4722  0.6754  1.2076
12709TIP3    H259543   3.231   2.120   4.623 -0.3745 -1.5171 -2.6206
12710TIP3   OH259544   4.649   2.524  12.138 -0.0508  0.3528  0.2578
12710TIP3    H159545   4.703   2.474  12.199  0.3561 -1.3380 -1.3917
12710TIP3    H259546   4.573   2.468  12.121  0.8554 -0.2243 -2.3300
12711TIP3   OH259547   2.359   5.892  11.714 -0.5060 -0.2391 -0.0107
12711TIP3    H159548   2.382   5.802  11.694 -0.7611 -0.3239  0.0767
12711TIP3    H259549   2.263   5.894  11.714 -0.5065  0.1658 -0.6114
12712TIP3   OH259550   3.493   3.226  15.632  0.9743  0.2136  0.6262
12712TIP3    H159551   3.499   3.273  15.715 -0.7139  0.3788  0.6952
12712TIP3    H259552   3.521   3.137  15.652  0.6017  0.2614  1.3863
12713TIP3   OH259553   0.629   3.334  11.970 -0.3592  0.0002 -0.3159
12713TIP3    H159554   0.657   3.425  11.972  0.7309 -0.1773 -3.0052
12713TIP3    H259555   0.548   3.333  12.021  0.0014  2.3099  0.4268
12714TIP3   OH259556   6.127   0.302   5.908  0.2118  0.5126 -0.4518
12714TIP3    H159557   6.032   0.299   5.906  0.0304  0.4553  2.8985
12714TIP3    H259558   6.148   0.393   5.929  0.7206  0.1029  0.9767
12715TIP3   OH259559   6.030   4.297  14.433 -0.0856 -0.6337 -0.1005
12715TIP3    H159560   6.109   4.256  14.469  0.3518 -0.3283 -0.6906
12715TIP3    H259561   6.063   4.362  14.372 -0.7416  1.2642  1.4659
12716TIP3   OH259562   1.446   3.501  17.294 -0.3932 -0.2794 -0.6414
12716TIP3    H159563   1.437   3.407  17.276 -2.0923 -0.3642  0.3973
12716TIP3    H259564   1.357   3.529  17.319  0.0935  1.5958 -0.8657
12717TIP3   OH259565   6.205   4.868   4.951 -0.1850  0.4990 -1.0121
12717TIP3    H159566   6.198   4.949   4.901  0.2471  0.3923 -1.2492
12717TIP3    H259567   6.192   4.894   5.043  2.9245  1.3354 -0.7179
12718TIP3   OH259568   6.472   4.214   5.328 -0.6583  0.3141 -0.2851
12718TIP3    H159569   6.478   4.147   5.396 -1.8346  0.2396 -0.2241
12718TIP3    H259570   6.430   4.169   5.255  1.2093  0.1988 -1.3510
12719TIP3   OH259571   5.995   5.474   3.296  0.0100 -0.1469  0.2005
12719TIP3    H159572   6.053   5.525   3.351  0.2832  0.0253 -0.2384
12719TIP3    H259573   6.023   5.494   3.206 -0.7607 -0.0161 -0.0197
12720TIP3   OH259574   0.705   4.984  13.185 -0.1131 -0.2153  0.0952
12720TIP3    H159575   0.682   5.058  13.129 -1.8478  0.3987  1.5083
12720TIP3    H259576   0.751   5.023  13.259  0.8739 -0.8411 -0.1668
12721TIP3   OH259577   3.845   4.208  11.756 -1.0009 -0.0237 -1.0202
12721TIP3    H159578   3.770   4.261  11.728 -0.5355  0.2630 -1.7541
12721TIP3    H259579   3.853   4.225  11.850 -2.6221 -1.0286 -0.6719
12722TIP3   OH259580   6.595   1.637  17.199 -0.1695 -0.4085  0.8257
12722TIP3    H159581   6.641   1.704  17.149 -0.5373  0.6651  1.8686
12722TIP3    H259582   6.660   1.567  17.211  0.3332 -0.0922  0.0151
12723TIP3   OH259583   5.525   3.375  10.766 -0.0538  0.3916  0.0853
12723TIP3    H159584   5.577   3.451  10.793  0.9200 -0.3996  0.5407
12723TIP3    H259585   5.441   3.411  10.740  1.0617  1.8732 -1.7208
12724TIP3   OH259586   0.748   0.080   0.165 -0.0162  0.2421 -0.4267
12724TIP3    H159587   0.722   0.170   0.145  0.8574  0.5828 -0.0955
12724TIP3    H259588   0.830   0.089   0.213  0.5219 -0.7647 -1.1153
12725TIP3   OH259589   4.026   2.102  11.514  0.0471  0.3021  0.7486
12725TIP3    H159590   4.022   2.148  11.431  1.7598  1.5798  1.3123
12725TIP3    H259591   3.935   2.090  11.540 -0.5406 -0.3296 -1.3747
12726TIP3   OH259592   5.079   1.897   6.224 -0.4115 -0.4812 -0.4449
12726TIP3    H159593   4.984   1.906   6.220 -0.3825  1.7280  1.6226
12726TIP3    H259594   5.110   1.938   6.143 -1.2015  0.6295 -0.2177
12727TIP3   OH259595   1.607   2.565  13.507 -0.1696 -0.0372  0.7714
12727TIP3    H159596   1.542   2.551  13.438 -0.8785  0.9104  1.2252
12727TIP3    H259597   1.677   2.615  13.465 -1.0987  1.4868  0.9796
12728TIP3   OH259598   3.023   1.298  12.442 -0.0622  0.4830  0.2188
12728TIP3    H159599   2.985   1.321  12.357  0.5764  1.1589  0.1095
12728TIP3    H259600   2.960   1.237  12.480  0.0489 -0.5127 -1.1022
12729TIP3   OH259601   4.655   6.422   3.778  0.0692  0.6074  0.2408
12729TIP3    H159602   4.732   6.449   3.728 -1.1993  1.6229 -1.2180
12729TIP3    H259603   4.618   6.349   3.728 -1.0004  1.3882 -0.1363
12730TIP3   OH259604   1.277   3.545  14.222  0.1998 -0.2272 -0.7062
12730TIP3    H159605   1.318   3.484  14.284 -1.0101 -0.1537  0.2093
12730TIP3    H259606   1.210   3.493  14.178 -0.3086  0.2290 -0.4825
12731TIP3   OH259607   4.820   6.041  15.440 -0.0038 -0.5766 -0.1219
12731TIP3    H159608   4.880   6.108  15.473  0.4669 -1.4596  0.8776
12731TIP3    H259609   4.766   6.087  15.375  0.2065  0.8029  0.6407
12732TIP3   OH259610   5.795   1.535   5.336 -0.0004  0.2413 -0.3979
12732TIP3    H159611   5.755   1.481   5.404  1.7936 -0.0911  0.4834
12732TIP3    H259612   5.833   1.473   5.275  0.3081  0.5197 -0.4954
12733TIP3   OH259613   4.927   3.553  13.417 -0.4148 -0.1293 -0.6979
12733TIP3    H159614   4.969   3.628  13.459 -0.1297 -0.1246 -0.9812
12733TIP3    H259615   4.967   3.476  13.460 -0.0581 -0.1259 -1.0126
12734TIP3   OH259616   0.420   5.583   0.469  0.1679  0.4174 -0.2069
12734TIP3    H159617   0.422   5.493   0.438  2.3149  0.1144  0.6955
12734TIP3    H259618   0.488   5.588   0.536 -1.1968  2.2285  1.1579
12735TIP3   OH259619   6.712   4.077   0.553 -0.1487 -0.5841 -0.8555
12735TIP3    H159620   6.762   3.995   0.557  0.2217 -0.3562 -0.7937
12735TIP3    H259621   6.623   4.050   0.528  0.0712 -0.9652 -1.2373
12736TIP3   OH259622   5.570   0.083   0.183  0.5465 -0.2184 -0.6396
12736TIP3    H159623   5.551   0.077   0.089 -0.1415 -1.1186 -0.4632
12736TIP3    H259624   5.599  -0.005   0.207 -0.9831 -0.5134  0.3115
12737TIP3   OH259625   5.614   3.796  14.263  0.5437  0.0348  0.1514
12737TIP3    H159626   5.690   3.795  14.205  0.2068  1.4654 -0.3557
12737TIP3    H259627   5.613   3.884  14.300 -1.4338  0.3969 -0.6473
12738TIP3   OH259628   0.664   0.428  12.175  0.6569  0.2662 -0.2594
12738TIP3    H159629   0.608   0.438  12.252 -0.9943 -1.2900 -1.1801
12738TIP3    H259630   0.743   0.478  12.196 -1.1361  2.8211  1.0269
12739TIP3   OH259631   3.915   3.704  11.569  0.0895 -0.3082 -0.0146
12739TIP3    H159632   3.946   3.762  11.498  1.7812  0.2923  1.1560
12739TIP3    H259633   3.821   3.693  11.551  0.3268  0.3704 -1.9528
12740TIP3   OH259634   3.394   0.912  15.139 -0.1748  0.1038 -0.4381
12740TIP3    H159635   3.314   0.868  15.109 -0.9074  0.9259  0.2343
12740TIP3    H259636   3.399   0.991  15.084  0.4471 -0.1795 -0.7973
12741TIP3   OH259637   1.797   4.860   1.522  0.1207  0.3714  0.5279
12741TIP3    H159638   1.738   4.824   1.456  0.0452 -0.4055  0.9912
12741TIP3    H259639   1.880   4.873   1.477 -0.3628  1.3538 -0.0999
12742TIP3   OH259640   4.917   3.657   1.202 -0.6012 -0.2281 -0.0616
12742TIP3    H159641   4.933   3.706   1.283 -0.5393  0.7945 -0.6698
12742TIP3    H259642   5.004   3.641   1.166 -0.6454 -0.3152 -0.1275
12743TIP3   OH259643   6.483   1.341  16.963 -0.1810 -0.3753 -0.0677
12743TIP3    H159644   6.501   1.250  16.989  1.3700  0.1456  0.7920
12743TIP3    H259645   6.569   1.378  16.942 -0.7046  1.0928  0.2537
12744TIP3   OH259646   1.376   4.306   4.749 -0.4617  0.0889  0.0116
12744TIP3    H159647   1.307   4.371   4.735 -0.7434  0.0784  1.2049
12744TIP3    H259648   1.364   4.277   4.840  0.9613 -0.0908  0.1752
12745TIP3   OH259649   0.940   2.442  13.147 -0.3772  0.3859  0.2847
12745TIP3    H159650   0.871   2.412  13.206 -2.4695  0.1834 -2.1118
12745TIP3    H259651   0.898   2.510  13.094  1.1564  0.0227 -1.4840
12746TIP3   OH259652   6.529   3.806   0.009  0.3451  0.2051  0.3395
12746TIP3    H159653   6.515   3.832   0.100  0.9251 -0.8444  0.7462
12746TIP3    H259654   6.444   3.771  -0.019 -0.2849  1.9580 -0.0444
12747TIP3   OH259655   2.023   1.947   2.718 -0.2271  0.8015  0.3370
12747TIP3    H159656   2.088   1.885   2.752  0.4004  0.4410 -1.4475
12747TIP3    H259657   2.050   1.963   2.628 -2.3124  1.0914 -0.2749
12748TIP3   OH259658   3.572   6.255   4.225 -0.1729  0.7427  0.5317
12748TIP3    H159659   3.482   6.224   4.211  0.2082 -0.9739  1.5594
12748TIP3    H259660   3.575   6.276   4.318  1.2128 -1.9533  1.1771
12749TIP3   OH259661   4.323   3.072  14.452  0.3563  0.4715  0.5633
12749TIP3    H159662   4.229   3.076  14.437  0.4763  0.6869 -0.1641
12749TIP3    H259663   4.350   2.987  14.416  0.3411  0.0966  1.4028
12750TIP3   OH259664   4.183   0.048  12.355 -0.3684 -0.0254  0.4229
12750TIP3    H159665   4.247   0.061  12.425  1.1697 -1.1333 -0.7194
12750TIP3    H259666   4.105   0.013  12.399 -0.2673  1.4145  1.8446
12751TIP3   OH259667   2.395   3.181  16.263 -0.6139  0.2865  0.6144
12751TIP3    H159668   2.487   3.201  16.283 -0.6993  0.7555  0.5574
12751TIP3    H259669   2.358   3.156  16.347  0.0165 -1.7669  0.3262
12752TIP3   OH259670   6.080   1.737  15.461 -0.4913  0.1275 -0.2936
12752TIP3    H159671   6.039   1.781  15.536 -1.6859  2.1962 -2.0214
12752TIP3    H259672   6.040   1.650  15.460 -1.7056  0.6388  0.5206
12753TIP3   OH259673   0.803   1.897  15.565 -0.0854 -0.4488  0.2965
12753TIP3    H159674   0.716   1.863  15.586  0.0354 -0.7765  0.2782
12753TIP3    H259675   0.796   1.991  15.581 -0.7348 -0.3195 -0.6624
12754TIP3   OH259676   5.424   4.320   5.096  0.1348  0.4300  0.2462
12754TIP3    H159677   5.488   4.385   5.127  0.2176  0.0761  0.8440
12754TIP3    H259678   5.478   4.248   5.063  0.0652  1.2008 -1.6830
12755TIP3   OH259679   6.293   5.615   3.222  0.3552  0.2707 -0.1595
12755TIP3    H159680   6.273   5.705   3.197  0.6454  0.5999  0.7480
12755TIP3    H259681   6.260   5.608   3.312 -2.0065 -1.3108 -1.0512
12756TIP3   OH259682   4.730   5.913   6.007  0.0547 -0.7765 -0.1339
12756TIP3    H159683   4.806   5.871   5.968  0.3201 -2.0519  1.6329
12756TIP3    H259684   4.667   5.923   5.935  0.8833 -2.1018 -1.0630
12757TIP3   OH259685   4.582   6.746   5.042 -0.0062 -0.1349  0.4034
12757TIP3    H159686   4.638   6.775   4.970 -0.1989  0.6489  0.5694
12757TIP3    H259687   4.614   6.794   5.118 -2.0883  1.8105  0.1614
12758TIP3   OH259688   4.584   3.635  14.332 -0.5697 -0.6693 -0.2826
12758TIP3    H159689   4.670   3.637  14.375 -0.3275  0.9271 -0.7484
12758TIP3    H259690   4.598   3.583  14.253 -0.0492 -0.5147 -0.2956
12759TIP3   OH259691   0.127   3.273  12.126  0.1474 -0.4044  0.3278
12759TIP3    H159692   0.127   3.177  12.127  0.3589 -0.4073  0.1917
12759TIP3    H259693   0.069   3.297  12.198 -0.0096 -0.6347  0.2812
12760TIP3   OH259694   3.317   2.427   2.788 -0.0627  0.5051  0.0840
12760TIP3    H159695   3.241   2.460   2.741  0.7075  1.0513 -0.8258
12760TIP3    H259696   3.284   2.353   2.840 -0.8852 -0.3873 -1.6313
12761TIP3   OH259697   3.274   1.925  16.761 -0.6172 -1.1979 -0.3701
12761TIP3    H159698   3.306   1.877  16.685 -0.8061 -0.7239 -0.7593
12761TIP3    H259699   3.180   1.932  16.748 -0.5400 -0.3394 -0.5562
12762TIP3   OH259700   5.834   1.012   3.883 -0.5473  0.2844 -0.3592
12762TIP3    H159701   5.789   0.927   3.877 -1.5634  0.8208 -0.5322
12762TIP3    H259702   5.873   1.024   3.797  1.8075 -1.1671  0.4203
12763TIP3   OH259703   4.433   4.426   4.944 -0.0655 -0.3225 -0.1195
12763TIP3    H159704   4.429   4.343   4.992  1.9339 -0.3322  0.1174
12763TIP3    H259705   4.486   4.483   5.000 -3.7582  2.2013  1.1641
12764TIP3   OH259706   2.537   6.167  14.690 -0.0845 -0.1136  0.3003
12764TIP3    H159707   2.615   6.114  14.703  0.4626  0.2969 -1.2091
12764TIP3    H259708   2.565   6.238  14.632 -1.8446 -0.6285 -1.2693
12765TIP3   OH259709   4.026   0.659  13.230 -0.2938 -0.2414 -0.2547
12765TIP3    H159710   3.990   0.739  13.191 -1.1428  0.1085  1.1639
12765TIP3    H259711   4.039   0.600  13.156  0.3004  1.1693 -1.3276
12766TIP3   OH259712   5.301   1.338   4.770 -0.2052 -0.2686  0.5271
12766TIP3    H159713   5.337   1.280   4.838 -1.1327 -1.5059  0.0058
12766TIP3    H259714   5.378   1.379   4.731  0.6401 -2.3080 -0.0759
12767TIP3   OH259715   3.203   4.733  11.591  0.0959  0.0400  0.1396
12767TIP3    H159716   3.223   4.653  11.543 -1.1524  0.6487 -1.5002
12767TIP3    H259717   3.289   4.770  11.614  0.6962 -1.0466 -0.2932
12768TIP3   OH259718   3.157   4.005  16.533 -0.4798  0.4778 -0.1583
12768TIP3    H159719   3.110   3.931  16.495 -1.0258  0.2584  0.9178
12768TIP3    H259720   3.121   4.014  16.621  0.9370  0.8175  0.4102
12769TIP3   OH259721   3.554   1.175   6.042  0.1898  0.3765  0.0775
12769TIP3    H159722   3.647   1.183   6.060  0.2641 -0.7952  0.3207
12769TIP3    H259723   3.511   1.228   6.109  0.5962 -1.1537  1.6253
12770TIP3   OH259724   2.270   4.046  13.672 -0.1259  0.0280  0.0931
12770TIP3    H159725   2.201   3.980  13.669  0.8372 -1.5164  4.1727
12770TIP3    H259726   2.231   4.118  13.722  0.1602  0.6687 -0.5993
12771TIP3   OH259727   3.340   5.257   0.636 -0.4776 -0.0667 -0.2565
12771TIP3    H159728   3.321   5.165   0.614  1.2016  0.0981 -2.8929
12771TIP3    H259729   3.390   5.252   0.718 -0.9571 -1.4478 -0.0118
12772TIP3   OH259730   2.156   3.483   0.501  0.3298 -0.2401 -0.1473
12772TIP3    H159731   2.207   3.482   0.420 -0.1051 -1.9393 -0.4396
12772TIP3    H259732   2.071   3.519   0.477  0.6649  0.6097 -0.1096
12773TIP3   OH259733   2.601   4.577  16.279  0.1634 -0.2512 -0.6216
12773TIP3    H159734   2.685   4.597  16.321 -0.5518  2.0087 -0.1333
12773TIP3    H259735   2.571   4.661  16.243 -3.2970 -0.1756  1.8931
12774TIP3   OH259736   3.634   3.142  15.156 -0.1298 -0.2817 -0.4535
12774TIP3    H159737   3.727   3.118  15.160 -0.5133 -2.2504 -1.7639
12774TIP3    H259738   3.597   3.106  15.237  0.4706  1.9572  0.9045
12775TIP3   OH259739   0.064   1.361   1.444  0.2244  0.6194  0.6742
12775TIP3    H159740   0.067   1.266   1.456 -0.3331  0.7473  2.0300
12775TIP3    H259741   0.120   1.395   1.514  0.8300  1.2797 -0.1212
12776TIP3   OH259742   4.782   3.613  12.016 -0.3045 -0.1750  0.5934
12776TIP3    H159743   4.767   3.705  11.994 -0.2849 -0.3130 -0.0155
12776TIP3    H259744   4.874   3.609  12.039 -0.0877 -0.2070 -0.2579
12777TIP3   OH259745   0.663   0.344  14.269  0.2255  0.0349 -0.3301
12777TIP3    H159746   0.660   0.252  14.244  2.2033  0.1636 -1.2701
12777TIP3    H259747   0.727   0.383  14.209  1.4463  1.4532  1.7391
12778TIP3   OH259748   1.773   6.092  13.201  0.0301 -0.1939 -0.5398
12778TIP3    H159749   1.759   6.178  13.239 -1.1000 -0.3262 -0.6307
12778TIP3    H259750   1.686   6.052  13.197  0.6780 -1.8553  0.6803
12779TIP3   OH259751   0.577   6.090   1.840  0.0315  0.1049  0.2334
12779TIP3    H159752   0.605   6.155   1.776  0.7523  0.4611  0.8787
12779TIP3    H259753   0.659   6.049   1.869 -0.2732 -0.0193  0.9420
12780TIP3   OH259754   3.644   4.662   0.960  0.1554  0.0185 -0.6172
12780TIP3    H159755   3.608   4.598   0.899  0.8611 -1.0296  0.0216
12780TIP3    H259756   3.691   4.609   1.024  1.5786  1.2297 -0.6073
12781TIP3   OH259757   0.874   0.451  14.155 -0.1982 -0.3209  0.0564
12781TIP3    H159758   0.914   0.519  14.209 -1.6773  0.5122  0.1513
12781TIP3    H259759   0.932   0.376  14.164  1.0318  0.6682  0.6120
12782TIP3   OH259760   1.763   4.791  13.941  0.1440  0.3900  0.1805
12782TIP3    H159761   1.752   4.886  13.930 -0.5953  0.5699  2.0177
12782TIP3    H259762   1.728   4.773  14.029  0.8754 -1.4886  0.1391
12783TIP3   OH259763   4.881   6.658  12.215 -0.8028 -0.8269 -0.1295
12783TIP3    H159764   4.873   6.563  12.225 -1.1728 -0.7787  0.0492
12783TIP3    H259765   4.861   6.674  12.123 -1.3576 -0.8597 -0.0166
12784TIP3   OH259766   5.212   2.059  13.665  0.0818 -0.1461  0.2246
12784TIP3    H159767   5.239   1.976  13.626 -1.4948 -0.2642 -0.7134
12784TIP3    H259768   5.280   2.121  13.638 -0.4959 -0.4140 -2.0754
12785TIP3   OH259769   0.456   0.662  11.570  0.2063 -0.6923 -0.1639
12785TIP3    H159770   0.449   0.578  11.614 -1.1162 -1.4697 -1.7717
12785TIP3    H259771   0.479   0.724  11.640  1.7062 -2.4217  0.9702
12786TIP3   OH259772   6.315   5.356   3.866  0.0875  0.3000 -0.1880
12786TIP3    H159773   6.227   5.319   3.873  0.3611 -0.7990 -1.8797
12786TIP3    H259774   6.373   5.282   3.884  0.7955  1.4812  3.2315
12787TIP3   OH259775   2.102   2.629  11.463  0.2552 -0.0396 -0.4479
12787TIP3    H159776   2.187   2.630  11.508 -0.0178 -0.8462  0.1247
12787TIP3    H259777   2.069   2.718  11.469  1.6585  0.6152 -1.8645
12788TIP3   OH259778   0.085   4.306  15.779  0.3154 -0.0083 -0.3409
12788TIP3    H159779   0.037   4.233  15.818  1.1591 -0.9877 -1.0839
12788TIP3    H259780   0.160   4.319  15.838 -0.1386  0.6644  0.1081
12789TIP3   OH259781   0.803   5.572  11.410 -0.1993  0.6200  1.0009
12789TIP3    H159782   0.821   5.666  11.412  0.2164  0.6077 -0.5448
12789TIP3    H259783   0.714   5.566  11.376  0.4236  0.4461 -0.7139
12790TIP3   OH259784   4.317   5.519  13.694 -0.2943 -0.7596 -0.0269
12790TIP3    H159785   4.238   5.570  13.678 -1.5346 -2.4293  0.5201
12790TIP3    H259786   4.382   5.555  13.634 -2.0186 -0.5967 -1.8858
12791TIP3   OH259787   1.254   5.240   0.418  1.0615  0.3712  0.5155
12791TIP3    H159788   1.169   5.212   0.451 -0.3958  2.5216 -1.1304
12791TIP3    H259789   1.314   5.169   0.441 -1.5517 -2.1880 -0.0862
12792TIP3   OH259790   1.684   6.437   5.914  0.4216  0.6055  0.2856
12792TIP3    H159791   1.692   6.351   5.954 -2.3551  0.8828  1.6689
12792TIP3    H259792   1.697   6.499   5.986 -1.2672  1.2021  0.1258
12793TIP3   OH259793   6.242   5.432  13.914  0.0021  0.1995  0.1070
12793TIP3    H159794   6.299   5.489  13.863 -0.2308  0.7937  0.5023
12793TIP3    H259795   6.159   5.479  13.919  0.2355  0.4778  1.6313
12794TIP3   OH259796   5.434   4.737  13.401  0.0900  0.4294  0.1238
12794TIP3    H159797   5.465   4.754  13.489  1.5687 -2.0178  0.1710
12794TIP3    H259798   5.491   4.789  13.344  0.2634  0.6698  0.5138
12795TIP3   OH259799   3.467   3.694   0.412  0.2708 -0.2136  0.0874
12795TIP3    H159800   3.381   3.714   0.448  0.0751 -2.7121  1.1558
12795TIP3    H259801   3.488   3.771   0.358 -2.7414  0.3209 -0.5133
12796TIP3   OH259802   1.335   6.661   4.734 -0.4255  0.1775  0.1590
12796TIP3    H159803   1.274   6.588   4.728  0.8128 -1.0275  1.3825
12796TIP3    H259804   1.334   6.685   4.827  3.3436 -2.1839  1.0665
12797TIP3   OH259805   2.323   0.967   3.090 -0.2746  0.3226 -0.0981
12797TIP3    H159806   2.372   0.948   3.171 -0.3449 -0.4340 -0.2226
12797TIP3    H259807   2.240   1.004   3.121  0.3692  1.6380  0.1149
12798TIP3   OH259808   5.237   3.278   1.894  0.0579 -0.0128 -0.1984
12798TIP3    H159809   5.167   3.278   1.829 -0.6301  2.3033  0.4610
12798TIP3    H259810   5.318   3.279   1.843 -0.4054 -1.0294 -0.9761
12799TIP3   OH259811   2.617   3.116  16.939  0.1970 -0.7046  0.1057
12799TIP3    H159812   2.561   3.040  16.953  2.8474 -2.8960 -0.3501
12799TIP3    H259813   2.651   3.137  17.026  1.1588 -1.5002 -0.0603
12800TIP3   OH259814   2.680   1.571   1.860 -0.3784 -0.0658  0.2242
12800TIP3    H159815   2.624   1.624   1.803 -0.4776 -0.8745 -0.4590
12800TIP3    H259816   2.684   1.486   1.817 -0.2229 -0.6213  1.2981
12801TIP3   OH259817   6.153   0.094  16.887  0.2470 -0.1239  0.5092
12801TIP3    H159818   6.131   0.002  16.903  0.6886 -0.3007  0.1118
12801TIP3    H259819   6.241   0.104  16.922  0.4567 -0.0240 -0.0395
12802TIP3   OH259820   0.042   1.380  11.100 -0.1104  0.8284  0.0945
12802TIP3    H159821   0.124   1.416  11.134  0.4314  0.8858 -1.2247
12802TIP3    H259822  -0.020   1.389  11.172  0.9934  0.9548  1.0511
12803TIP3   OH259823   2.657   1.848  15.053  0.3999  0.4048  0.3327
12803TIP3    H159824   2.737   1.899  15.059  1.1510 -0.4826 -1.4527
12803TIP3    H259825   2.611   1.884  14.976  0.1326 -0.4880  0.0611
12804TIP3   OH259826   0.119   1.345   5.199  0.0797  0.0416 -0.6469
12804TIP3    H159827   0.183   1.367   5.131  1.1838 -1.1561 -0.0244
12804TIP3    H259828   0.078   1.265   5.167 -0.9009  0.6223 -0.8795
12805TIP3   OH259829   4.112   1.312  11.316  0.0057  0.0176 -0.3954
12805TIP3    H159830   4.184   1.339  11.373  0.0657  0.5868 -0.7331
12805TIP3    H259831   4.038   1.366  11.345 -0.7052 -1.5695  0.9158
12806TIP3   OH259832   6.403   2.679   3.335 -0.7774  0.0116 -0.2975
12806TIP3    H159833   6.383   2.614   3.268 -3.0769  1.0319 -0.7182
12806TIP3    H259834   6.320   2.724   3.350  0.8481  3.5252 -0.7752
12807TIP3   OH259835   4.876   2.573   0.459  0.0327  0.3721  0.6082
12807TIP3    H159836   4.856   2.664   0.483  0.2562  0.4250  0.5971
12807TIP3    H259837   4.879   2.526   0.543  2.2072  0.8278  0.8613
12808TIP3   OH259838   3.179   6.714  12.988  0.3602 -1.0240 -0.1288
12808TIP3    H159839   3.143   6.693  12.902  1.7522 -3.1793 -0.2506
12808TIP3    H259840   3.169   6.809  12.996 -0.1975 -0.8394 -2.4703
12809TIP3   OH259841   4.051   4.154   2.496 -0.1024  0.2455  0.2282
12809TIP3    H159842   4.129   4.175   2.445  0.1496 -0.7508  0.1810
12809TIP3    H259843   3.998   4.100   2.437 -1.3393  1.7668 -0.1174
12810TIP3   OH259844   0.704   6.430  16.617  0.5673 -0.0076 -0.8406
12810TIP3    H159845   0.654   6.402  16.694  3.0559  1.6484  1.5725
12810TIP3    H259846   0.648   6.495  16.575 -0.0796  0.5054  0.7345
12811TIP3   OH259847   5.229   3.434  15.577  0.0128  1.0024 -0.1424
12811TIP3    H159848   5.299   3.485  15.537  0.6184  0.2836 -0.0259
12811TIP3    H259849   5.272   3.384  15.646 -0.6319  0.5964 -0.0229
12812TIP3   OH259850   3.774   1.894   1.078 -0.1005 -0.6705  0.3002
12812TIP3    H159851   3.825   1.974   1.066  0.1079 -0.9373 -0.6627
12812TIP3    H259852   3.757   1.862   0.989 -2.7773 -0.0949  0.5369
12813TIP3   OH259853   4.778   4.919  17.181  0.1523 -0.4736  0.1051
12813TIP3    H159854   4.733   4.893  17.261 -0.8279  0.2990 -0.1796
12813TIP3    H259855   4.712   4.964  17.129  1.8089  3.3739  0.9400
12814TIP3   OH259856   6.309   5.838   4.396 -0.7690  0.0148 -0.1637
12814TIP3    H159857   6.367   5.899   4.441 -1.0016  0.5268 -0.5572
12814TIP3    H259858   6.330   5.848   4.303 -2.4788  1.2748 -0.4625
12815TIP3   OH259859   2.271   6.504  12.221 -0.9264  0.3300  0.6064
12815TIP3    H159860   2.180   6.499  12.192 -1.3189 -1.0962  1.9616
12815TIP3    H259861   2.321   6.458  12.154 -1.5534 -1.0905  1.0774
12816TIP3   OH259862   0.859   1.635   1.099  0.6452  0.1420  0.3616
12816TIP3    H159863   0.838   1.542   1.090  0.1621  0.2263  0.6346
12816TIP3    H259864   0.895   1.644   1.187 -0.9268  0.5137  0.9878
12817TIP3   OH259865   4.385   6.025  13.604  0.4230  0.3805 -0.4289
12817TIP3    H159866   4.404   6.118  13.589 -0.1833  0.4306 -0.9553
12817TIP3    H259867   4.389   6.014  13.699 -1.2555  1.3532 -0.2122
12818TIP3   OH259868   2.727   4.640   5.834 -0.3092 -0.6267  0.2641
12818TIP3    H159869   2.647   4.690   5.852 -0.3328 -0.5877  0.0457
12818TIP3    H259870   2.757   4.614   5.921  0.5203  1.0332  0.5229
12819TIP3   OH259871   1.081   6.645   2.079 -0.3473  0.2634 -0.5400
12819TIP3    H159872   0.999   6.685   2.051 -1.1112  0.1004  1.3462
12819TIP3    H259873   1.078   6.557   2.041 -0.5873  0.5700 -1.2557
12820TIP3   OH259874   5.794   3.517  14.526  0.0762  0.0924  0.2173
12820TIP3    H159875   5.785   3.426  14.499  0.9970 -0.0579  0.3740
12820TIP3    H259876   5.704   3.547  14.540 -0.2453 -0.7418  0.0141
12821TIP3   OH259877   2.471   3.919  13.844  0.5254 -0.1212  0.0897
12821TIP3    H159878   2.535   3.950  13.780 -0.0367 -0.0003 -0.4234
12821TIP3    H259879   2.387   3.926  13.799  0.0029  0.8973  1.1545
12822TIP3   OH259880   6.703   4.366  11.876 -0.6285  0.7510 -0.0516
12822TIP3    H159881   6.623   4.366  11.928 -1.3502 -1.7188 -0.9906
12822TIP3    H259882   6.682   4.312  11.800  2.1184 -0.6445  0.0398
12823TIP3   OH259883   2.064   4.205   5.827 -0.4434  0.6339 -0.0266
12823TIP3    H159884   2.117   4.136   5.865 -1.2196  0.7807  1.3954
12823TIP3    H259885   2.125   4.254   5.770  0.1134 -1.1542 -1.0444
12824TIP3   OH259886   1.849   2.499   4.878 -0.1363  0.4585  0.1625
12824TIP3    H159887   1.849   2.522   4.971  0.4305 -0.3389  0.3649
12824TIP3    H259888   1.918   2.433   4.869  0.6921  1.4469 -1.0564
12825TIP3   OH259889   5.927   3.354  13.431  0.2918  0.2568 -0.2441
12825TIP3    H159890   5.864   3.362  13.359 -0.7441  1.9249  0.7631
12825TIP3    H259891   6.013   3.367  13.390 -0.1242 -0.5808 -1.4188
12826TIP3   OH259892   4.959   1.534  17.208 -0.1094 -0.0732 -0.3385
12826TIP3    H159893   4.953   1.484  17.127  0.5644  1.7037 -1.5357
12826TIP3    H259894   4.903   1.486  17.270  0.4398 -2.2179 -1.4153
12827TIP3   OH259895   0.356   2.059  13.334  0.1171  0.2792  0.9155
12827TIP3    H159896   0.314   2.134  13.374 -2.6387 -0.4161 -0.4463
12827TIP3    H259897   0.324   1.984  13.384  0.9929 -0.1808  0.8059
12828TIP3   OH259898   6.147   5.279  15.774  0.2979 -0.1523 -0.2776
12828TIP3    H159899   6.185   5.356  15.732  0.9289 -0.9112 -1.1292
12828TIP3    H259900   6.159   5.295  15.867  0.8672  0.5492 -0.4575
12829TIP3   OH259901   2.513   2.389   4.013 -0.1478  0.0251  0.4965
12829TIP3    H159902   2.457   2.429   3.946 -1.2092  0.0307  1.3511
12829TIP3    H259903   2.519   2.297   3.988  2.8396  0.6881 -1.8490
12830TIP3   OH259904   4.010   3.461   1.226  0.2229 -0.2134 -0.4239
12830TIP3    H159905   3.925   3.500   1.247  0.9183  1.2956 -0.3345
12830TIP3    H259906   3.988   3.376   1.188 -1.2406 -0.9667  1.9086
12831TIP3   OH259907   5.759   4.804   0.185 -0.0600 -0.3929  0.3334
12831TIP3    H159908   5.786   4.872   0.123 -1.0398  0.3653  0.7179
12831TIP3    H259909   5.824   4.735   0.173  1.8338  1.1734  0.9292
12832TIP3   OH259910   4.607   0.497  15.509  0.0903  0.1242 -0.5952
12832TIP3    H159911   4.661   0.482  15.587  1.3720  0.1497 -1.4508
12832TIP3    H259912   4.659   0.461  15.437 -0.7216  0.8001 -1.5415
12833TIP3   OH259913   3.958   0.923  14.506 -0.0185  0.6962  0.3033
12833TIP3    H159914   4.005   1.003  14.482 -0.2325  0.6037 -0.4587
12833TIP3    H259915   3.969   0.865  14.430 -0.5030  0.2872  0.5356
12834TIP3   OH259916   1.611   1.639   3.258 -0.0254  0.1239 -0.0507
12834TIP3    H159917   1.603   1.598   3.345  1.8243  1.3604  0.7474
12834TIP3    H259918   1.571   1.576   3.199  0.3518 -1.6268  1.4635
12835TIP3   OH259919   1.770   5.274  15.561  0.7005 -0.2470  0.1862
12835TIP3    H159920   1.772   5.258  15.655 -4.0016 -2.3457  0.1838
12835TIP3    H259921   1.775   5.187  15.521  1.3852  0.5140 -1.5113
12836TIP3   OH259922   0.150   6.422  15.011 -0.4809 -0.3209  0.5046
12836TIP3    H159923   0.207   6.498  15.019 -0.3225 -0.5603  1.8869
12836TIP3    H259924   0.210   6.347  15.015 -0.4182 -0.5730 -2.6472
12837TIP3   OH259925   2.489   4.478  17.320  0.1740  0.0847  0.4982
12837TIP3    H159926   2.515   4.543  17.386 -0.7466  2.1877 -1.0941
12837TIP3    H259927   2.541   4.501  17.242  0.3032 -1.5322  0.0764
12838TIP3   OH259928   5.411   5.756   4.765 -0.5843 -0.0027  0.4972
12838TIP3    H159929   5.395   5.841   4.807 -1.5225 -1.4803  3.4523
12838TIP3    H259930   5.478   5.715   4.821 -0.1060 -1.1992 -0.8972
12839TIP3   OH259931   6.244   0.992  15.449  0.1853 -0.0682 -0.2638
12839TIP3    H159932   6.229   0.953  15.363  0.5368 -2.2258  0.6024
12839TIP3    H259933   6.338   1.011  15.451  0.4147 -1.1659  0.0650
12840TIP3   OH259934   1.040   3.591   3.989  0.4404 -0.0002  0.0536
12840TIP3    H159935   1.132   3.617   3.991  0.1883  0.9487  0.0161
12840TIP3    H259936   1.041   3.496   3.999  1.4308 -0.0202 -0.1513
12841TIP3   OH259937   5.196   0.271   5.570 -0.4694  0.3743 -0.1996
12841TIP3    H159938   5.193   0.303   5.479 -0.4279 -1.6865 -0.9820
12841TIP3    H259939   5.181   0.349   5.623 -1.8348  1.4306 -2.0150
12842TIP3   OH259940   5.615   2.327  14.868 -0.3870  0.0266 -0.3627
12842TIP3    H159941   5.689   2.280  14.829 -0.8651  0.0363 -1.3227
12842TIP3    H259942   5.621   2.309  14.962  0.9427  0.1948 -0.4030
12843TIP3   OH259943   0.834   3.150  15.456  0.9463  0.3114  0.0810
12843TIP3    H159944   0.865   3.060  15.470 -1.2142 -0.5209 -0.0507
12843TIP3    H259945   0.768   3.142  15.388 -1.3536  1.4813  2.0192
12844TIP3   OH259946   3.339   1.302   0.536  0.0448 -0.0676  0.3744
12844TIP3    H159947   3.306   1.312   0.625 -0.6608  1.7670 -0.0380
12844TIP3    H259948   3.279   1.240   0.495  0.7429 -1.4196  1.3109
12845TIP3   OH259949   2.218   0.651  16.565  0.1651 -0.0585  0.1332
12845TIP3    H159950   2.203   0.745  16.562  0.7717  0.0155 -0.8405
12845TIP3    H259951   2.259   0.630  16.482  0.8838 -1.0409  0.7154
12846TIP3   OH259952   4.270   5.980   5.116  0.3359 -0.9188 -0.0347
12846TIP3    H159953   4.231   6.023   5.192 -0.6875  0.8241 -1.4559
12846TIP3    H259954   4.312   5.901   5.151 -2.7170 -1.8540  1.9214
12847TIP3   OH259955   3.912   3.180   0.042 -0.2847  0.4367  0.1850
12847TIP3    H159956   3.996   3.139   0.060 -0.9461 -0.9946  0.0904
12847TIP3    H259957   3.896   3.235   0.119 -0.7707 -1.8394  1.8174
12848TIP3   OH259958   1.510   4.394  13.416  0.0759  0.0471  0.0661
12848TIP3    H159959   1.454   4.323  13.384 -0.9878  1.5701 -1.6806
12848TIP3    H259960   1.525   4.373  13.508 -2.0591 -1.2758  0.1977
12849TIP3   OH259961   2.817   2.137  15.047 -0.1569 -0.3034  0.0954
12849TIP3    H159962   2.848   2.162  14.960  1.1408 -2.4354 -0.1279
12849TIP3    H259963   2.824   2.217  15.099 -1.1952  1.0846 -1.7635
12850TIP3   OH259964   4.230   4.238  13.290 -0.3182  0.0745  0.1833
12850TIP3    H159965   4.224   4.224  13.384  0.4860  1.4950  0.4791
12850TIP3    H259966   4.318   4.271  13.276 -0.1661 -0.8457 -1.1940
12851TIP3   OH259967   1.229   3.341   2.123 -0.6268  0.1352 -0.4334
12851TIP3    H159968   1.179   3.269   2.163 -0.6993  0.8527  0.8278
12851TIP3    H259969   1.198   3.420   2.168  1.4026  0.6443  0.1878
12852TIP3   OH259970   5.426   5.199  14.545 -0.0890 -1.0262  0.4826
12852TIP3    H159971   5.431   5.106  14.567  0.6915 -1.1984 -0.3661
12852TIP3    H259972   5.514   5.222  14.515 -0.4661 -0.1980 -0.0304
12853TIP3   OH259973   2.816   5.208  15.493 -0.0242 -0.2424  0.1136
12853TIP3    H159974   2.739   5.198  15.437 -1.3462  1.1531  1.5564
12853TIP3    H259975   2.829   5.303  15.499  0.3246 -0.3518  1.7667
12854TIP3   OH259976   1.579   2.498  11.237 -0.3598 -0.3851  0.0115
12854TIP3    H159977   1.494   2.513  11.194 -0.3075 -0.9807 -0.3055
12854TIP3    H259978   1.585   2.403  11.247 -1.4136 -0.2023  3.4958
12855TIP3   OH259979   1.065   2.074  16.674  0.1311 -0.3430  0.5215
12855TIP3    H159980   0.979   2.078  16.631  0.6191  0.4877 -0.3878
12855TIP3    H259981   1.063   1.991  16.722 -1.2914 -0.2069  0.7507
12856TIP3   OH259982   1.829   3.549   1.784  0.0670 -0.3337  0.3473
12856TIP3    H159983   1.778   3.489   1.838  1.5684 -1.7316  0.2701
12856TIP3    H259984   1.919   3.522   1.796  0.4735 -1.1758 -3.3917
12857TIP3   OH259985   1.720   6.716  12.161 -0.0559 -0.4590 -0.2532
12857TIP3    H159986   1.647   6.729  12.101  0.2738  1.3717 -0.3228
12857TIP3    H259987   1.798   6.715  12.104  0.1295 -0.3462 -0.0033
12858TIP3   OH259988   6.618   2.654   2.109  0.1857 -0.3267  0.0076
12858TIP3    H159989   6.559   2.590   2.150 -0.1190 -0.6052 -0.8422
12858TIP3    H259990   6.687   2.601   2.069 -0.1610 -0.1373 -0.8479
12859TIP3   OH259991   6.643   4.358  16.973  0.3664 -0.0566 -0.0615
12859TIP3    H159992   6.566   4.301  16.965  0.5459 -0.2356 -0.5578
12859TIP3    H259993   6.615   4.441  16.934  0.2166  0.0907  0.3513
12860TIP3   OH259994   1.829   2.017  16.915 -0.2188  0.1630  0.0858
12860TIP3    H159995   1.905   2.032  16.972 -1.2450  2.9813  0.8669
12860TIP3    H259996   1.864   2.023  16.826  0.5042  1.3590  0.4268
12861TIP3   OH259997   2.041   0.651  15.926  0.4670  0.1095  0.0835
12861TIP3    H159998   1.959   0.607  15.900 -0.7611  0.9214  2.3726
12861TIP3    H259999   2.013   0.729  15.972  2.5176 -0.0875  1.8198
12862TIP3   OH260000   4.617   4.279   2.421 -0.1285  0.1711 -0.8715
12862TIP3    H160001   4.565   4.259   2.499 -0.5569 -0.2104 -1.2443
12862TIP3    H260002   4.708   4.268   2.448 -0.1916  1.5502 -0.0026
12863TIP3   OH260003   3.969   1.123  12.763  0.3610  0.3121 -0.6006
12863TIP3    H160004   4.016   1.166  12.691 -0.8119 -0.2396 -1.7285
12863TIP3    H260005   3.999   1.032  12.760 -0.9824 -0.1272 -1.5505
12864TIP3   OH260006   6.093   3.431   2.511  0.6400  0.4244  0.0084
12864TIP3    H160007   6.088   3.490   2.437  0.6837  1.1345  0.5640
12864TIP3    H260008   6.007   3.387   2.512 -0.2439  2.0873  0.8956
12865TIP3   OH260009   4.050   5.922  11.303  0.3107  0.2886  0.4467
12865TIP3    H160010   4.007   5.916  11.389  0.1458  0.2851  0.3656
12865TIP3    H260011   4.027   5.840  11.260  1.5349 -0.3209  0.9148
12866TIP3   OH260012   1.276   5.243  17.385  0.5233  0.1373  0.1382
12866TIP3    H160013   1.335   5.173  17.413  2.4123  1.5875  0.0246
12866TIP3    H260014   1.301   5.260  17.294 -0.7912  0.1306 -0.2434
12867TIP3   OH260015   2.004   2.860   0.563 -0.1202  0.5339 -0.1174
12867TIP3    H160016   2.078   2.809   0.597 -0.1828  0.5956  0.1138
12867TIP3    H260017   2.043   2.943   0.534 -0.0344  0.3964 -0.3943
12868TIP3   OH260018   2.727   1.456  15.734  0.0437  0.4520  0.2908
12868TIP3    H160019   2.657   1.460  15.799  1.5665  2.7067  1.9260
12868TIP3    H260020   2.724   1.541  15.690 -0.7128 -0.8876 -2.4593
12869TIP3   OH260021   6.067   4.509  14.905 -0.0508  0.2948  0.0324
12869TIP3    H160022   6.156   4.513  14.941 -0.3031  0.1707  0.6837
12869TIP3    H260023   6.079   4.518  14.811  0.6412  0.4551  0.1302
12870TIP3   OH260024   1.624   2.428   5.685 -0.1557  0.2763  0.2063
12870TIP3    H160025   1.672   2.382   5.754 -2.9370  0.4413  2.4099
12870TIP3    H260026   1.584   2.359   5.633  1.0487  0.1711 -0.6153
12871TIP3   OH260027   6.622   5.192  16.109 -0.4820 -0.2709  0.4834
12871TIP3    H160028   6.627   5.203  16.014  0.8830  2.8825  0.8061
12871TIP3    H260029   6.534   5.159  16.124 -0.0307 -3.0805 -1.9527
12872TIP3   OH260030   4.386   3.166  16.638 -0.0979  0.5705 -0.1397
12872TIP3    H160031   4.462   3.176  16.580 -0.5028 -0.9365 -0.9935
12872TIP3    H260032   4.414   3.204  16.721  2.5632 -2.0943  0.3565
12873TIP3   OH260033   2.466   5.779  12.312  0.1159 -0.4937  0.0184
12873TIP3    H160034   2.482   5.827  12.231  1.0768  0.1789  0.5881
12873TIP3    H260035   2.415   5.703  12.285  1.4340 -0.9325 -1.4128
12874TIP3   OH260036   0.184   3.191  11.872  0.2075  0.1292  0.5632
12874TIP3    H160037   0.259   3.232  11.828 -1.5927  2.1664 -0.8007
12874TIP3    H260038   0.191   3.220  11.963  0.9154  0.5360  0.3913
12875TIP3   OH260039   6.012   5.379  12.998 -0.2122 -0.1335  0.7035
12875TIP3    H160040   6.035   5.459  12.950 -1.3505  1.2834  2.3715
12875TIP3    H260041   5.971   5.323  12.933  0.4619  0.7131 -0.4838
12876TIP3   OH260042   3.472   0.982  10.761 -0.0543 -0.0341 -0.3831
12876TIP3    H160043   3.490   0.961  10.669  2.1819  0.5438 -0.1398
12876TIP3    H260044   3.479   0.898  10.806  0.6578 -0.0534 -0.5173
12877TIP3   OH260045   3.393   2.906   3.516  0.2485 -0.5398 -0.1573
12877TIP3    H160046   3.465   2.962   3.489  1.5648 -1.2821  1.6769
12877TIP3    H260047   3.414   2.879   3.605 -2.0299 -1.2379  0.2440
12878TIP3   OH260048   6.549   1.002   5.344 -0.3211  0.4365  0.0189
12878TIP3    H160049   6.618   0.956   5.393 -1.5840 -0.3995  1.0702
12878TIP3    H260050   6.514   1.066   5.407 -0.3889  0.9936 -0.5732
12879TIP3   OH260051   6.628   3.186   0.003 -0.0944 -0.2712 -0.0390
12879TIP3    H160052   6.571   3.182  -0.073 -1.8283 -0.2319  1.1926
12879TIP3    H260053   6.649   3.095   0.023  0.5997 -0.2673 -0.7030
12880TIP3   OH260054   4.611   5.854  12.397 -0.4273 -0.1446  0.3375
12880TIP3    H160055   4.563   5.852  12.480 -0.3205  0.7133  0.4320
12880TIP3    H260056   4.685   5.795  12.411  0.1688  0.7812  1.2280
12881TIP3   OH260057   5.897   3.784  12.539 -0.2426  0.6179  0.2630
12881TIP3    H160058   5.864   3.707  12.586  0.6736 -0.2913 -0.5508
12881TIP3    H260059   5.819   3.832  12.514 -0.8521 -0.3265  0.3147
12882TIP3   OH260060   3.578   5.914   2.425 -0.2039  0.4764 -0.0691
12882TIP3    H160061   3.570   5.967   2.504 -0.3695 -0.2114  0.3850
12882TIP3    H260062   3.667   5.932   2.393 -0.2058  0.9108  0.1587
12883TIP3   OH260063   5.627   4.547  13.479 -0.0016  0.0569 -0.2790
12883TIP3    H160064   5.676   4.475  13.439 -2.1824 -1.7358  0.0374
12883TIP3    H260065   5.654   4.548  13.570  2.1820  1.6442 -0.8729
12884TIP3   OH260066   2.550   3.892  11.966  0.5802 -0.1572 -0.3190
12884TIP3    H160067   2.585   3.980  11.957 -0.8009  0.6516  1.6099
12884TIP3    H260068   2.582   3.861  12.051  0.6230 -1.3136 -0.7368
12885TIP3   OH260069   6.479   1.885  16.432 -0.5666  0.2737  0.1597
12885TIP3    H160070   6.494   1.798  16.468 -0.2558 -0.2791 -1.2740
12885TIP3    H260071   6.396   1.877  16.385 -0.1369  0.5422 -0.6453
12886TIP3   OH260072   6.183   3.070  12.597  0.3281  1.3482 -0.2259
12886TIP3    H160073   6.101   3.030  12.625  0.6070  0.1026 -1.1266
12886TIP3    H260074   6.251   3.011  12.629  0.8612  2.0503 -0.0164
12887TIP3   OH260075   6.688   6.304   2.681 -0.1134  0.6797  0.1924
12887TIP3    H160076   6.737   6.310   2.763  0.2692  0.5340 -0.0218
12887TIP3    H260077   6.751   6.329   2.613 -1.0422  3.0664  0.1204
12888TIP3   OH260078   4.575   4.336   3.103 -0.4551 -0.4123  0.5887
12888TIP3    H160079   4.652   4.298   3.062 -2.3422 -0.6874 -3.1026
12888TIP3    H260080   4.535   4.263   3.151  0.2963 -0.8967  0.4862
12889TIP3   OH260081   0.868   5.574   4.797 -0.2331  0.1292  0.0787
12889TIP3    H160082   0.834   5.514   4.864 -0.4975  0.4404  0.2236
12889TIP3    H260083   0.950   5.533   4.768 -0.8907 -0.7970 -0.5172
12890TIP3   OH260084   3.318   3.499   4.222  0.1951 -0.2588  0.0714
12890TIP3    H160085   3.282   3.540   4.301 -0.9405 -0.0395 -0.5340
12890TIP3    H260086   3.411   3.490   4.240 -0.2712 -1.6610  2.0646
12891TIP3   OH260087   3.150   5.135   4.618  0.6770 -0.1225  0.5304
12891TIP3    H160088   3.227   5.078   4.617  0.5903 -0.2359  0.2645
12891TIP3    H260089   3.164   5.196   4.546  0.6780  0.0714  0.6937
12892TIP3   OH260090   6.648   4.889  16.529  0.2089  0.1429  0.0966
12892TIP3    H160091   6.626   4.899  16.621 -0.2370 -0.6791  0.0897
12892TIP3    H260092   6.683   4.974  16.503 -4.1138  2.0936 -0.1864
12893TIP3   OH260093   6.632   3.152   6.863  0.3405  0.5183  0.0244
12893TIP3    H160094   6.573   3.103   6.807  1.3881 -0.3021 -0.3794
12893TIP3    H260095   6.576   3.184   6.935 -1.0188  1.5854 -1.4413
12894TIP3   OH260096   0.921   5.838   5.002 -0.2063 -0.2754  0.0269
12894TIP3    H160097   0.868   5.806   5.075 -1.2864  0.3569 -0.4466
12894TIP3    H260098   0.937   5.930   5.022  0.6485 -0.4320  0.1117
12895TIP3   OH260099   5.639   6.594   1.205  0.4430  0.8224 -0.4076
12895TIP3    H160100   5.697   6.534   1.253 -0.1444  1.1804  0.7910
12895TIP3    H260101   5.699   6.655   1.160  1.0757 -1.0186 -2.2172
12896TIP3   OH260102   2.428   1.992   5.101 -0.3387  0.2145 -0.2527
12896TIP3    H160103   2.429   1.898   5.083  0.7622  0.1781 -0.0769
12896TIP3    H260104   2.409   1.998   5.194 -1.0875  0.2074 -0.3945
12897TIP3   OH260105   2.385   0.680   2.079  0.2581  0.2316 -0.0413
12897TIP3    H160106   2.407   0.589   2.100  1.9870  0.8241  0.8720
12897TIP3    H260107   2.314   0.673   2.015  1.0151 -1.7810 -0.7438
12898TIP3   OH260108   3.587   5.204   5.206 -0.3227  1.0278 -0.2358
12898TIP3    H160109   3.667   5.161   5.235 -0.8107  0.3175  0.0770
12898TIP3    H260110   3.575   5.176   5.115 -1.8791 -1.4405  0.6388
12899TIP3   OH260111   6.570   2.204   5.406  0.6053  0.2433  0.1935
12899TIP3    H160112   6.526   2.267   5.349  0.5644 -0.3382 -0.4339
12899TIP3    H260113   6.647   2.177   5.356  1.6232  1.1490  1.2222
12900TIP3   OH260114   5.298   1.475   1.962 -0.1572  0.4665 -0.0541
12900TIP3    H160115   5.204   1.488   1.963 -0.0684  1.1235  0.2213
12900TIP3    H260116   5.332   1.550   1.912  0.1486 -0.2867 -1.0167
12901TIP3   OH260117   4.015   5.740   3.962 -0.2888 -0.2886 -0.2257
12901TIP3    H160118   4.055   5.807   4.018  1.0835 -1.5066  0.3227
12901TIP3    H260119   3.957   5.691   4.019 -1.6638  0.6894 -0.7372
12902TIP3   OH260120   4.218   4.245  11.676 -0.3833  0.3665  0.2070
12902TIP3    H160121   4.153   4.232  11.607  0.2672 -0.4016 -0.2813
12902TIP3    H260122   4.293   4.192  11.648  2.1021  4.2271 -1.3506
12903TIP3   OH260123   5.835   4.095  10.899 -0.0832 -0.4276 -0.3631
12903TIP3    H160124   5.920   4.089  10.855 -1.0221 -1.4698 -2.1978
12903TIP3    H260125   5.813   4.004  10.919 -1.1911 -0.2748 -0.8229
12904TIP3   OH260126   5.990   0.573   5.890 -0.6682  0.1118 -0.6490
12904TIP3    H160127   5.961   0.534   5.808  0.2604 -0.4686 -0.7108
12904TIP3    H260128   6.078   0.606   5.871  1.7440 -4.3619  1.3118
12905TIP3   OH260129   1.046   5.074   5.063  0.0400  0.4505  0.5962
12905TIP3    H160130   0.954   5.072   5.090  0.5783 -0.0117  2.5698
12905TIP3    H260131   1.083   4.994   5.101  1.3599  0.8819  0.2500
12906TIP3   OH260132   6.548   4.869  11.671 -0.4206  0.0268 -0.5443
12906TIP3    H160133   6.620   4.928  11.649  0.3598 -1.1538 -1.2105
12906TIP3    H260134   6.531   4.820  11.591 -0.9406 -0.7907  0.0499
12907TIP3   OH260135   4.801   0.094  12.647  0.4508 -0.7931  0.0381
12907TIP3    H160136   4.880   0.086  12.700  1.6469  1.6576 -1.1779
12907TIP3    H260137   4.773   0.004  12.631  1.3506 -1.6555  2.7952
12908TIP3   OH260138   6.735   2.604  11.297  0.4207 -0.2883  0.5799
12908TIP3    H160139   6.685   2.616  11.216 -0.7931  1.1836  1.5018
12908TIP3    H260140   6.695   2.527  11.338  0.4238 -0.4787  0.2332
12909TIP3   OH260141   6.225   0.779   3.908  0.2047  0.0963 -0.4146
12909TIP3    H160142   6.144   0.727   3.909  0.8362 -0.9130  0.4981
12909TIP3    H260143   6.202   0.860   3.953 -0.3732 -0.0668 -0.4077
12910TIP3   OH260144   4.623   5.222   4.914  0.1450 -0.5320 -0.3956
12910TIP3    H160145   4.587   5.199   5.000  1.5887 -0.9992  0.1244
12910TIP3    H260146   4.714   5.192   4.918  0.5995  0.5973 -1.6346
12911TIP3   OH260147   4.090   0.099   1.674  0.3088  0.0344 -0.1924
12911TIP3    H160148   4.114   0.186   1.642  0.4191  0.2518  0.4590
12911TIP3    H260149   4.133   0.038   1.613 -0.5478  0.4226 -1.2152
12912TIP3   OH260150   0.030   4.672  15.487  0.2528  0.0633 -0.2483
12912TIP3    H160151   0.023   4.768  15.486  2.0326  0.3826  3.0259
12912TIP3    H260152   0.116   4.654  15.447 -0.5816 -0.3267 -1.9444
12913TIP3   OH260153   0.226   6.035  12.939 -0.2627 -0.1807 -1.0698
12913TIP3    H160154   0.178   5.953  12.945 -0.2862 -0.0348  1.7476
12913TIP3    H260155   0.207   6.081  13.021  2.5712  1.0532 -0.9731
12914TIP3   OH260156   0.743   4.490  11.119 -0.0259 -0.2393  0.0147
12914TIP3    H160157   0.711   4.580  11.123  0.0362 -0.2512  1.0089
12914TIP3    H260158   0.838   4.498  11.113 -0.0542 -0.2299 -0.3984
12915TIP3   OH260159   5.987   3.849  16.458  0.2786  0.5213  0.6926
12915TIP3    H160160   5.986   3.777  16.395 -1.6580  1.1068 -0.0580
12915TIP3    H260161   5.990   3.928  16.403 -2.3934  1.0775  1.1695
12916TIP3   OH260162   5.137   5.611   2.292  0.6512  0.1196 -0.1103
12916TIP3    H160163   5.162   5.604   2.199  0.6998  0.1853 -0.1024
12916TIP3    H260164   5.221   5.621   2.338  0.6225  0.1464 -0.0646
12917TIP3   OH260165   3.943   6.097  12.527  0.8060  0.0189 -0.2393
12917TIP3    H160166   3.950   6.187  12.495  3.7117  0.8588  2.3387
12917TIP3    H260167   3.980   6.043  12.456  0.8451  1.0328 -1.0115
12918TIP3   OH260168   6.349   5.391   5.359  0.0964 -0.4058 -0.0497
12918TIP3    H160169   6.376   5.348   5.440 -0.6748 -2.0691 -0.6519
12918TIP3    H260170   6.390   5.340   5.289 -2.0813 -1.1486 -0.8481
12919TIP3   OH260171   0.355   3.737  16.722 -0.5466 -0.6063 -0.1059
12919TIP3    H160172   0.294   3.791  16.672  1.4498  3.2368  1.1804
12919TIP3    H260173   0.329   3.751  16.814 -0.0919 -2.0943  0.2818
12920TIP3   OH260174   5.331   6.667   0.116  0.3620  0.2935  0.2469
12920TIP3    H160175   5.378   6.589   0.086  0.4740  0.4016  0.1400
12920TIP3    H260176   5.366   6.684   0.203 -1.2435 -1.0877  1.2359
12921TIP3   OH260177   2.245   0.456  17.332 -0.4581  0.0012  0.1396
12921TIP3    H160178   2.259   0.453  17.427  1.5925  0.2622 -0.0979
12921TIP3    H260179   2.333   0.443  17.295 -1.4807 -2.2439 -1.7823
12922TIP3   OH260180   5.994   0.574   4.914  0.2534  0.4010  0.5424
12922TIP3    H160181   5.977   0.533   4.999 -0.7473  1.6309  0.9575
12922TIP3    H260182   5.951   0.517   4.850 -0.7182  0.5199  1.0686
12923TIP3   OH260183   2.146   2.355   3.957  0.4387 -0.2331  0.1660
12923TIP3    H160184   2.119   2.447   3.954 -0.5254 -0.5230 -0.6025
12923TIP3    H260185   2.241   2.357   3.943  0.7510  0.7575  2.1014
12924TIP3   OH260186   0.234   0.009   3.695 -0.2766 -0.3278 -0.9454
12924TIP3    H160187   0.256  -0.058   3.759  0.7022  0.4957 -0.3922
12924TIP3    H260188   0.318   0.046   3.668 -0.8291  1.9325  0.1599
12925TIP3   OH260189   4.142   4.455   2.832  0.3078 -0.2792  0.2531
12925TIP3    H160190   4.156   4.523   2.897  1.1776 -0.1198 -0.0963
12925TIP3    H260191   4.047   4.455   2.818  0.1406 -0.1353  1.3092
12926TIP3   OH260192   6.587   5.775  15.640  0.5038 -0.1049  0.9313
12926TIP3    H160193   6.578   5.679  15.638  0.6104 -0.1192  1.1695
12926TIP3    H260194   6.497   5.807  15.648  0.3319 -0.1397 -0.5810
12927TIP3   OH260195   2.727   1.120   2.062 -0.2600  0.3273  0.1475
12927TIP3    H160196   2.686   1.083   1.984  0.6323  1.6402 -0.9875
12927TIP3    H260197   2.679   1.082   2.135  0.5152 -2.9507 -0.9021
12928TIP3   OH260198   2.124   4.189  12.922 -0.0461  0.3741 -0.0375
12928TIP3    H160199   2.110   4.246  12.998 -0.4690  0.1022  0.0909
12928TIP3    H260200   2.167   4.112  12.958  0.7423  0.7125 -0.2497
12929TIP3   OH260201   2.275   5.525  13.842  0.5663 -0.1759  0.5930
12929TIP3    H160202   2.333   5.465  13.794  0.3201  0.6178 -0.7680
12929TIP3    H260203   2.290   5.610  13.800 -1.6150  0.0331  0.1417
12930TIP3   OH260204   6.318   2.672   2.602 -0.7596  0.0064  0.5278
12930TIP3    H160205   6.384   2.619   2.558  0.7767  0.1150  2.5618
12930TIP3    H260206   6.235   2.637   2.571  0.1882  0.3587 -2.7050
12931TIP3   OH260207   2.879   4.788   2.469  0.1076 -0.5221 -0.5880
12931TIP3    H160208   2.961   4.750   2.441  1.4860  1.2720  0.7241
12931TIP3    H260209   2.882   4.879   2.437  0.0429  0.4480  1.9173
12932TIP3   OH260210   0.344   4.948   2.645  0.1537 -0.2308  0.1603
12932TIP3    H160211   0.431   4.979   2.670  0.9355 -0.1343 -2.4041
12932TIP3    H260212   0.319   5.002   2.570 -1.4851 -1.2117 -0.0598
12933TIP3   OH260213   1.959   0.505   3.530  0.0801  0.4333 -0.8955
12933TIP3    H160214   1.955   0.596   3.561  1.3625  0.8703 -1.9678
12933TIP3    H260215   1.979   0.512   3.437  0.2208 -0.9604 -0.9845
12934TIP3   OH260216   1.017   4.327  13.369  0.4533 -0.4106  0.5277
12934TIP3    H160217   1.098   4.372  13.393 -0.6059  2.0008 -0.1417
12934TIP3    H260218   0.955   4.353  13.436 -0.3051 -0.5689 -0.1030
12935TIP3   OH260219   5.822   3.627   1.889 -0.4829 -0.0756  0.6729
12935TIP3    H160220   5.892   3.586   1.940  2.3409  2.6726 -0.6629
12935TIP3    H260221   5.863   3.652   1.806 -3.3339  0.8245 -0.5973
12936TIP3   OH260222   3.015   3.676   5.270  0.3149 -0.1392  0.1071
12936TIP3    H160223   2.921   3.676   5.252  0.6112  1.6145 -1.8839
12936TIP3    H260224   3.022   3.641   5.359 -1.9853 -2.5146 -0.5126
12937TIP3   OH260225   2.939   4.958  13.347  0.8161 -0.0587  0.6221
12937TIP3    H160226   2.949   4.867  13.376  1.7544  0.0461  0.6545
12937TIP3    H260227   2.943   5.010  13.427  0.5692  0.0304  0.5783
12938TIP3   OH260228   5.032   1.214   4.725  0.0742 -0.0941  0.4160
12938TIP3    H160229   5.104   1.275   4.744  0.5384  0.4897 -2.5552
12938TIP3    H260230   5.075   1.138   4.685 -0.8183 -0.6171  0.4259
12939TIP3   OH260231   6.181   4.797  16.508  0.5494  0.4036  0.0784
12939TIP3    H160232   6.119   4.758  16.446  0.7822 -0.2517  0.2478
12939TIP3    H260233   6.200   4.727  16.571  1.5347  0.5510 -0.0271
12940TIP3   OH260234   0.192   2.816  14.947  0.2636  0.3441 -0.3726
12940TIP3    H160235   0.254   2.885  14.925  1.5651 -0.8470 -0.6204
12940TIP3    H260236   0.245   2.748  14.990 -1.0731 -0.2341  0.4638
12941TIP3   OH260237   4.118   5.855   2.838  0.2787 -0.2520 -0.5001
12941TIP3    H160238   4.129   5.760   2.846  1.0732 -0.1024  0.3003
12941TIP3    H260239   4.203   5.887   2.808 -0.1974  0.1465 -1.4844
12942TIP3   OH260240   5.211   5.154   3.883 -0.3835 -0.2792  0.1095
12942TIP3    H160241   5.159   5.116   3.812  0.7743 -1.3567 -0.1850
12942TIP3    H260242   5.216   5.248   3.861 -2.0194 -0.1765  0.0543
12943TIP3   OH260243   3.355   5.420   4.266  0.3272 -0.7590 -0.3105
12943TIP3    H160244   3.446   5.437   4.291  0.4279 -0.1271 -1.0435
12943TIP3    H260245   3.311   5.396   4.347  1.3697 -2.1014 -0.1051
12944TIP3   OH260246   2.719   1.891  16.720 -0.1423 -0.2654  0.0279
12944TIP3    H160247   2.761   1.805  16.732  0.5834  0.0596 -0.1479
12944TIP3    H260248   2.694   1.893  16.628  0.2019 -0.1273 -0.0629
12945TIP3   OH260249   3.880   2.044  14.970 -0.0020 -0.1553  0.1552
12945TIP3    H160250   3.817   2.080  14.907  0.0566 -0.2542  0.0414
12945TIP3    H260251   3.856   2.085  15.054  0.1491  0.2563 -0.0005
12946TIP3   OH260252   0.526   0.851   0.384 -0.6225  0.0698 -0.0519
12946TIP3    H160253   0.548   0.930   0.334 -2.8623  0.4092 -0.5980
12946TIP3    H260254   0.610   0.807   0.397  0.4477  1.6129 -1.3026
12947TIP3   OH260255   3.149   6.188  13.575 -0.0832  0.8231 -0.3728
12947TIP3    H160256   3.143   6.282  13.592  0.1023  0.9031 -0.7363
12947TIP3    H260257   3.147   6.181  13.480 -0.7521  0.4125 -0.3423
12948TIP3   OH260258   2.346   0.123  14.698  0.0505  0.1822 -0.9351
12948TIP3    H160259   2.410   0.192  14.717  0.6342 -0.2925 -1.1202
12948TIP3    H260260   2.357   0.060  14.769  1.2184 -0.8825 -1.9903
12949TIP3   OH260261   0.345   0.358   2.339 -0.1842 -0.3235  0.0584
12949TIP3    H160262   0.281   0.427   2.355 -0.8279 -1.2808  1.9353
12949TIP3    H260263   0.430   0.400   2.351 -0.5125  0.4841 -0.4033
12950TIP3   OH260264   0.063   5.387   5.507  0.2652 -0.3310 -0.0768
12950TIP3    H160265   0.117   5.465   5.515 -1.2365  0.5965  2.1168
12950TIP3    H260266   0.040   5.383   5.414  1.7856  0.8228 -0.5334
12951TIP3   OH260267   1.857   2.821   4.952 -0.0177  1.0284 -0.2223
12951TIP3    H160268   1.858   2.797   4.859  1.1105  2.5195 -0.6299
12951TIP3    H260269   1.771   2.794   4.983 -0.0044 -0.5117 -1.4184
12952TIP3   OH260270   1.566   6.639   4.069  0.1509  0.2128 -1.0549
12952TIP3    H160271   1.657   6.620   4.046 -0.2126 -3.4223 -0.1762
12952TIP3    H260272   1.557   6.606   4.158 -2.3505 -0.9888 -1.6681
12953TIP3   OH260273   4.819   5.004   4.334 -0.6457  0.1916 -0.3481
12953TIP3    H160274   4.739   4.956   4.311 -0.5081  0.1052 -0.6436
12953TIP3    H260275   4.873   4.939   4.380 -1.0149  0.4256  0.4339
12954TIP3   OH260276   1.197   2.481  12.254 -0.1565  0.3977  0.2448
12954TIP3    H160277   1.168   2.483  12.162 -0.3189 -0.8926  0.2497
12954TIP3    H260278   1.253   2.558  12.262  1.1599 -0.2988 -1.4027
12955TIP3   OH260279   2.635   5.065  12.593 -0.1117 -0.3499 -0.6372
12955TIP3    H160280   2.640   5.009  12.516  0.0514  1.1544 -1.7585
12955TIP3    H260281   2.562   5.124  12.576 -1.1939 -1.0745  1.1549
12956TIP3   OH260282   4.873   5.123  14.978  0.5784  0.2417 -0.4421
12956TIP3    H160283   4.787   5.098  15.014  0.8312 -0.4589 -0.3147
12956TIP3    H260284   4.932   5.117  15.053  1.0423 -0.8793 -0.8817
12957TIP3   OH260285   6.093   3.523  13.904 -0.2232  0.2183  0.0770
12957TIP3    H160286   6.094   3.433  13.869 -0.9358 -0.0755  0.8035
12957TIP3    H260287   6.070   3.513  13.996  0.5707  1.0842  0.3870
12958TIP3   OH260288   3.600   5.585  14.435 -0.4475  0.3819 -0.8050
12958TIP3    H160289   3.529   5.608  14.376 -2.4730  0.5923  1.5448
12958TIP3    H260290   3.579   5.630  14.517  1.7776 -0.4965  0.3343
12959TIP3   OH260291   6.295   2.438  14.034  0.3397  0.0150  0.0771
12959TIP3    H160292   6.317   2.502  14.102  0.4424  1.0383 -0.8959
12959TIP3    H260293   6.259   2.490  13.963  0.3616 -1.0300 -0.7156
12960TIP3   OH260294   0.641   4.233   5.882 -0.0475  0.1997 -0.3467
12960TIP3    H160295   0.570   4.188   5.835 -0.7181  1.7252 -0.8527
12960TIP3    H260296   0.701   4.260   5.812  1.0954 -1.1132  0.0801
12961TIP3   OH260297   4.572   5.412  14.893  0.1999 -0.4503  0.8303
12961TIP3    H160298   4.519   5.365  14.828 -0.7256  0.0766  1.1863
12961TIP3    H260299   4.518   5.412  14.972 -0.3029  2.0760  0.5725
12962TIP3   OH260300   4.376   5.629   2.460  0.1426  0.4547 -0.2194
12962TIP3    H160301   4.368   5.613   2.554 -0.7889 -1.0544 -0.5334
12962TIP3    H260302   4.380   5.542   2.420  1.4325  1.0626 -1.5324
12963TIP3   OH260303   0.821   0.734   3.238 -0.0930  0.4908  0.1008
12963TIP3    H160304   0.899   0.779   3.207 -0.5525  0.2543 -1.4761
12963TIP3    H260305   0.842   0.708   3.328  3.0138 -2.5214 -1.2510
12964TIP3   OH260306   2.541   5.999  14.382 -0.0109  0.0130  0.6315
12964TIP3    H160307   2.568   5.945  14.455  1.7012  0.0477  0.0761
12964TIP3    H260308   2.525   5.937  14.311 -1.5819 -0.0151  0.9908
12965TIP3   OH260309   0.762   6.272   3.189 -0.1531  0.3604  0.2288
12965TIP3    H160310   0.724   6.299   3.272 -0.6066  1.3031 -0.2702
12965TIP3    H260311   0.721   6.187   3.170 -0.7581  0.5859  0.5037
12966TIP3   OH260312   5.699   5.687   3.621  0.4828  0.0326 -0.3255
12966TIP3    H160313   5.609   5.653   3.622  0.5926 -0.4131 -2.0772
12966TIP3    H260314   5.730   5.675   3.711 -0.3315 -2.2349 -0.2799
12967TIP3   OH260315   6.726   0.453  11.104  0.3174  0.5693 -0.3297
12967TIP3    H160316   6.783   0.426  11.031 -0.4067 -0.0894 -0.6630
12967TIP3    H260317   6.642   0.411  11.086  0.3278 -0.2388  1.2812
12968TIP3   OH260318   5.966   3.165  16.146  0.3004 -0.1407  0.1450
12968TIP3    H160319   5.886   3.113  16.147 -1.4653  2.3831  1.3111
12968TIP3    H260320   6.016   3.132  16.072 -1.0797 -2.8329  0.3072
12969TIP3   OH260321   2.786   3.216   1.657 -0.1953  0.3543 -0.3964
12969TIP3    H160322   2.874   3.252   1.644 -0.8083  1.4613 -1.7574
12969TIP3    H260323   2.764   3.240   1.747  0.8769  0.0569 -0.0301
12970TIP3   OH260324   5.780   2.620  16.674  0.1230 -0.2319 -0.2921
12970TIP3    H160325   5.731   2.694  16.637 -1.3157 -1.8534 -1.8580
12970TIP3    H260326   5.834   2.589  16.602  1.0170 -0.4676  0.4661
12971TIP3   OH260327   4.638   4.511   1.982  0.2607 -0.1265  0.6299
12971TIP3    H160328   4.697   4.569   1.933 -0.2390  1.2887  1.6446
12971TIP3    H260329   4.573   4.570   2.020 -1.2150 -1.5391  0.3976
12972TIP3   OH260330   5.221   0.013  17.279  0.2811 -0.0427 -0.1297
12972TIP3    H160331   5.274  -0.048  17.330  0.0673  0.0032  0.1511
12972TIP3    H260332   5.210  -0.029  17.194 -0.6795 -0.8542  0.3767
12973TIP3   OH260333   5.918   6.599   0.866 -0.2473 -0.6372  0.4624
12973TIP3    H160334   5.946   6.600   0.958  0.7291 -0.0865  0.1758
12973TIP3    H260335   5.825   6.621   0.869 -0.4949 -1.7431  1.3943
12974TIP3   OH260336   4.100   4.702  15.022 -0.1564  0.0784 -0.3267
12974TIP3    H160337   4.090   4.791  14.987  3.9834  0.8416 -0.1198
12974TIP3    H260338   4.081   4.711  15.116 -0.2040  0.6461 -0.3844
12975TIP3   OH260339   0.112   6.166  13.474  0.2697 -0.8642 -0.0602
12975TIP3    H160340   0.194   6.142  13.431  0.7261 -1.9384  1.3330
12975TIP3    H260341   0.094   6.093  13.534 -1.1001 -0.1058  0.4993
12976TIP3   OH260342   4.114   0.895  13.421 -0.3775  0.3247  0.1060
12976TIP3    H160343   4.116   0.808  13.462 -2.7587  0.8449  1.5055
12976TIP3    H260344   4.054   0.885  13.347  2.2995 -0.0803 -2.1664
12977TIP3   OH260345   0.525   6.060   6.582  0.3507 -0.0846 -0.4333
12977TIP3    H160346   0.456   6.024   6.639  0.4540  1.3932  0.6942
12977TIP3    H260347   0.599   6.076   6.642  2.4145 -3.1854 -1.8489
12978TIP3   OH260348   4.729   5.391  16.650 -0.6628 -0.4239 -0.4654
12978TIP3    H160349   4.641   5.413  16.620 -0.8788 -1.2039 -0.4258
12978TIP3    H260350   4.785   5.459  16.612 -1.2158 -0.2016 -0.8943
12979TIP3   OH260351   6.530   3.014  14.410 -0.4626 -0.2228 -0.1763
12979TIP3    H160352   6.524   3.035  14.504  0.2875 -1.0655  0.0718
12979TIP3    H260353   6.502   3.094  14.366  2.4092  1.4011  0.7144
12980TIP3   OH260354   5.166   0.052  16.654  0.0922 -0.1075 -0.2215
12980TIP3    H160355   5.159   0.005  16.737 -0.8542 -0.6273 -0.5747
12980TIP3    H260356   5.260   0.058  16.638  0.2658 -0.8824  0.4041
12981TIP3   OH260357   6.219   3.461   3.560  0.1550  0.1520 -0.8170
12981TIP3    H160358   6.232   3.373   3.525  0.8800 -0.7587  1.5906
12981TIP3    H260359   6.140   3.455   3.613  1.3177  0.3346  1.0386
12982TIP3   OH260360   6.073   5.333   1.970  0.4351 -0.5975  0.3197
12982TIP3    H160361   6.017   5.365   2.041 -0.0873 -1.0227  0.1020
12982TIP3    H260362   6.045   5.381   1.893  0.2863 -0.8948  0.1859
12983TIP3   OH260363   5.774   5.852   0.205  0.1068 -0.0247  0.5062
12983TIP3    H160364   5.777   5.897   0.120 -2.0072 -0.1263  0.3326
12983TIP3    H260365   5.715   5.778   0.191 -2.2950  1.3346  2.6335
12984TIP3   OH260366   1.182   4.810   2.632 -0.8368 -0.3124 -0.2638
12984TIP3    H160367   1.275   4.792   2.649 -1.0133 -1.7454 -0.7626
12984TIP3    H260368   1.184   4.880   2.567 -0.1353  0.5078  0.5909
12985TIP3   OH260369   3.926   2.656   1.447 -0.0472  0.1221 -0.1176
12985TIP3    H160370   3.880   2.595   1.504  0.8975 -0.1799  0.3362
12985TIP3    H260371   4.018   2.649   1.472  0.4098 -0.0706 -1.7118
12986TIP3   OH260372   6.629   5.005  16.791  0.0722 -0.6375 -0.1193
12986TIP3    H160373   6.579   4.967  16.863 -0.3473  1.4613  0.7690
12986TIP3    H260374   6.717   5.017  16.826  0.3552 -1.2991 -0.5872
12987TIP3   OH260375   2.758   3.019   2.074  0.2149 -0.1308  0.5134
12987TIP3    H160376   2.676   3.053   2.037  0.4828  1.0246  0.9285
12987TIP3    H260377   2.826   3.078   2.040  0.5241  0.6854  2.4014
12988TIP3   OH260378   3.159   4.629  16.915  0.5086 -0.1257 -0.1669
12988TIP3    H160379   3.239   4.578  16.927  0.8311  0.0377 -1.4084
12988TIP3    H260380   3.093   4.564  16.890  0.1539 -0.3038  1.1819
12989TIP3   OH260381   2.964   3.098   2.833  0.3440  0.0900  0.2937
12989TIP3    H160382   3.025   3.102   2.760 -0.4174  2.3483 -0.2824
12989TIP3    H260383   2.965   3.006   2.860  0.3199 -0.9278 -2.8181
12990TIP3   OH260384   6.322   2.523  17.128  0.5063  0.1466  0.4693
12990TIP3    H160385   6.277   2.486  17.203  0.1813 -1.0735 -0.3064
12990TIP3    H260386   6.324   2.453  17.063  0.4414  1.2846 -0.8178
12991TIP3   OH260387   3.373   6.644   3.855 -0.3185  0.4077 -0.6554
12991TIP3    H160388   3.427   6.709   3.899  0.5142 -0.8865  0.3106
12991TIP3    H260389   3.312   6.695   3.801 -0.7617  2.0230  1.2701
12992TIP3   OH260390   4.320   5.350   0.845  0.3623 -0.5725  0.3286
12992TIP3    H160391   4.408   5.388   0.840  0.1467 -0.1815 -0.7523
12992TIP3    H260392   4.287   5.379   0.930  1.0040 -0.1237  0.4386
12993TIP3   OH260393   5.501   3.565  17.137  0.0872 -0.2231 -0.0973
12993TIP3    H160394   5.433   3.611  17.088 -1.5430 -1.9581  0.4135
12993TIP3    H260395   5.495   3.600  17.226  0.0059 -0.2188 -0.1048
12994TIP3   OH260396   1.105   5.492   0.458 -0.9337  0.5862 -0.4194
12994TIP3    H160397   1.069   5.455   0.539 -0.1365  1.2842  0.2738
12994TIP3    H260398   1.147   5.418   0.415 -0.1304  0.4591  0.5227
12995TIP3   OH260399   5.521   6.503  17.381  0.0912 -0.0052 -0.8010
12995TIP3    H160400   5.516   6.526  17.289 -0.6077  1.7732 -0.3604
12995TIP3    H260401   5.478   6.417  17.387 -2.9442  1.3378 -1.6648
12996TIP3   OH260402   6.665   3.936   0.960  0.0699  0.6851 -0.4991
12996TIP3    H160403   6.699   3.958   1.046  0.9612  0.3328 -0.7486
12996TIP3    H260404   6.634   4.019   0.924 -1.2150  0.6829  0.5236
12997TIP3   OH260405   6.101   5.723  15.050  0.2693 -0.4105  0.3576
12997TIP3    H160406   6.012   5.720  15.084  0.9560 -0.8073  2.2448
12997TIP3    H260407   6.091   5.748  14.958 -1.6251  2.0490  1.1425
12998TIP3   OH260408   6.496   2.305   4.364  0.5157  0.3652 -0.2404
12998TIP3    H160409   6.575   2.354   4.387  2.9430 -3.0231 -0.7246
12998TIP3    H260410   6.498   2.300   4.269  0.0243 -0.2811 -0.2208
12999TIP3   OH260411   1.846   6.092  14.083  0.5590  0.0171  0.1289
12999TIP3    H160412   1.758   6.067  14.054 -0.2631  3.0458 -0.3276
12999TIP3    H260413   1.905   6.053  14.018 -0.2806 -2.7281  0.8777
13000TIP3   OH260414   3.938   5.705  11.202 -0.3560 -0.3316  0.2217
13000TIP3    H160415   3.855   5.659  11.210 -0.3878 -0.2863  0.1464
13000TIP3    H260416   4.004   5.636  11.212 -0.4117 -0.5566 -0.8925
13001TIP3   OH260417   2.088   6.285   3.803  0.2805 -0.0952  0.4022
13001TIP3    H160418   2.078   6.228   3.726 -0.4137  0.7395 -0.1360
13001TIP3    H260419   2.023   6.354   3.791  2.3316  1.9025  0.0627
13002TIP3   OH260420   5.473   3.032   2.272  0.4782 -0.6493  0.3574
13002TIP3    H160421   5.393   3.038   2.325 -0.1890 -0.3137 -0.6535
13002TIP3    H260422   5.518   3.115   2.287  0.4738 -0.7051  0.6822
13003TIP3   OH260423   5.485   1.409   1.283  0.6812  0.2006  0.6234
13003TIP3    H160424   5.514   1.328   1.324  0.1321 -0.4475 -0.2289
13003TIP3    H260425   5.489   1.392   1.189 -2.2220  0.0980  0.4213
13004TIP3   OH260426   4.104   2.629  16.328 -0.4908  0.2500 -0.0311
13004TIP3    H160427   4.110   2.631  16.424  1.4130  0.9601 -0.1067
13004TIP3    H260428   4.188   2.593  16.300 -0.7248  0.7361 -1.4446
13005TIP3   OH260429   4.814   1.552   0.214 -0.1507 -0.0034  0.0806
13005TIP3    H160430   4.791   1.528   0.303  1.1201  1.0916  0.7409
13005TIP3    H260431   4.740   1.604   0.183 -0.2503  0.2923  0.8024
13006TIP3   OH260432   5.392   0.031  12.103 -0.1215 -0.4515  0.3933
13006TIP3    H160433   5.341   0.038  12.022  0.2760 -2.1055 -0.0365
13006TIP3    H260434   5.382   0.117  12.145 -1.0746  0.1382 -0.9577
13007TIP3   OH260435   2.064   3.022  10.587  0.0048 -0.6077  0.2409
13007TIP3    H160436   2.022   2.936  10.594 -1.8567  0.3543  2.1526
13007TIP3    H260437   1.996   3.079  10.552  0.8128  0.3448  0.1673
13008TIP3   OH260438   3.744   4.376  12.054  0.5760 -0.5815  0.4249
13008TIP3    H160439   3.763   4.425  11.974  2.4380 -0.2707  0.9922
13008TIP3    H260440   3.655   4.401  12.078  0.1181 -0.4209 -1.3434
13009TIP3   OH260441   4.251   6.516  12.812 -0.0000  0.0455  0.0349
13009TIP3    H160442   4.162   6.544  12.791 -1.0806 -1.9199  1.6240
13009TIP3    H260443   4.257   6.527  12.907  1.4336  0.0438 -0.0447
13010TIP3   OH260444   5.837   4.824   5.110 -0.0325 -0.5954 -0.3919
13010TIP3    H160445   5.834   4.792   5.019  0.3158 -0.4337 -0.4667
13010TIP3    H260446   5.832   4.745   5.163 -3.5185 -0.5322 -0.4445
13011TIP3   OH260447   2.446   4.771  16.449  0.1235  0.3519 -0.1267
13011TIP3    H160448   2.447   4.803  16.359 -1.0990  0.9132  0.0390
13011TIP3    H260449   2.452   4.676  16.441 -3.3914  0.0855 -1.0344
13012TIP3   OH260450   1.566   2.494   1.808  0.0521  0.1257  0.0248
13012TIP3    H160451   1.493   2.552   1.791 -0.2997  0.5518  2.5924
13012TIP3    H260452   1.615   2.536   1.878  2.3670 -0.5240 -1.0886
13013TIP3   OH260453   3.820   2.286   6.452  0.3820 -0.4137 -0.3887
13013TIP3    H160454   3.727   2.299   6.472  0.7656  1.6266  0.2964
13013TIP3    H260455   3.840   2.356   6.389  1.6892 -0.1504  0.3003
13014TIP3   OH260456   1.616   3.757   4.378 -0.3358  0.2842 -0.5737
13014TIP3    H160457   1.682   3.761   4.309  1.1078 -0.7217  0.6772
13014TIP3    H260458   1.558   3.685   4.352 -1.0033  1.1930 -1.6936
13015TIP3   OH260459   6.645   0.194   3.857  0.5177 -0.2136 -0.0268
13015TIP3    H160460   6.572   0.132   3.853 -0.8804  1.4270 -2.1763
13015TIP3    H260461   6.637   0.234   3.944 -1.2802  0.0205 -0.2615
13016TIP3   OH260462   4.338   0.703   5.141 -0.0277  0.1190 -0.4201
13016TIP3    H160463   4.324   0.656   5.059  0.8236  2.1557 -1.7939
13016TIP3    H260464   4.395   0.645   5.193 -3.9270 -3.1994  0.6923
13017TIP3   OH260465   1.314   2.044  11.833  0.2870 -0.2271  0.0985
13017TIP3    H160466   1.237   2.089  11.796 -1.3990 -1.4733  1.9113
13017TIP3    H260467   1.349   2.106  11.897 -0.6401 -0.5425  0.9336
13018TIP3   OH260468   6.149   4.929   2.852 -0.0227  0.2612  0.0252
13018TIP3    H160469   6.229   4.938   2.904 -1.1644 -0.2658  1.9923
13018TIP3    H260470   6.079   4.957   2.911 -1.4674 -0.9845 -1.0097
13019TIP3   OH260471   3.900   5.792  10.596  0.2360 -0.7170 -0.1694
13019TIP3    H160472   3.858   5.712  10.565  0.2711 -0.1863 -1.7104
13019TIP3    H260473   3.832   5.839  10.642 -0.1176 -1.0922 -0.2995
13020TIP3   OH260474   2.121   1.650  16.445  0.4752  0.8923  0.3967
13020TIP3    H160475   2.155   1.579  16.499  0.3091  1.5968  1.4349
13020TIP3    H260476   2.076   1.708  16.506 -1.1046  0.8930 -0.6818
13021TIP3   OH260477   2.400   6.303  17.295  0.7657 -0.3832 -0.0846
13021TIP3    H160478   2.317   6.321  17.340  0.4974  0.1912 -0.7945
13021TIP3    H260479   2.408   6.373  17.231  1.8000 -0.4459 -0.0343
13022TIP3   OH260480   3.287   4.379   1.239  0.3490 -0.4870  0.2734
13022TIP3    H160481   3.199   4.395   1.274  0.0415 -1.3854 -0.0552
13022TIP3    H260482   3.330   4.324   1.304 -0.1353 -1.9445 -0.5872
13023TIP3   OH260483   0.842   3.932  15.068  0.3784  0.7013 -0.3948
13023TIP3    H160484   0.763   3.969  15.106  0.8528  1.0052  0.3110
13023TIP3    H260485   0.911   3.995  15.090  0.9169  0.1626 -0.5136
13024TIP3   OH260486   4.628   2.383  16.628 -0.8499 -0.1007 -0.1776
13024TIP3    H160487   4.583   2.467  16.627 -0.5036  0.0865 -0.6038
13024TIP3    H260488   4.564   2.320  16.595 -0.6914  0.2250 -1.1374
13025TIP3   OH260489   2.660   5.592  12.723  0.0121  0.4902 -0.5791
13025TIP3    H160490   2.639   5.669  12.670 -0.3993  0.5231 -0.3806
13025TIP3    H260491   2.746   5.563  12.693  0.4926  1.4506 -0.1671
13026TIP3   OH260492   2.666   3.843  12.223  0.1378 -0.1402  0.1651
13026TIP3    H160493   2.666   3.809  12.312  0.2635 -1.5814 -0.3585
13026TIP3    H260494   2.756   3.832  12.193  0.0595  0.1889 -0.2073
13027TIP3   OH260495   3.415   5.842   6.346 -0.3471  0.1489  0.6424
13027TIP3    H160496   3.410   5.876   6.436 -2.5759  0.8887  0.3078
13027TIP3    H260497   3.383   5.914   6.291 -0.4323 -0.7926 -0.5865
13028TIP3   OH260498   2.879   5.275   4.910 -0.4905  0.4305 -0.0724
13028TIP3    H160499   2.908   5.366   4.898  0.7633  0.0352 -0.2500
13028TIP3    H260500   2.812   5.280   4.977  0.8448  1.3136  1.2781
13029TIP3   OH260501   5.043   0.709   5.812  0.0355 -0.2867  0.1620
13029TIP3    H160502   4.988   0.762   5.755 -0.7430 -0.5867  0.6134
13029TIP3    H260503   5.021   0.738   5.901  0.5899 -0.4243  0.3491
13030TIP3   OH260504   5.902   3.822   0.008  0.1766 -0.4599 -0.1380
13030TIP3    H160505   5.847   3.750   0.037 -3.0272  0.9660 -1.9901
13030TIP3    H260506   5.894   3.820  -0.088  0.0580  2.1634 -0.2559
13031TIP3   OH260507   2.659   5.429   2.778  0.0692  0.1193 -0.0129
13031TIP3    H160508   2.567   5.443   2.754 -0.1812 -0.0470  0.7996
13031TIP3    H260509   2.707   5.434   2.696 -0.6488  0.4080 -0.4219
13032TIP3   OH260510   1.372   0.834   5.034  0.2155  0.4914 -0.0396
13032TIP3    H160511   1.456   0.855   5.073 -0.3541  1.0790  0.9204
13032TIP3    H260512   1.387   0.839   4.940  1.0728  1.3381  0.1283
13033TIP3   OH260513   5.891   3.084   3.172 -0.2873  0.1330 -0.1903
13033TIP3    H160514   5.889   3.146   3.099 -0.5872 -0.2570 -0.5121
13033TIP3    H260515   5.812   3.104   3.223  0.1046  0.6438  0.2340
13034TIP3   OH260516   0.520   5.037   4.542 -0.2961 -0.1817 -0.0619
13034TIP3    H160517   0.465   4.968   4.579  0.2893 -1.0483 -0.7787
13034TIP3    H260518   0.515   5.024   4.448  0.6298  0.1143 -0.1644
13035TIP3   OH260519   4.904   1.370   1.668 -0.6820  0.8427 -0.0096
13035TIP3    H160520   4.950   1.399   1.747 -1.7718 -1.3637  1.5502
13035TIP3    H260521   4.823   1.421   1.668 -1.2610 -0.0338  1.0630
13036TIP3   OH260522   1.232   3.074  14.765  0.0356  0.2174  0.2807
13036TIP3    H160523   1.236   3.144  14.830  1.2026  0.5763 -0.1435
13036TIP3    H260524   1.146   3.035  14.776 -0.4268  1.3729  0.9018
13037TIP3   OH260525   1.699   0.677  15.281 -0.3174 -0.1641 -0.2064
13037TIP3    H160526   1.690   0.732  15.358  0.5957 -0.2743 -0.0068
13037TIP3    H260527   1.757   0.726  15.223  0.1747 -0.7244 -0.1997
13038TIP3   OH260528   3.910   1.947  15.873 -0.1015 -0.0886  0.1319
13038TIP3    H160529   3.977   1.894  15.830 -0.0028 -0.3402  0.5905
13038TIP3    H260530   3.952   1.979  15.952 -0.1285  0.7610 -0.1850
13039TIP3   OH260531   0.766   6.038   0.636  0.4452  0.0687 -0.0877
13039TIP3    H160532   0.738   6.089   0.561 -0.7418  0.0581  0.3335
13039TIP3    H260533   0.773   5.948   0.603 -2.4932 -0.4091  0.3245
13040TIP3   OH260534   5.119   3.458   4.493 -0.5327 -0.3850 -0.2383
13040TIP3    H160535   5.125   3.543   4.536 -0.8923 -0.0052 -0.9073
13040TIP3    H260536   5.123   3.479   4.399  0.8242 -1.2301 -0.3915
13041TIP3   OH260537   6.647   4.807  14.366  0.0612  0.0013 -0.0554
13041TIP3    H160538   6.661   4.901  14.379 -1.5138  0.5335 -1.6636
13041TIP3    H260539   6.614   4.775  14.450  0.8866  0.8064  0.5959
13042TIP3   OH260540   5.584   0.286   5.678  0.0619  0.3664 -0.8321
13042TIP3    H160541   5.564   0.362   5.733  0.3295  1.2015 -1.8672
13042TIP3    H260542   5.501   0.237   5.674 -0.6833  1.6366 -1.7399
13043TIP3   OH260543   0.885   2.096   4.156  0.1993  0.5358  0.2045
13043TIP3    H160544   0.962   2.094   4.213  1.0589  0.1317 -0.9166
13043TIP3    H260545   0.851   2.185   4.163  0.0038  0.3580  1.6857
13044TIP3   OH260546   0.112   3.431   3.592  0.6598 -0.2240 -0.6055
13044TIP3    H160547   0.149   3.347   3.566 -1.4890 -1.6520  0.5769
13044TIP3    H260548   0.102   3.424   3.687  2.0636  2.1137 -0.2221
13045TIP3   OH260549   4.632   3.206  16.514 -0.2166 -0.0253  0.1129
13045TIP3    H160550   4.650   3.140  16.581 -0.2018 -0.8941 -0.7248
13045TIP3    H260551   4.694   3.276  16.533  0.2831 -0.5789  0.5718
13046TIP3   OH260552   4.396   5.659   0.688  0.5783  0.5099 -0.5166
13046TIP3    H160553   4.359   5.623   0.607  0.1072 -0.6040  0.1696
13046TIP3    H260554   4.482   5.617   0.695  1.5158  2.1578 -1.4679
13047TIP3   OH260555   4.149   0.890   6.282  0.2396  0.4242 -0.1884
13047TIP3    H160556   4.127   0.830   6.210 -0.2109 -1.6061  1.5353
13047TIP3    H260557   4.070   0.942   6.295 -1.1910 -1.9124  1.2901
13048TIP3   OH260558   5.158   1.844  12.755 -0.0111  0.0123  0.1612
13048TIP3    H160559   5.157   1.753  12.724  0.3522  0.3008 -0.7151
13048TIP3    H260560   5.097   1.845  12.829 -0.0801 -0.9238  0.1238
13049TIP3   OH260561   6.355   6.600   2.591 -0.3991  0.8031  0.5051
13049TIP3    H160562   6.431   6.604   2.533  0.1700  0.9365  1.2517
13049TIP3    H260563   6.290   6.550   2.542 -0.0853  1.2867 -0.4246
13050TIP3   OH260564   0.112   1.749  11.989 -0.4511  0.2015  0.1253
13050TIP3    H160565   0.073   1.791  11.913 -0.4832  0.7010  0.4146
13050TIP3    H260566   0.076   1.796  12.064  0.8085  0.7959  0.3999
13051TIP3   OH260567   1.145   2.292  13.566 -0.5598 -0.1842  0.3313
13051TIP3    H160568   1.188   2.233  13.628  1.4567 -0.3002 -1.0575
13051TIP3    H260569   1.066   2.246  13.539 -0.0429 -1.3600  0.7621
13052TIP3   OH260570   3.519   0.597   1.127  0.0505  0.4071  0.1999
13052TIP3    H160571   3.491   0.536   1.195 -1.8012  0.1522 -0.7193
13052TIP3    H260572   3.493   0.683   1.160 -1.0912  0.2586 -0.2488
13053TIP3   OH260573   5.862   4.144  13.507  0.3437 -0.2347 -0.4326
13053TIP3    H160574   5.935   4.085  13.527 -1.1986 -1.2404  3.0992
13053TIP3    H260575   5.794   4.087  13.470  0.5314  0.2974 -1.6405
13054TIP3   OH260576   3.636   4.908  13.480  0.1698 -0.0216 -0.3545
13054TIP3    H160577   3.594   4.910  13.566  1.9537  0.2551  0.5580
13054TIP3    H260578   3.634   4.999  13.450  2.2547  0.4896  0.8388
13055TIP3   OH260579   1.010   3.577  14.516  0.0549  0.2016  0.3218
13055TIP3    H160580   0.918   3.579  14.491  0.3604  2.7498 -0.8872
13055TIP3    H260581   1.049   3.653  14.473  2.0706  1.0580  3.3292
13056TIP3   OH260582   6.188   1.816   6.115 -0.6210  0.6326 -0.2761
13056TIP3    H160583   6.259   1.849   6.060  1.4332 -0.8235  1.3174
13056TIP3    H260584   6.190   1.873   6.192  1.6028 -1.6662  1.5645
13057TIP3   OH260585   3.107   5.697  16.983 -0.2526  0.3822  0.0856
13057TIP3    H160586   3.014   5.694  17.005 -0.1766  0.4661  0.4175
13057TIP3    H260587   3.138   5.781  17.019  0.0637  0.1211  0.4329
13058TIP3   OH260588   4.251   6.423  16.871 -0.3832  0.1435  0.3703
13058TIP3    H160589   4.344   6.419  16.895 -0.0916  1.4957 -0.4904
13058TIP3    H260590   4.246   6.377  16.787 -0.3171  0.8998 -0.0544
13059TIP3   OH260591   6.519   0.914  10.683  0.0174 -0.2619 -0.2741
13059TIP3    H160592   6.592   0.859  10.655 -0.3308 -1.1017  0.4027
13059TIP3    H260593   6.485   0.953  10.603  1.0519 -0.0536 -0.6188
13060TIP3   OH260594   1.873   4.917   2.004 -0.2735 -0.3573 -0.3871
13060TIP3    H160595   1.924   4.910   1.923 -0.6920 -1.9005 -0.5555
13060TIP3    H260596   1.791   4.958   1.978 -0.4006 -0.8375 -0.7561
13061TIP3   OH260597   1.253   2.016   1.402  0.1112  0.2128 -0.5116
13061TIP3    H160598   1.286   1.959   1.471 -0.5089  1.1250  0.5574
13061TIP3    H260599   1.189   2.073   1.445 -0.4298  0.6853 -1.8678
13062TIP3   OH260600   6.428   0.617  12.340 -0.7343  0.3563 -0.0843
13062TIP3    H160601   6.466   0.629  12.253  0.3299 -1.8380  0.0065
13062TIP3    H260602   6.500   0.638  12.401 -0.3663 -1.4147  0.1440
13063TIP3   OH260603   5.688   6.623   0.320  0.0065  0.2313  0.2219
13063TIP3    H160604   5.614   6.566   0.298  0.5878 -1.6656  2.6854
13063TIP3    H260605   5.765   6.571   0.299  0.5964  1.0813  0.2648
13064TIP3   OH260606   5.421   0.100   2.355 -0.1642 -0.6620  0.0172
13064TIP3    H160607   5.454   0.190   2.360  0.0355 -0.7702  0.9920
13064TIP3    H260608   5.500   0.046   2.355 -0.2674 -0.8240 -1.2092
13065TIP3   OH260609   0.492   0.464  10.775  0.7913  0.5214  0.1206
13065TIP3    H160610   0.490   0.545  10.724  0.9365  0.7906  0.5423
13065TIP3    H260611   0.428   0.477  10.845 -0.1911 -0.2593 -0.5972
13066TIP3   OH260612   5.628   1.591  11.256 -0.2613 -0.2483  0.3797
13066TIP3    H160613   5.609   1.566  11.166 -1.4482  2.5704 -0.2922
13066TIP3    H260614   5.545   1.629  11.287  0.6482  0.4827  2.0080
13067TIP3   OH260615   1.202   6.644   0.952  0.1160  1.0175 -0.4193
13067TIP3    H160616   1.224   6.622   0.862  2.0219  0.4743  0.1237
13067TIP3    H260617   1.267   6.597   1.005 -2.6477 -1.0859  1.4484
13068TIP3   OH260618   1.908   4.162   3.277 -0.1426  0.1327  0.0206
13068TIP3    H160619   1.844   4.119   3.334 -1.2480  0.1731 -1.1349
13068TIP3    H260620   1.988   4.163   3.328 -1.1962  0.6228  1.7609
13069TIP3   OH260621   0.037   0.826  17.120 -0.9923  0.3590 -0.0490
13069TIP3    H160622   0.040   0.878  17.040 -1.6601 -1.1105 -1.0898
13069TIP3    H260623  -0.028   0.758  17.102 -0.1796 -0.8224  1.2378
13070TIP3   OH260624   2.656   3.999   4.217 -0.1866 -0.4414 -0.1015
13070TIP3    H160625   2.586   4.036   4.270  0.1206 -0.2331  0.1666
13070TIP3    H260626   2.667   3.910   4.250 -0.5833 -0.6056 -0.4055
13071TIP3   OH260627   4.118   0.183  17.096  0.4706 -0.0860  0.2344
13071TIP3    H160628   4.069   0.166  17.016  0.3580  2.1819 -0.2475
13071TIP3    H260629   4.050   0.199  17.162  0.5718 -0.7283  0.5030
13072TIP3   OH260630   3.273   0.926  16.289 -0.2370 -0.5526 -0.2759
13072TIP3    H160631   3.184   0.937  16.322 -0.3910 -1.3459 -0.4133
13072TIP3    H260632   3.264   0.867  16.214 -0.0165  1.7981 -2.3146
13073TIP3   OH260633   4.417   1.803   2.902  0.8091 -0.7802 -0.4433
13073TIP3    H160634   4.358   1.730   2.879 -2.8541  1.5646  0.6463
13073TIP3    H260635   4.457   1.828   2.819  0.7726 -2.8470 -1.1438
13074TIP3   OH260636   1.170   1.864   2.616  0.7364  0.0625  0.1041
13074TIP3    H160637   1.099   1.903   2.667  1.0846  0.8760 -0.0116
13074TIP3    H260638   1.139   1.868   2.526  1.7750  2.4827 -0.2377
13075TIP3   OH260639   3.144   5.997   1.344 -0.6540  0.3072 -0.3093
13075TIP3    H160640   3.147   5.932   1.413  2.7271  2.5773  2.0047
13075TIP3    H260641   3.158   5.947   1.263 -2.3441 -2.1690  0.8178
13076TIP3   OH260642   5.742   4.250   2.836 -0.0131  1.1028  0.1655
13076TIP3    H160643   5.750   4.182   2.769 -1.0934  0.6800  0.4470
13076TIP3    H260644   5.683   4.212   2.901 -0.5897  2.3016  0.3520
13077TIP3   OH260645   6.075   0.167  15.772  0.3318 -0.6030  0.0251
13077TIP3    H160646   6.106   0.116  15.847  1.9590 -0.4024 -0.4714
13077TIP3    H260647   5.993   0.205  15.802 -0.0482 -2.0919  1.0153
13078TIP3   OH260648   3.083   2.193   3.772  0.5412 -0.0255  0.4138
13078TIP3    H160649   3.157   2.247   3.742  0.0812 -0.3332 -1.3875
13078TIP3    H260650   3.063   2.137   3.697 -0.0701 -1.5537  1.6767
13079TIP3   OH260651   3.533   4.962  14.736  0.6750 -0.0053 -0.0996
13079TIP3    H160652   3.561   5.016  14.810  0.9477  1.5285 -1.2639
13079TIP3    H260653   3.441   4.986  14.723  0.8080  0.2261 -0.6429
13080TIP3   OH260654   5.602   0.670   4.295  0.3527  0.6518 -0.3313
13080TIP3    H160655   5.585   0.717   4.376  1.0817 -0.1421  0.2981
13080TIP3    H260656   5.516   0.637   4.268  0.2001  0.3786  0.4628
13081TIP3   OH260657   6.390   3.832  11.911 -0.4929 -0.3006 -0.4914
13081TIP3    H160658   6.456   3.814  11.844 -1.0210  0.4190 -1.2099
13081TIP3    H260659   6.442   3.861  11.987  0.2385 -2.7009  0.0359
13082TIP3   OH260660   0.757   3.737   3.464 -0.2003  0.1580 -0.1622
13082TIP3    H160661   0.778   3.644   3.474  3.4739  0.9299  0.7492
13082TIP3    H260662   0.675   3.748   3.513 -0.1371 -2.3964  0.6730
13083TIP3   OH260663   2.318   2.208  15.467  0.4472  0.4261 -0.8297
13083TIP3    H160664   2.257   2.256  15.412 -0.6903 -0.4150 -0.3308
13083TIP3    H260665   2.373   2.276  15.507 -0.3751  1.2228 -1.0222
13084TIP3   OH260666   4.138   0.332   2.989 -0.2946 -0.2189 -0.4673
13084TIP3    H160667   4.221   0.344   3.036  0.8500  0.2057 -2.4579
13084TIP3    H260668   4.158   0.265   2.923 -0.7753  1.5556 -2.5398
13085TIP3   OH260669   5.749   1.071  10.713 -0.1908  0.1913 -0.5440
13085TIP3    H160670   5.723   1.016  10.639  1.2070  0.8073 -1.5210
13085TIP3    H260671   5.771   1.155  10.675 -1.1729  1.1158  0.8128
13086TIP3   OH260672   2.409   2.785  11.995  0.5417  0.1375  0.7763
13086TIP3    H160673   2.401   2.828  11.910  2.8185  2.4076  1.5919
13086TIP3    H260674   2.324   2.798  12.037  0.7319  2.8607  0.4660
13087TIP3   OH260675   0.499   0.412  11.658 -0.1293  0.2823 -0.1902
13087TIP3    H160676   0.579   0.378  11.618 -0.3671  1.5527 -1.8672
13087TIP3    H260677   0.486   0.358  11.736  1.4316 -1.0429 -0.7906
13088TIP3   OH260678   3.327   3.973  12.289 -0.1342  0.0925  0.3276
13088TIP3    H160679   3.339   4.019  12.372  0.4209 -1.2581  1.0348
13088TIP3    H260680   3.353   4.036  12.223  1.1072  0.6532  1.2887
13089TIP3   OH260681   5.214   0.393   2.104  0.7152  0.1298  0.0495
13089TIP3    H160682   5.306   0.375   2.083  0.8753 -2.0747  2.1828
13089TIP3    H260683   5.166   0.320   2.064 -0.1209  1.1257 -0.8236
13090TIP3   OH260684   1.720   3.854   0.766  0.0545 -0.1643  0.3937
13090TIP3    H160685   1.798   3.893   0.805 -0.5715  2.5254 -0.8341
13090TIP3    H260686   1.651   3.919   0.780 -1.7356 -1.9807  0.4703
13091TIP3   OH260687   1.074   6.702  12.137 -0.3236  0.1464 -0.7872
13091TIP3    H160688   1.056   6.733  12.225 -0.2331  0.3484 -0.8398
13091TIP3    H260689   1.146   6.639  12.147 -0.0772  0.4337 -0.7622
13092TIP3   OH260690   3.316   6.468  12.322 -0.3297 -0.0002  0.1231
13092TIP3    H160691   3.330   6.425  12.237 -0.9166 -0.3916  0.2187
13092TIP3    H260692   3.320   6.562  12.302 -1.9718 -0.0492 -0.6202
13093TIP3   OH260693   5.982   3.703  15.033 -0.4388 -0.0166 -0.2986
13093TIP3    H160694   6.034   3.782  15.017 -0.5906  0.2465  0.4785
13093TIP3    H260695   5.968   3.665  14.946  0.6822  0.1425 -0.5660
13094TIP3   OH260696   5.454   4.625  14.590  0.2190 -0.0431  0.1628
13094TIP3    H160697   5.496   4.642  14.506 -0.0923  1.1225  0.2152
13094TIP3    H260698   5.516   4.570  14.637  1.3787  1.0375 -0.0341
13095TIP3   OH260699   2.494   3.550   3.567  0.0507  0.5987 -0.1724
13095TIP3    H160700   2.572   3.518   3.522 -0.1186  1.4402 -1.0935
13095TIP3    H260701   2.524   3.573   3.655  0.2092 -1.9231  0.5066
13096TIP3   OH260702   1.410   3.744  15.412 -0.7292  0.6667 -0.2442
13096TIP3    H160703   1.492   3.704  15.440 -0.6933  0.2634 -0.8988
13096TIP3    H260704   1.397   3.817  15.472  2.0503  3.1060 -2.2924
13097TIP3   OH260705   6.268   1.396   5.496 -0.4764 -0.4275  0.0469
13097TIP3    H160706   6.330   1.393   5.569 -2.1529 -2.1385  1.4879
13097TIP3    H260707   6.311   1.348   5.426  0.2631 -0.6727  0.6513
13098TIP3   OH260708   5.492   1.949   6.194  0.7784 -0.1375  0.4597
13098TIP3    H160709   5.439   1.887   6.245  0.0660  0.6422  0.6838
13098TIP3    H260710   5.534   1.895   6.128 -0.7839 -0.6988 -0.1180
13099TIP3   OH260711   2.054   0.448  11.522  0.0072  0.5273 -1.0891
13099TIP3    H160712   2.145   0.472  11.500 -0.6817  1.6946 -2.8973
13099TIP3    H260713   2.051   0.353  11.512  0.6223  0.6535 -2.7889
13100TIP3   OH260714   1.123   1.953   5.051  0.0381  0.3388 -0.1070
13100TIP3    H160715   1.205   2.000   5.034 -0.6719  1.5909 -0.1638
13100TIP3    H260716   1.058   2.021   5.065 -1.3588 -0.6093 -1.6002
13101TIP3   OH260717   5.377   6.031  15.386 -0.1043  0.4860  0.5736
13101TIP3    H160718   5.450   6.014  15.326 -0.6027  0.1695  0.0464
13101TIP3    H260719   5.317   5.958  15.373  0.0507  0.1005  1.9069
13102TIP3   OH260720   5.541   4.961  16.525 -0.3124 -0.3329  0.1195
13102TIP3    H160721   5.495   4.926  16.601  0.8267 -2.2962 -0.0323
13102TIP3    H260722   5.495   5.042  16.504 -1.0081 -0.0355  2.5386
13103TIP3   OH260723   4.396   5.036   3.684 -0.0554  0.6530  0.2456
13103TIP3    H160724   4.468   4.988   3.723 -0.9602 -0.0902  1.0463
13103TIP3    H260725   4.430   5.067   3.599  0.0724 -2.7953 -1.1073
13104TIP3   OH260726   3.786   2.128  15.677  0.0331  0.4951  0.1573
13104TIP3    H160727   3.821   2.042  15.702  3.1143  1.3735 -0.6860
13104TIP3    H260728   3.812   2.186  15.748  1.0994  1.3435 -0.8821
13105TIP3   OH260729   2.404   0.263   5.862  0.1295  0.1886  0.1748
13105TIP3    H160730   2.437   0.239   5.775  0.1527  1.3752 -0.1586
13105TIP3    H260731   2.464   0.221   5.923 -0.1427 -1.0231 -0.3650
13106TIP3   OH260732   2.203   5.856   4.518  0.0376  0.5712 -0.2358
13106TIP3    H160733   2.198   5.762   4.499  0.3086  0.9077 -2.2236
13106TIP3    H260734   2.285   5.884   4.476 -0.3078  1.7842 -0.1345
13107TIP3   OH260735   3.758   6.050  17.210  0.5003  0.0253 -0.5836
13107TIP3    H160736   3.848   6.051  17.177  1.4613 -0.2412  1.8175
13107TIP3    H260737   3.739   5.957  17.224  0.6264  0.1746  0.7443
13108TIP3   OH260738   2.198   5.948   1.007  0.7584  0.1815 -0.0789
13108TIP3    H160739   2.113   5.930   0.966  0.4946  0.8917  0.1330
13108TIP3    H260740   2.244   5.865   1.004  1.3329  0.4885 -3.1165
13109TIP3   OH260741   5.936   1.200   4.069 -0.4145 -0.2273 -0.3842
13109TIP3    H160742   5.970   1.151   4.144  0.0805  1.5638  0.6207
13109TIP3    H260743   5.896   1.134   4.014  1.2346 -1.9228  0.3261
13110TIP3   OH260744   3.834   6.344  14.121  0.6942  0.1933 -0.3248
13110TIP3    H160745   3.890   6.303  14.055  0.1528 -0.6073 -0.3016
13110TIP3    H260746   3.772   6.396  14.070  1.9047  1.7113 -0.3228
13111TIP3   OH260747   6.216   2.529   5.287 -0.6831  0.4649 -0.7998
13111TIP3    H160748   6.302   2.496   5.312 -1.2510  0.2847  1.1078
13111TIP3    H260749   6.224   2.624   5.292 -1.0389  0.4245  1.1665
13112TIP3   OH260750   6.205   5.589  11.056 -0.5472  0.6133 -0.0226
13112TIP3    H160751   6.179   5.680  11.049  1.1348  1.0713 -0.7048
13112TIP3    H260752   6.218   5.575  11.150 -0.6912  1.1040  0.0740
13113TIP3   OH260753   1.709   2.242   1.949 -0.3701  0.1558  0.1633
13113TIP3    H160754   1.748   2.289   2.024  0.2083  0.2420 -0.1818
13113TIP3    H260755   1.647   2.305   1.912 -1.0607 -0.0825  0.8889
13114TIP3   OH260756   5.658   2.292  16.969  0.4000  0.1048  0.5840
13114TIP3    H160757   5.733   2.287  16.909 -1.6794 -1.0028 -2.1659
13114TIP3    H260758   5.607   2.367  16.937  0.3697  0.9532  2.5180
13115TIP3   OH260759   0.903   4.853   3.298  0.2548 -0.0206 -0.5155
13115TIP3    H160760   0.959   4.885   3.369 -1.9523  0.1990  1.2454
13115TIP3    H260761   0.951   4.778   3.262  2.0947  0.7284  0.2207
13116TIP3   OH260762   4.874   0.241  14.353 -0.0113 -0.7848 -0.4060
13116TIP3    H160763   4.827   0.186  14.416  0.4854  0.1616  0.8377
13116TIP3    H260764   4.934   0.293  14.407  1.2859 -0.7830 -1.7835
13117TIP3   OH260765   2.479   4.210   0.159 -0.1434 -0.2088  0.0863
13117TIP3    H160766   2.473   4.185   0.067  1.5085 -2.0307  0.4075
13117TIP3    H260767   2.433   4.140   0.206  0.8662 -0.4428  0.7627
13118TIP3   OH260768   4.069   5.877  15.733  0.5147 -0.6167 -0.1876
13118TIP3    H160769   4.141   5.868  15.795 -1.1325 -2.7289  1.5897
13118TIP3    H260770   4.004   5.929  15.780  0.3584  0.2231 -1.2972
13119TIP3   OH260771   2.221   4.238  15.257 -0.1852 -0.0888  0.2701
13119TIP3    H160772   2.242   4.287  15.336  1.9573 -0.0212 -0.2575
13119TIP3    H260773   2.260   4.290  15.186 -0.6457 -0.9496 -0.6369
13120TIP3   OH260774   2.112   1.137  16.369 -0.6007 -0.0314  0.2470
13120TIP3    H160775   2.093   1.138  16.275  1.8610 -0.9318 -0.3192
13120TIP3    H260776   2.062   1.210  16.404 -4.0014 -1.4255 -1.2042
13121TIP3   OH260777   3.326   6.381   1.848  0.3929  0.4579  0.1317
13121TIP3    H160778   3.316   6.382   1.944 -0.2307 -1.1266  0.1134
13121TIP3    H260779   3.398   6.441   1.831  0.0637  1.2916  1.5444
13122TIP3   OH260780   1.119   4.020   0.241  0.3342  0.3958 -0.0142
13122TIP3    H160781   1.094   4.100   0.288 -1.9698 -1.1336  1.6212
13122TIP3    H260782   1.080   4.030   0.154  2.7406  2.2993 -0.9966
13123TIP3   OH260783   2.926   3.436   1.308 -0.4276 -0.2355 -0.4326
13123TIP3    H160784   2.998   3.413   1.367 -0.0169 -1.0461 -1.2368
13123TIP3    H260785   2.897   3.522   1.339  1.9912  0.9050 -1.1142
13124TIP3   OH260786   2.110   1.089   3.208  0.1605 -0.1689 -0.4442
13124TIP3    H160787   2.132   1.172   3.251 -0.5022 -0.1073 -0.2088
13124TIP3    H260788   2.039   1.111   3.148  1.0714 -0.2622 -1.5724
13125TIP3   OH260789   1.394   6.143   2.965  0.5092 -0.3877  0.1985
13125TIP3    H160790   1.450   6.065   2.961 -1.0576 -1.5645  0.4784
13125TIP3    H260791   1.332   6.132   2.893 -0.6550 -0.1622  1.1403
13126TIP3   OH260792   6.758   1.299   1.805  0.1751  0.7056  0.1508
13126TIP3    H160793   6.811   1.219   1.808 -0.9988 -0.0664  1.3301
13126TIP3    H260794   6.739   1.319   1.897 -2.3159  0.4272 -0.2398
13127TIP3   OH260795   3.223   0.747  11.866 -0.4265 -0.3220  0.2859
13127TIP3    H160796   3.283   0.696  11.812 -1.9166 -3.3418  1.2489
13127TIP3    H260797   3.140   0.743  11.820 -0.7355  0.7564  0.7225
13128TIP3   OH260798   4.216   2.262   1.528 -0.1367 -0.1966  0.0326
13128TIP3    H160799   4.311   2.250   1.534 -0.0987 -0.0400 -0.2145
13128TIP3    H260800   4.183   2.181   1.490 -0.2114 -0.6157  0.9498
13129TIP3   OH260801   0.696   0.445  13.615  0.2833  0.3467 -0.1563
13129TIP3    H160802   0.792   0.441  13.616  0.3443  1.1294 -1.1917
13129TIP3    H260803   0.674   0.472  13.526 -0.9795 -1.2920 -0.3951
13130TIP3   OH260804   2.495   4.808   1.790  0.0125 -0.9672 -0.2219
13130TIP3    H160805   2.410   4.764   1.795 -1.3443  1.4634 -0.0188
13130TIP3    H260806   2.475   4.900   1.811  2.3792  0.0669 -2.0433
13131TIP3   OH260807   3.264   4.698   3.040  0.3001 -0.1949 -0.0664
13131TIP3    H160808   3.211   4.735   3.110 -0.2286 -2.3871  0.7635
13131TIP3    H260809   3.313   4.773   3.005 -1.8908  1.5545  0.3899
13132TIP3   OH260810   4.067   4.298  13.679  0.4871 -0.5462 -0.1604
13132TIP3    H160811   4.059   4.203  13.672  0.9880 -0.8206  2.0844
13132TIP3    H260812   4.161   4.314  13.682  0.4805 -0.4040  2.7339
13133TIP3   OH260813   2.868   0.780   4.854  0.3248 -0.0065 -0.2221
13133TIP3    H160814   2.944   0.730   4.821  0.6861  1.2823 -1.4188
13133TIP3    H260815   2.903   0.866   4.875 -1.1733  1.4633 -3.1408
13134TIP3   OH260816   3.853   3.835   5.416 -0.6331 -0.1818 -0.1745
13134TIP3    H160817   3.923   3.824   5.480  1.7617 -0.4143 -2.6030
13134TIP3    H260818   3.791   3.895   5.457  0.4572 -0.7549  2.4968
13135TIP3   OH260819   6.323   2.067   2.819 -0.2824  0.2157  0.0796
13135TIP3    H160820   6.407   2.111   2.812 -0.4888  0.5808 -0.1145
13135TIP3    H260821   6.265   2.114   2.759 -1.2598  1.4665  1.9137
13136TIP3   OH260822   2.494   3.652  13.933  0.0984  0.0519 -0.6118
13136TIP3    H160823   2.501   3.744  13.907  0.3284  0.1601 -0.1848
13136TIP3    H260824   2.585   3.626  13.951 -0.2431  0.8684  3.0627
13137TIP3   OH260825   2.951   3.237  11.086  0.4880 -0.3073 -0.1183
13137TIP3    H160826   2.880   3.291  11.050 -0.0411  0.2141  1.6324
13137TIP3    H260827   2.939   3.152  11.043 -0.6851  0.0123 -0.4855
13138TIP3   OH260828   1.208   3.292   4.067  0.2244 -0.1853 -0.1781
13138TIP3    H160829   1.277   3.239   4.107 -1.0978 -1.3001  0.7340
13138TIP3    H260830   1.218   3.277   3.973  1.3581 -0.1224 -0.0857
13139TIP3   OH260831   5.321   3.676   0.170 -0.3133 -0.6795  0.0996
13139TIP3    H160832   5.323   3.695   0.264  1.0697 -0.6253  0.0804
13139TIP3    H260833   5.323   3.581   0.165 -0.0269 -0.6751  0.1232
13140TIP3   OH260834   2.065   1.327  10.983  0.3062  0.3875  0.6345
13140TIP3    H160835   2.143   1.309  10.930  0.5212 -0.0149  1.0809
13140TIP3    H260836   1.992   1.291  10.932  0.6455 -1.1324  1.1705
13141TIP3   OH260837   4.900   4.649   5.554 -0.0705  0.6218  0.3802
13141TIP3    H160838   4.933   4.563   5.579  1.5424  1.0933 -0.0146
13141TIP3    H260839   4.881   4.642   5.461 -1.3822  0.2894  0.6481
13142TIP3   OH260840   1.721   1.597   0.475 -0.6833 -0.1034 -0.3731
13142TIP3    H160841   1.636   1.625   0.509  0.0470  1.2340  0.4496
13142TIP3    H260842   1.701   1.520   0.423 -2.2218 -0.6588  0.9258
13143TIP3   OH260843   4.217   0.583  15.871  0.1631 -0.1563 -0.7851
13143TIP3    H160844   4.125   0.611  15.864  0.1019  0.1230  0.7191
13143TIP3    H260845   4.212   0.488  15.879 -0.1927 -0.0273  1.2165
13144TIP3   OH260846   0.670   1.166   5.487  0.0011  0.0540 -0.4848
13144TIP3    H160847   0.605   1.157   5.556  1.0420  1.4170  0.7408
13144TIP3    H260848   0.669   1.259   5.464  1.9904  0.2636  0.0977
13145TIP3   OH260849   6.350   1.396  13.306 -0.3617 -0.4406 -0.4211
13145TIP3    H160850   6.385   1.321  13.354  0.1761 -0.4820 -0.8668
13145TIP3    H260851   6.340   1.364  13.216 -0.8117 -0.1905 -0.4627
13146TIP3   OH260852   6.342   1.630  12.588  0.1405  0.0448 -0.1488
13146TIP3    H160853   6.359   1.582  12.507 -2.6348 -0.1560 -0.7123
13146TIP3    H260854   6.310   1.715  12.560 -0.2104  0.2247  0.7544
13147TIP3   OH260855   6.641   4.106  11.702  0.4100  0.1902  0.8943
13147TIP3    H160856   6.695   4.125  11.625 -0.3561  0.8896  0.5201
13147TIP3    H260857   6.687   4.033  11.745 -0.0476 -1.4081 -1.1477
13148TIP3   OH260858   0.092   0.516   4.877  0.3437 -0.1735  0.3973
13148TIP3    H160859   0.094   0.478   4.790 -0.2943  0.0592  0.2768
13148TIP3    H260860   0.113   0.609   4.864 -1.8941  0.3446  0.2035
13149TIP3   OH260861   6.295   5.530   0.049  0.4970 -0.2466 -0.2406
13149TIP3    H160862   6.309   5.436   0.060  1.5857  0.0216  0.7614
13149TIP3    H260863   6.200   5.541   0.058  0.2726 -1.3128 -1.0434
13150TIP3   OH260864   0.626   2.665   3.447 -0.3651  0.2521  0.5065
13150TIP3    H160865   0.536   2.632   3.441 -0.3780  0.2889  0.4945
13150TIP3    H260866   0.621   2.754   3.412 -0.1377 -0.0753 -0.3745
13151TIP3   OH260867   4.120   2.211   5.176 -0.2579 -0.1183  0.3267
13151TIP3    H160868   4.033   2.238   5.208 -0.0058 -0.2329  1.1325
13151TIP3    H260869   4.101   2.146   5.109 -0.8219  0.6391 -0.2831
13152TIP3   OH260870   4.510   0.192   1.160  0.8407  0.6195 -0.5494
13152TIP3    H160871   4.513   0.187   1.064  0.2430  0.1788 -0.5476
13152TIP3    H260872   4.602   0.207   1.185  1.0093  0.6967 -1.1851
13153TIP3   OH260873   3.118   1.333  11.228 -0.4075 -0.0452  0.4264
13153TIP3    H160874   3.185   1.274  11.263 -0.2397  0.0467  0.2655
13153TIP3    H260875   3.152   1.359  11.142 -1.7099 -1.8204 -0.6887
13154TIP3   OH260876   4.108   3.337  13.716 -0.1368  0.0014 -0.2145
13154TIP3    H160877   4.159   3.294  13.785 -1.4051 -0.6088  0.3652
13154TIP3    H260878   4.174   3.377  13.659  1.0425 -1.8038 -0.1788
13155TIP3   OH260879   2.638   0.250  13.319  0.4377 -0.0922  0.1184
13155TIP3    H160880   2.568   0.216  13.375  0.2737  0.2961  0.1534
13155TIP3    H260881   2.630   0.345  13.326  1.0549 -0.0414  0.2305
13156TIP3   OH260882   1.217   2.072   5.648  0.2407 -0.0982 -0.3018
13156TIP3    H160883   1.288   2.024   5.692 -1.2977 -1.4642  0.8314
13156TIP3    H260884   1.244   2.074   5.556  1.6601 -0.7327  0.0601
13157TIP3   OH260885   2.373   5.053  11.162 -0.4300 -0.5896  0.1031
13157TIP3    H160886   2.321   5.132  11.150  0.1303 -0.4406 -1.7635
13157TIP3    H260887   2.322   4.984  11.120  0.3646 -0.6387 -0.8180
13158TIP3   OH260888   3.144   1.449  13.632 -0.6927  0.5807  0.0617
13158TIP3    H160889   3.087   1.524  13.617  1.4711  1.9533 -2.0396
13158TIP3    H260890   3.115   1.413  13.716 -3.1220  2.4999  0.1534
13159TIP3   OH260891   1.242   2.546   6.257 -0.0368 -0.0795  0.0400
13159TIP3    H160892   1.282   2.618   6.306 -0.7334  0.8721 -0.7412
13159TIP3    H260893   1.315   2.490   6.232  0.5810  0.6350  0.2275
13160TIP3   OH260894   5.597   5.301  13.639 -0.5157  0.4912 -0.0464
13160TIP3    H160895   5.678   5.329  13.595  0.6002  0.0977  1.6225
13160TIP3    H260896   5.585   5.210  13.613  0.8863 -0.1586  1.4141
13161TIP3   OH260897   3.402   5.072  13.052 -0.4111 -0.1343  0.2757
13161TIP3    H160898   3.317   5.108  13.076 -0.2628  0.4278 -0.0328
13161TIP3    H260899   3.459   5.148  13.041  0.4427 -0.5493  1.5934
13162TIP3   OH260900   0.541   5.560  13.934  0.7636 -0.6645  0.0167
13162TIP3    H160901   0.606   5.490  13.938  0.8825 -0.6075 -0.7848
13162TIP3    H260902   0.466   5.521  13.889  1.6515  0.3131 -2.5022
13163TIP3   OH260903   6.610   4.479   6.419 -0.1886  0.0033 -0.4337
13163TIP3    H160904   6.570   4.543   6.478 -0.5930  1.0909 -1.8366
13163TIP3    H260905   6.687   4.524   6.383  0.0786 -0.6546 -0.7072
13164TIP3   OH260906   5.950   3.398  12.517 -0.1244 -0.5406  0.1759
13164TIP3    H160907   5.881   3.334  12.500  1.7695 -2.5942 -0.2679
13164TIP3    H260908   5.906   3.470  12.563 -2.3292 -2.2110  0.8297
13165TIP3   OH260909   0.914   2.840   6.737  0.5567  0.2988  0.7446
13165TIP3    H160910   0.882   2.926   6.709  1.5488 -0.1956 -2.2479
13165TIP3    H260911   0.837   2.798   6.776 -0.3635  1.9278  0.8098
13166TIP3   OH260912   3.818   2.553  12.013 -0.1142  0.0129 -0.6292
13166TIP3    H160913   3.817   2.482  12.077  0.5765 -2.3641 -3.0594
13166TIP3    H260914   3.838   2.631  12.064 -0.2707 -1.6051  2.1086
13167TIP3   OH260915   0.620   0.883  13.862  0.2387 -0.8634  0.5170
13167TIP3    H160916   0.649   0.855  13.948 -0.1598 -2.7416  0.0800
13167TIP3    H260917   0.643   0.811  13.804 -0.6350 -0.1844 -0.7284
13168TIP3   OH260918   3.022   2.900   4.111  0.1730 -0.2823  0.2109
13168TIP3    H160919   3.011   2.830   4.047 -0.8027 -0.0991  0.1535
13168TIP3    H260920   3.090   2.869   4.171  0.4206 -0.8609 -0.3681
13169TIP3   OH260921   5.911   6.226  13.570 -0.2797 -0.5732 -0.7202
13169TIP3    H160922   5.826   6.255  13.536  0.6975  1.1418 -1.8743
13169TIP3    H260923   5.937   6.155  13.512  0.7255  1.4105 -2.8829
13170TIP3   OH260924   0.876   2.190   1.547 -0.5660  0.1478  0.5717
13170TIP3    H160925   0.834   2.215   1.465 -1.2008 -2.0921  0.1549
13170TIP3    H260926   0.900   2.098   1.535 -0.3343 -0.1249  2.7583
13171TIP3   OH260927   6.100   1.452   4.272 -0.2975 -0.1627 -0.0516
13171TIP3    H160928   6.062   1.458   4.185 -2.7492  0.0917  0.9572
13171TIP3    H260929   6.107   1.358   4.289 -1.3299 -0.2264  0.0683
13172TIP3   OH260930   1.811   4.221  10.902  0.3912  0.1965 -0.0219
13172TIP3    H160931   1.817   4.126  10.887 -1.3245 -0.0156  0.3770
13172TIP3    H260932   1.827   4.260  10.817 -1.5001 -0.6121 -0.8127
13173TIP3   OH260933   0.436   3.032   1.851  0.5033 -0.0107 -0.4870
13173TIP3    H160934   0.444   3.091   1.926  0.3939 -1.2911  0.5792
13173TIP3    H260935   0.365   3.069   1.799 -0.3498  0.1871  0.7645
13174TIP3   OH260936   2.503   2.940  13.994  0.0787  0.4386 -0.2349
13174TIP3    H160937   2.544   2.968  13.912 -0.1477 -1.8658 -1.2275
13174TIP3    H260938   2.557   2.867  14.024 -0.2506  0.7919  1.3344
13175TIP3   OH260939   3.513   5.398  15.580  0.0235 -0.3210 -0.2864
13175TIP3    H160940   3.528   5.338  15.507  1.2141  1.1648 -1.3478
13175TIP3    H260941   3.481   5.343  15.651 -0.3167 -1.9570 -1.6560
13176TIP3   OH260942   1.641   3.545  11.934  0.1808 -0.1046 -0.6593
13176TIP3    H160943   1.555   3.584  11.950 -0.4052 -0.9467 -1.6111
13176TIP3    H260944   1.679   3.535  12.022  0.4765  2.7404 -0.3808
13177TIP3   OH260945   6.718   0.853   0.908  0.5031  0.5178  0.2049
13177TIP3    H160946   6.674   0.895   0.982  1.3305  0.2173  0.8828
13177TIP3    H260947   6.719   0.760   0.930 -0.5672  0.2184 -0.8987
13178TIP3   OH260948   3.079   1.732  14.638 -0.5092  0.2687 -0.2474
13178TIP3    H160949   3.029   1.670  14.585  0.1198  0.2404 -0.8113
13178TIP3    H260950   3.014   1.767  14.700 -0.9250 -0.7640 -0.0750
13179TIP3   OH260951   3.189   1.589  16.181 -0.0507 -0.3865 -0.1533
13179TIP3    H160952   3.130   1.558  16.113  0.4004  0.7207 -1.0680
13179TIP3    H260953   3.232   1.666  16.144  1.2952 -0.6153  0.8238
13180TIP3   OH260954   5.127   2.743   0.973  0.1090 -0.3489 -0.3479
13180TIP3    H160955   5.089   2.683   1.039 -0.8897  1.7266  1.0672
13180TIP3    H260956   5.145   2.686   0.898 -2.7848 -2.1152  0.1025
13181TIP3   OH260957   2.455   2.002  13.576 -0.6037  0.2409 -0.1626
13181TIP3    H160958   2.507   1.927  13.605 -1.0225  0.6823  1.9166
13181TIP3    H260959   2.387   1.964  13.521 -1.5959 -1.1500  1.8860
13182TIP3   OH260960   0.479   5.277  16.447  0.0406  0.0346 -0.2195
13182TIP3    H160961   0.417   5.343  16.415 -1.0272 -1.5405 -1.5655
13182TIP3    H260962   0.425   5.215  16.496  0.9081 -0.2295  0.4328
13183TIP3   OH260963   3.837   0.746  14.281 -0.3867 -0.3200 -0.4979
13183TIP3    H160964   3.912   0.798  14.251 -0.4597  0.4979  0.6550
13183TIP3    H260965   3.872   0.658  14.290  0.7859  0.2387  1.0483
13184TIP3   OH260966   5.237   5.578   2.040 -0.0340 -0.0287  0.2892
13184TIP3    H160967   5.188   5.540   1.967 -1.7034 -0.6193  1.6687
13184TIP3    H260968   5.267   5.502   2.091  1.0826  0.3785  0.2754
13185TIP3   OH260969   5.368   3.942  14.035  0.0883  0.9066 -0.2629
13185TIP3    H160970   5.426   4.019  14.027 -1.3290  1.8770 -1.8661
13185TIP3    H260971   5.321   3.956  14.117  0.5709  1.2180 -0.0310
13186TIP3   OH260972   2.697   1.858   5.099 -0.1326 -0.0157  0.4458
13186TIP3    H160973   2.769   1.877   5.040 -0.1866  0.9124  0.6674
13186TIP3    H260974   2.621   1.900   5.059 -0.1233  0.8343  1.2881
13187TIP3   OH260975   0.072   2.591   5.673  0.2002 -0.8939  0.1998
13187TIP3    H160976   0.117   2.513   5.706 -0.8571 -1.5080  0.2421
13187TIP3    H260977   0.117   2.664   5.716  0.3108 -1.5589  1.2630
13188TIP3   OH260978   3.252   0.735  16.092  0.1691 -0.3928  0.2581
13188TIP3    H160979   3.295   0.657  16.057 -1.4267 -1.6823  1.0507
13188TIP3    H260980   3.161   0.728  16.062  0.0446  1.3144  0.1277
13189TIP3   OH260981   6.280   6.666  15.180  0.3725 -0.6579 -0.8172
13189TIP3    H160982   6.247   6.753  15.160  0.7508 -0.0088  1.1712
13189TIP3    H260983   6.214   6.606  15.145 -0.5734  0.4600 -0.9781
13190TIP3   OH260984   6.015   0.321  14.411 -0.0686  0.1260  0.6145
13190TIP3    H160985   6.087   0.265  14.381 -0.0823  0.8613 -0.8830
13190TIP3    H260986   5.956   0.262  14.457  1.3915 -0.5306  1.7466
13191TIP3   OH260987   2.292   1.518  15.653 -0.0648  0.0260 -0.2718
13191TIP3    H160988   2.334   1.537  15.569  2.4217  1.1675  1.1100
13191TIP3    H260989   2.236   1.593  15.670  0.0421  0.1705 -0.5612
13192TIP3   OH260990   2.409   2.192   6.329 -0.5164  0.3165 -0.5811
13192TIP3    H160991   2.359   2.270   6.306  0.4028  1.5108  1.2910
13192TIP3    H260992   2.500   2.218   6.321 -0.1817 -0.6994 -0.2994
13193TIP3   OH260993   0.077   6.001  14.672 -0.5822  0.0256  0.0248
13193TIP3    H160994   0.075   6.008  14.577 -0.3207 -0.8370 -0.0573
13193TIP3    H260995   0.105   6.087  14.703 -0.5653  0.2757 -0.6837
13194TIP3   OH260996   5.731   2.672   5.924 -0.4028 -0.0345  0.1621
13194TIP3    H160997   5.807   2.721   5.955 -0.9377 -0.6350  2.7080
13194TIP3    H260998   5.710   2.711   5.839  0.4719  2.7216  1.0927
13195TIP3   OH260999   1.168   5.698  15.232  0.1951 -0.2162  0.4281
13195TIP3    H161000   1.195   5.652  15.152 -2.6471 -0.8609 -0.2716
13195TIP3    H261001   1.182   5.790  15.212 -1.1117 -0.3150 -1.1496
13196TIP3   OH261002   2.377   6.619  15.205 -0.3474 -0.0529 -0.3223
13196TIP3    H161003   2.432   6.631  15.282 -2.3879  3.6171  0.8314
13196TIP3    H261004   2.313   6.553  15.231  1.1462 -1.5741 -0.3320
13197TIP3   OH261005   0.071   5.950   1.686  0.5091  0.2655 -0.7617
13197TIP3    H161006   0.108   6.037   1.704  0.3687  0.2254 -0.2705
13197TIP3    H261007   0.058   5.911   1.773  0.0143 -0.0127 -0.9613
13198TIP3   OH261008   1.847   0.031   0.129  0.1711  0.0687 -0.3244
13198TIP3    H161009   1.785   0.082   0.078  0.6565 -2.0879 -3.3602
13198TIP3    H261010   1.933   0.066   0.104  0.3772 -0.5236 -0.4775
13199TIP3   OH261011   3.128   1.654   0.609 -0.6607  0.9273  0.1860
13199TIP3    H161012   3.044   1.700   0.606 -1.2407 -0.1120 -1.8161
13199TIP3    H261013   3.178   1.691   0.536 -0.6131 -0.5896 -0.6015
13200TIP3   OH261014   4.049   3.014   5.535 -0.4487  0.1971  0.5537
13200TIP3    H161015   4.138   2.994   5.508 -0.5639  1.4269 -0.8275
13200TIP3    H261016   3.994   2.985   5.462 -0.9940  1.3078  0.5091
13201TIP3   OH261017   5.994   1.938  14.670 -0.4382 -0.2738  0.5310
13201TIP3    H161018   6.006   1.914  14.578  1.0520  0.1458  0.5994
13201TIP3    H261019   6.080   1.967  14.699 -1.0356  0.2078  1.8955
13202TIP3   OH261020   3.665   4.459  11.288  0.0322  0.1192  0.5596
13202TIP3    H161021   3.698   4.458  11.198  0.6762  2.6166  0.7056
13202TIP3    H261022   3.630   4.371  11.301  0.9852 -0.6815 -1.7241
13203TIP3   OH261023   4.331   4.033  17.313  0.4634  0.0822 -0.7430
13203TIP3    H161024   4.389   3.960  17.293 -1.1304 -1.4096 -0.2022
13203TIP3    H261025   4.319   4.078  17.229  0.2268 -1.2468 -1.4537
13204TIP3   OH261026   0.734   1.690   1.409  0.6600  0.0088  0.6611
13204TIP3    H161027   0.744   1.632   1.485  0.2990 -1.0118 -0.0488
13204TIP3    H261028   0.659   1.654   1.361  0.0050  1.4720  0.5448
13205TIP3   OH261029   2.492   2.720   6.005  0.2595 -0.0520  0.0494
13205TIP3    H161030   2.473   2.743   6.096  0.9807 -1.2530  0.5237
13205TIP3    H261031   2.527   2.631   6.010  1.9182  0.4845 -1.2288
13206TIP3   OH261032   4.944   6.115   0.776 -0.3981  0.0193 -0.5550
13206TIP3    H161033   4.994   6.170   0.716  1.4345 -0.1315  0.7546
13206TIP3    H261034   4.977   6.026   0.761  0.0890 -0.0237  0.6280
13207TIP3   OH261035   1.418   1.604   3.712  0.4576  0.3074 -0.1883
13207TIP3    H161036   1.496   1.657   3.725 -1.0244  3.0827 -1.7389
13207TIP3    H261037   1.373   1.606   3.797  0.8276  0.8963 -0.0011
13208TIP3   OH261038   3.970   4.225  12.085  0.4219  0.2875  0.1484
13208TIP3    H161039   4.056   4.266  12.086  0.0521  1.1084 -0.3332
13208TIP3    H261040   3.910   4.296  12.060 -0.2325 -0.5803 -0.8208
13209TIP3   OH261041   2.629   4.892   1.087  0.2297 -0.1353 -0.4011
13209TIP3    H161042   2.640   4.808   1.043  0.7832 -0.1956 -0.1613
13209TIP3    H261043   2.687   4.952   1.040  2.0463 -0.5552  1.1585
13210TIP3   OH261044   2.988   5.039   5.921 -0.8759 -0.0935 -0.4295
13210TIP3    H161045   3.024   5.097   5.988 -0.2646 -2.6590  1.6048
13210TIP3    H261046   2.930   5.095   5.869 -0.8593  2.1568  1.8113
13211TIP3   OH261047   4.227   1.695  14.764  0.0985  0.4118  0.4145
13211TIP3    H161048   4.136   1.702  14.794 -0.4735 -0.2416 -1.0536
13211TIP3    H261049   4.255   1.785  14.750 -0.3330  0.6190  0.8456
13212TIP3   OH261050   5.047   0.780   1.004 -0.2172  0.3345 -0.1841
13212TIP3    H161051   4.995   0.761   1.083 -0.0924  0.1189 -0.1526
13212TIP3    H261052   5.087   0.696   0.981 -1.9852 -0.1477 -1.7559
13213TIP3   OH261053   1.573   5.076  12.034  0.2529  0.0313 -0.2961
13213TIP3    H161054   1.665   5.053  12.019  0.4143  0.7693 -0.5009
13213TIP3    H261055   1.530   5.059  11.951  0.4021  0.5732 -0.4937
13214TIP3   OH261056   3.584   2.995  11.566 -0.5079  0.4690 -0.1990
13214TIP3    H161057   3.531   2.955  11.634 -2.0536 -0.2803 -1.7620
13214TIP3    H261058   3.540   3.078  11.546  0.0949  0.8188 -0.0924
13215TIP3   OH261059   2.202   0.372   3.484  0.3014  0.0344  0.3480
13215TIP3    H161060   2.118   0.384   3.527  0.2295  0.1460  0.1755
13215TIP3    H261061   2.245   0.302   3.534 -0.2638 -0.6571 -0.1186
13216TIP3   OH261062   1.190   1.008  13.841 -0.6048 -0.0868  0.6131
13216TIP3    H161063   1.276   1.048  13.857  0.1792 -2.2959  2.4121
13216TIP3    H261064   1.133   1.045  13.908 -0.6858  0.2160  0.3842
13217TIP3   OH261065   5.475   2.077   2.667 -0.0037  0.1841 -0.1105
13217TIP3    H161066   5.451   2.012   2.733  0.2441  0.0261 -0.1725
13217TIP3    H261067   5.431   2.048   2.587 -0.4042  0.4452  0.0180
13218TIP3   OH261068   3.257   1.029  11.767  0.0924 -0.3169  0.6301
13218TIP3    H161069   3.231   0.966  11.701 -1.0005  1.4145 -0.6738
13218TIP3    H261070   3.311   0.979  11.828 -2.3977 -3.0036  0.8448
13219TIP3   OH261071   2.593   1.300  10.845 -0.0002 -0.4257  0.2257
13219TIP3    H161072   2.613   1.221  10.794 -0.6512  0.3392 -1.2755
13219TIP3    H261073   2.498   1.309  10.841 -0.1177 -0.5464  1.9493
13220TIP3   OH261074   2.958   0.463   1.603  0.2449 -0.1226  0.2640
13220TIP3    H161075   2.879   0.514   1.590 -1.9043 -2.8620  1.5790
13220TIP3    H261076   2.971   0.416   1.521 -0.1357 -0.4604  0.3932
13221TIP3   OH261077   3.558   0.801  13.871  0.2726 -0.0241 -0.1663
13221TIP3    H161078   3.589   0.817  13.960 -0.3378  0.5379 -0.0515
13221TIP3    H261079   3.619   0.850  13.815 -0.4979  1.2405  0.0710
13222TIP3   OH261080   4.925   5.394   4.076  0.2169  0.3303  0.2952
13222TIP3    H161081   4.921   5.298   4.081  0.0857  0.3038 -0.2003
13222TIP3    H261082   4.918   5.423   4.166  0.2756 -0.1322  0.4527
13223TIP3   OH261083   2.442   2.159  16.121  0.0489  0.2637 -0.2956
13223TIP3    H161084   2.389   2.102  16.065 -0.2605 -0.2658  0.5029
13223TIP3    H261085   2.509   2.100  16.158 -0.1044  0.4687  0.3254
13224TIP3   OH261086   5.210   4.695  14.722 -0.0994 -0.3458 -0.0162
13224TIP3    H161087   5.151   4.648  14.663 -0.5244  1.0576 -0.7372
13224TIP3    H261088   5.297   4.666  14.697 -0.3619 -4.3940  2.6627
13225TIP3   OH261089   2.843   2.606  13.367  0.8325  0.2281 -0.3018
13225TIP3    H161090   2.855   2.648  13.282  0.5017 -0.5843 -0.7527
13225TIP3    H261091   2.897   2.527  13.364 -0.9264 -1.0186 -0.6333
13226TIP3   OH261092   2.233   4.552   2.698 -0.4821  0.7181  0.2229
13226TIP3    H161093   2.266   4.507   2.620 -0.1469 -0.0865  0.8144
13226TIP3    H261094   2.199   4.481   2.754  0.5771  1.1202  1.4209
13227TIP3   OH261095   4.445   4.584  16.493  0.0777 -0.2376 -0.0110
13227TIP3    H161096   4.350   4.590  16.502 -0.6705 -1.0638 -4.6463
13227TIP3    H261097   4.478   4.671  16.517 -1.9689  0.4236  0.5607
13228TIP3   OH261098   6.254   1.588   5.791  0.3542 -0.3965 -0.0471
13228TIP3    H161099   6.183   1.586   5.727 -0.3911 -2.3898  0.7689
13228TIP3    H261100   6.317   1.524   5.759  1.1606  0.3689 -0.0366
13229TIP3   OH261101   3.904   5.419   1.702 -0.0500  0.2568 -0.0003
13229TIP3    H161102   3.881   5.358   1.633 -2.9938 -0.4077  1.4186
13229TIP3    H261103   3.940   5.364   1.772  3.3075  0.9639 -0.9747
13230TIP3   OH261104   0.288   5.721   2.518 -0.4270  0.2548 -0.1759
13230TIP3    H161105   0.283   5.749   2.426 -0.1037 -0.5350 -0.4398
13230TIP3    H261106   0.365   5.767   2.552 -0.2887  0.2119 -0.4244
13231TIP3   OH261107   2.016   1.428   5.269  0.2444  0.0691  0.4602
13231TIP3    H161108   2.010   1.360   5.336  1.7015 -1.3287 -0.7613
13231TIP3    H261109   1.957   1.399   5.200  0.9222 -0.0082 -0.0956
13232TIP3   OH261110   3.656   6.334  14.333  0.0529  0.1984 -0.0330
13232TIP3    H161111   3.582   6.339  14.272  0.0772 -0.3416 -0.1106
13232TIP3    H261112   3.734   6.333  14.276  0.1596  1.3468  0.0639
13233TIP3   OH261113   1.883   0.702  16.384  0.1603 -0.4658 -0.2258
13233TIP3    H161114   1.837   0.680  16.465  1.2342 -1.2100  0.2106
13233TIP3    H261115   1.960   0.751  16.413  0.3949 -0.4717 -0.8170
13234TIP3   OH261116   2.406   2.681  13.698  0.4593 -0.3315 -0.3135
13234TIP3    H161117   2.320   2.721  13.710  0.8613  0.1031  1.3478
13234TIP3    H261118   2.462   2.753  13.669  0.6866 -0.1543  0.5319
13235TIP3   OH261119   3.313   3.612  15.458 -0.7136 -0.3218 -0.1481
13235TIP3    H161120   3.319   3.547  15.529 -1.1635  1.3709  1.5088
13235TIP3    H261121   3.396   3.604  15.411 -0.0447 -0.9144  1.0958
13236TIP3   OH261122   6.653   1.632   2.679  0.2493 -0.5909 -0.0215
13236TIP3    H161123   6.626   1.724   2.684 -0.4729 -0.8376  1.0501
13236TIP3    H261124   6.590   1.591   2.620  0.4501 -0.4452 -0.3392
13237TIP3   OH261125   0.684   0.635  14.602  0.2555  0.3764 -0.2787
13237TIP3    H161126   0.719   0.719  14.633 -0.1422  0.6115 -0.4605
13237TIP3    H261127   0.742   0.610  14.530  1.8010 -0.6656  1.2394
13238TIP3   OH261128   6.471   1.324   3.227 -0.3706  0.4310 -0.0015
13238TIP3    H161129   6.407   1.256   3.246  0.3370 -0.4329 -0.6118
13238TIP3    H261130   6.478   1.374   3.309 -2.0912  0.7978 -0.0498
13239TIP3   OH261131   5.091   0.368  12.923  0.0593 -0.3237  0.6164
13239TIP3    H161132   5.094   0.460  12.897  0.8702 -0.3848  0.4550
13239TIP3    H261133   5.172   0.354  12.971  0.2985 -1.1326 -0.0016
13240TIP3   OH261134   5.809   2.229   0.982  0.2339 -0.0159  0.0201
13240TIP3    H161135   5.785   2.318   1.007  0.5767 -0.3355  1.6027
13240TIP3    H261136   5.862   2.197   1.055  1.1870 -1.0852 -1.0967
13241TIP3   OH261137   0.300   2.286   5.428 -0.1344 -0.0836  0.3410
13241TIP3    H161138   0.241   2.267   5.355 -0.6619 -0.2816  0.8148
13241TIP3    H261139   0.335   2.201   5.454 -1.0146 -0.1932  1.2111
13242TIP3   OH261140   1.035   0.286  13.333 -0.7792  0.3125 -0.1452
13242TIP3    H161141   0.959   0.248  13.289 -0.1547  0.3851 -1.3357
13242TIP3    H261142   1.108   0.230  13.307 -0.5520 -0.3908  1.8356
13243TIP3   OH261143   5.952   5.622  15.736  0.2077 -0.1628  0.3548
13243TIP3    H161144   6.031   5.614  15.790 -1.2174 -0.8780  2.4628
13243TIP3    H261145   5.953   5.545  15.680  1.9621  0.8280 -1.0737
13244TIP3   OH261146   3.049   6.488  13.860  0.7277  0.0703  0.2348
13244TIP3    H161147   3.067   6.394  13.850  2.3811  0.5411 -1.8942
13244TIP3    H261148   3.112   6.518  13.926 -0.1026 -0.3670  1.2491
13245TIP3   OH261149   6.039   1.274   3.685  0.2353 -0.1412 -0.1433
13245TIP3    H161150   6.097   1.289   3.760  0.7869 -0.1577 -0.5522
13245TIP3    H261151   5.951   1.274   3.721  0.4677  0.2902  0.4346
13246TIP3   OH261152   5.001   4.345  14.647 -0.7134 -0.0817 -0.0601
13246TIP3    H161153   4.961   4.290  14.714 -1.9210 -0.3218 -0.9458
13246TIP3    H261154   4.930   4.402  14.617 -0.0628  0.3756 -0.7667
13247TIP3   OH261155   0.697   5.202  11.448 -0.2178 -0.4181 -0.6421
13247TIP3    H161156   0.679   5.108  11.460 -0.8519 -0.5081 -2.0108
13247TIP3    H261157   0.619   5.235  11.403 -0.8329  1.2061  1.4651
13248TIP3   OH261158   1.929   2.646  12.152  0.4358 -0.4806  0.2429
13248TIP3    H161159   1.887   2.642  12.238 -0.3128 -0.9178 -0.1307
13248TIP3    H261160   2.023   2.645  12.171  0.2794 -0.8853  1.0375
13249TIP3   OH261161   1.999   3.642  15.818 -0.8689 -0.1590 -0.1736
13249TIP3    H161162   2.004   3.641  15.913  0.3340  0.2610 -0.2180
13249TIP3    H261163   1.992   3.550  15.793  0.1332 -0.3661  0.2686
13250TIP3   OH261164   4.979   4.780   5.252  0.6836  0.1600 -0.8580
13250TIP3    H161165   5.020   4.694   5.262 -0.2832 -0.5828 -2.7103
13250TIP3    H261166   5.050   4.842   5.261  1.4362 -0.8354  0.3728
13251TIP3   OH261167   0.889   5.197   6.498 -0.4362 -0.3929 -0.5084
13251TIP3    H161168   0.977   5.162   6.487  0.2898  0.9901  0.6387
13251TIP3    H261169   0.901   5.291   6.505 -1.9606 -0.2178  0.1443
13252TIP3   OH261170   2.242   6.669   2.527 -0.0813 -0.4919 -0.4824
13252TIP3    H161171   2.248   6.617   2.447  1.3532  0.5651 -1.1144
13252TIP3    H261172   2.242   6.760   2.496  2.0313 -0.0164  0.7474
13253TIP3   OH261173   3.376   4.681   0.168  0.3082  0.3785  0.0711
13253TIP3    H161174   3.337   4.695   0.082  0.6127  1.0317  0.0279
13253TIP3    H261175   3.301   4.678   0.228  0.0302 -1.0273 -0.3148
13254TIP3   OH261176   5.518   3.344  16.956  0.1472 -0.1249 -0.5104
13254TIP3    H161177   5.498   3.435  16.975  1.0504  0.1917 -1.0457
13254TIP3    H261178   5.530   3.303  17.042 -2.7619 -0.3651 -0.1305
13255TIP3   OH261179   0.833   5.846   5.815  0.2897  0.2476 -0.1659
13255TIP3    H161180   0.852   5.795   5.894  0.1549 -0.5936 -0.6635
13255TIP3    H261181   0.918   5.853   5.771  0.5574  1.5331  0.5043
13256TIP3   OH261182   5.033   0.025  13.342  0.6108  0.4272 -0.3765
13256TIP3    H161183   5.012   0.107  13.388 -2.9765  0.1676 -1.2762
13256TIP3    H261184   4.987  -0.043  13.391  1.3017 -0.6599 -1.1894
13257TIP3   OH261185   4.333   6.132  14.216  0.0893  0.3110 -0.4657
13257TIP3    H161186   4.290   6.074  14.153 -0.9408  0.1115  0.3981
13257TIP3    H261187   4.417   6.089  14.234  0.2077  0.1531 -1.3704
13258TIP3   OH261188   4.047   1.279  14.171  0.0535  0.5058  0.4258
13258TIP3    H161189   4.072   1.365  14.204 -0.3353  0.1795  1.6313
13258TIP3    H261190   4.122   1.250  14.120  0.0865  1.6604 -0.2208
13259TIP3   OH261191   1.551   0.459   5.472 -0.3752  0.8818 -0.3341
13259TIP3    H161192   1.508   0.486   5.553  0.1063 -0.7644  0.5154
13259TIP3    H261193   1.545   0.536   5.415 -1.7663  1.6835  0.8252
13260TIP3   OH261194   1.225   4.490  13.429 -0.2659 -0.0626  0.4482
13260TIP3    H161195   1.217   4.570  13.378 -3.5029  0.3313  1.3495
13260TIP3    H261196   1.319   4.481  13.445  0.3668  2.5325 -1.2202
13261TIP3   OH261197   5.539   5.300  14.244  0.0575 -0.3384 -0.5318
13261TIP3    H161198   5.611   5.354  14.212 -0.2398  0.8460  0.6744
13261TIP3    H261199   5.580   5.235  14.301  0.2153  0.1048 -0.1353
13262TIP3   OH261200   1.195   6.082   2.149 -1.0848 -0.2796  0.6084
13262TIP3    H161201   1.135   6.071   2.075 -0.5672 -1.7402  0.3824
13262TIP3    H261202   1.177   6.007   2.205  1.2542 -1.3670  0.0021
13263TIP3   OH261203   0.201   6.182  13.195 -0.0743  0.4045 -0.2158
13263TIP3    H161204   0.250   6.139  13.265  1.0677 -0.1544 -1.3247
13263TIP3    H261205   0.179   6.268  13.232  1.5043  0.5753  0.4460
13264TIP3   OH261206   5.569   5.408  12.057 -0.0397  0.7149  0.2303
13264TIP3    H161207   5.594   5.485  12.108  0.5648 -0.8962  2.5322
13264TIP3    H261208   5.475   5.400  12.071 -0.1300  1.1151 -0.1400
13265TIP3   OH261209   5.779   1.275   2.226  0.2697  0.7477  0.0270
13265TIP3    H161210   5.860   1.235   2.196 -0.0753 -0.6198  0.8307
13265TIP3    H261211   5.740   1.210   2.284 -2.0760  0.7783 -1.3844
13266TIP3   OH261212   1.799   3.405   5.256  0.2323  0.5598  0.0630
13266TIP3    H161213   1.743   3.378   5.329 -0.6251  0.7186 -0.5211
13266TIP3    H261214   1.862   3.334   5.248 -1.5544 -0.9962 -0.9895
13267TIP3   OH261215   1.027   4.666   2.179  0.8169  0.5639  0.1066
13267TIP3    H161216   1.097   4.642   2.118  0.3513 -1.3467  0.2377
13267TIP3    H261217   1.043   4.610   2.255 -1.0243 -0.1958 -0.0101
13268TIP3   OH261218   4.126   5.327  16.048  0.4584  0.5580  0.3938
13268TIP3    H161219   4.055   5.386  16.076  0.0017 -0.4881  1.5023
13268TIP3    H261220   4.171   5.303  16.129  1.6057  0.5799 -0.2154
13269TIP3   OH261221   2.539   1.310   3.557 -0.4634 -0.0213 -0.3874
13269TIP3    H161222   2.593   1.233   3.542  1.6652  0.8027  2.2866
13269TIP3    H261223   2.580   1.379   3.504 -0.7384 -0.0849 -0.6866
13270TIP3   OH261224   5.152   2.753  15.614  0.3354  0.2151  0.1752
13270TIP3    H161225   5.214   2.696  15.658  0.9091  1.0975  0.5501
13270TIP3    H261226   5.102   2.795  15.685 -1.2183 -1.0221 -0.1362
13271TIP3   OH261227   5.303   3.730  17.033  0.3663  0.2747 -0.4007
13271TIP3    H161228   5.255   3.808  17.061  0.5328  0.1349  0.2950
13271TIP3    H261229   5.237   3.673  16.995 -0.1230 -0.1130  0.9569
13272TIP3   OH261230   3.046   2.812   4.455 -0.2408 -0.2642 -0.2964
13272TIP3    H161231   3.084   2.865   4.386  1.2633 -0.2329  0.5140
13272TIP3    H261232   3.121   2.771   4.498 -1.1839 -0.8229  0.8822
13273TIP3   OH261233   6.349   1.695   3.363  0.0527  0.9638  0.0664
13273TIP3    H161234   6.377   1.709   3.273 -0.6336  1.1280 -0.1298
13273TIP3    H261235   6.430   1.694   3.414  0.6279 -1.0773 -0.7930
13274TIP3   OH261236   0.251   4.034   1.214  0.2420  0.7132 -0.9881
13274TIP3    H161237   0.315   3.967   1.191 -0.3278  0.6372 -2.4187
13274TIP3    H261238   0.168   3.987   1.224 -0.2127  1.2106 -2.2467
13275TIP3   OH261239   4.098   2.415   0.217 -0.5029  0.8245  0.7782
13275TIP3    H161240   4.083   2.405   0.311 -1.2861 -3.3008  0.4104
13275TIP3    H261241   4.012   2.403   0.177  0.2630 -0.5799 -0.5518
13276TIP3   OH261242   0.526   5.150  14.670 -0.6648  0.2499 -0.1957
13276TIP3    H161243   0.590   5.192  14.727  0.2129 -0.3403 -0.7127
13276TIP3    H261244   0.491   5.221  14.616  0.5491  0.3969 -0.8271
13277TIP3   OH261245   0.134   0.569  14.524 -0.2179 -0.3708  0.6310
13277TIP3    H161246   0.191   0.584  14.448 -0.9209 -1.9395 -0.2668
13277TIP3    H261247   0.165   0.486  14.560 -2.0831 -1.4333 -0.0744
13278TIP3   OH261248   0.568   6.224  17.121  0.1069 -0.2196  0.5767
13278TIP3    H161249   0.580   6.309  17.163  2.3842  0.2014 -0.7357
13278TIP3    H261250   0.627   6.226  17.045 -0.4740 -2.6169 -0.0344
13279TIP3   OH261251   2.987   2.353  13.410  0.1196  0.2746  0.8884
13279TIP3    H161252   3.061   2.384  13.461 -0.8502  2.3655  1.1141
13279TIP3    H261253   2.917   2.340  13.475  0.0858 -1.1480  0.6131
13280TIP3   OH261254   3.361   3.710   4.750 -0.0488  0.1444  0.4000
13280TIP3    H161255   3.419   3.781   4.720  0.5247 -0.5640 -0.1946
13280TIP3    H261256   3.407   3.630   4.728 -1.4697 -0.4592 -0.5364
13281TIP3   OH261257   3.554   4.047  14.921  0.7307  0.3895 -0.3712
13281TIP3    H161258   3.608   4.092  14.986  0.6664 -0.4575  0.2840
13281TIP3    H261259   3.464   4.067  14.946  0.6927 -0.3389  0.1163
13282TIP3   OH261260   1.233   5.158   4.279  0.0446  0.4713  0.7763
13282TIP3    H161261   1.233   5.248   4.248  0.5777 -0.1939 -1.3273
13282TIP3    H261262   1.149   5.122   4.251 -0.7285  0.6054  2.7223
13283TIP3   OH261263   3.099   0.867   6.302  0.3422 -0.6446 -0.0036
13283TIP3    H161264   3.094   0.905   6.389  0.2265  0.1051 -0.3351
13283TIP3    H261265   3.110   0.773   6.318 -2.0380 -0.8362  0.8237
13284TIP3   OH261266   1.184   3.269   0.277 -0.2405 -0.1329  0.1513
13284TIP3    H161267   1.234   3.188   0.286  1.2844  0.5056 -1.7221
13284TIP3    H261268   1.094   3.244   0.295 -0.0063 -2.5655 -1.5479
13285TIP3   OH261269   2.569   3.101  13.777 -0.3817 -0.0271  0.1827
13285TIP3    H161270   2.505   3.142  13.719 -0.6413  0.4463  0.7892
13285TIP3    H261271   2.613   3.174  13.820  0.2876 -0.3573  0.0739
13286TIP3   OH261272   6.758   1.826  14.819 -0.1807  0.1651  0.7376
13286TIP3    H161273   6.762   1.754  14.882  1.6430  0.7074  1.3074
13286TIP3    H261274   6.788   1.787  14.737 -1.0574 -0.1648  0.5604
13287TIP3   OH261275   5.953   3.897   0.823 -0.2290  0.1823 -0.0321
13287TIP3    H161276   5.963   3.983   0.781 -0.9573  0.1080 -0.3692
13287TIP3    H261277   5.860   3.877   0.814 -0.1534 -0.4184  0.4955
13288TIP3   OH261278   2.683   6.258  15.887  0.2864  0.2051  0.4092
13288TIP3    H161279   2.774   6.256  15.856  0.0639  0.6142 -0.2994
13288TIP3    H261280   2.690   6.261  15.982  1.0509  1.6132  0.3258
13289TIP3   OH261281   3.422   2.077   5.088 -0.2710 -0.8130 -0.2450
13289TIP3    H161282   3.431   2.091   4.994  0.2398 -1.9051 -0.3709
13289TIP3    H261283   3.476   2.145   5.128 -0.4164 -0.4023 -0.7322
13290TIP3   OH261284   1.362   0.004   3.879  0.3946 -0.4838 -0.0589
13290TIP3    H161285   1.456  -0.002   3.898  0.7209  1.4749 -0.8273
13290TIP3    H261286   1.321   0.008   3.966  1.0898 -0.5415  0.2850
13291TIP3   OH261287   3.528   2.497   2.989 -0.2484 -0.1432 -0.5492
13291TIP3    H161288   3.465   2.552   2.942 -0.8358 -0.9725 -0.7425
13291TIP3    H261289   3.512   2.409   2.957 -0.0917 -0.6034  0.5915
13292TIP3   OH261290   4.284   6.669  14.362  0.1104  0.0849  0.4914
13292TIP3    H161291   4.216   6.626  14.414  1.4649 -1.5859  0.9595
13292TIP3    H261292   4.248   6.671  14.273 -0.6544 -0.5037  0.7756
13293TIP3   OH261293   4.774   6.234   2.549 -0.3126  0.1842  0.1592
13293TIP3    H161294   4.793   6.323   2.520 -0.3305 -0.4815 -2.0856
13293TIP3    H261295   4.857   6.202   2.584  0.5764  0.0867 -1.9099
13294TIP3   OH261296   0.961   6.746  15.998 -0.1385 -0.1522  0.1930
13294TIP3    H161297   1.031   6.746  15.933  1.0736  0.0973  1.4570
13294TIP3    H261298   0.930   6.837  15.999  1.8638  0.6066  1.9905
13295TIP3   OH261299   6.620   0.330  17.060  0.1807  0.0276 -0.1321
13295TIP3    H161300   6.668   0.345  16.979  2.7421  0.3620  1.3506
13295TIP3    H261301   6.687   0.302  17.123 -1.4221  1.3769  2.3121
13296TIP3   OH261302   4.440   4.300  15.547 -0.0927 -0.6396 -0.3473
13296TIP3    H161303   4.375   4.233  15.530 -0.7392 -0.1577  0.1589
13296TIP3    H261304   4.512   4.254  15.589  0.0919 -1.2498 -1.3078
13297TIP3   OH261305   2.460   3.426  12.844  0.4051 -0.2405 -0.0257
13297TIP3    H161306   2.465   3.494  12.778  0.7099  0.3288  0.5674
13297TIP3    H261307   2.513   3.354  12.809  0.4855  0.0148 -0.4323
13298TIP3   OH261308   4.671   3.269   6.803  0.3227 -0.0303  0.3121
13298TIP3    H161309   4.659   3.175   6.812  1.6947 -0.1434  1.2087
13298TIP3    H261310   4.754   3.287   6.846  0.3108  1.5323 -0.2569
13299TIP3   OH261311   3.248   2.674   4.594 -0.0403 -0.0237 -0.5785
13299TIP3    H161312   3.293   2.638   4.671  0.4750 -1.0569 -1.3344
13299TIP3    H261313   3.319   2.688   4.530 -0.5977 -0.2729 -1.2646
13300TIP3   OH261314   2.554   6.537   3.984 -0.6294  0.2793  0.2921
13300TIP3    H161315   2.482   6.522   4.046 -1.7884  2.5451 -0.3740
13300TIP3    H261316   2.527   6.489   3.905 -0.2024 -0.8361  0.8024
13301TIP3   OH261317   0.223   3.457   0.530  0.4384  0.0485 -1.0417
13301TIP3    H161318   0.265   3.478   0.614 -1.9037  0.7218  0.0273
13301TIP3    H261319   0.263   3.373   0.504  0.4894 -0.7054  1.2624
13302TIP3   OH261320   1.383   3.751   0.614  0.3509  0.0038 -0.4835
13302TIP3    H161321   1.322   3.784   0.549 -2.2192 -0.8728  1.3436
13302TIP3    H261322   1.457   3.719   0.562 -1.6540 -0.9024 -3.0249
13303TIP3   OH261323   3.713   6.334  16.223 -0.5575 -0.7591 -0.5008
13303TIP3    H161324   3.618   6.326  16.227 -0.9031  2.3355  0.2894
13303TIP3    H261325   3.730   6.376  16.138 -0.0138 -0.4142 -0.2309
13304TIP3   OH261326   3.752   0.985  13.416 -0.0558  0.7934 -0.2238
13304TIP3    H161327   3.767   1.078  13.435  1.0556  0.7982 -1.0187
13304TIP3    H261328   3.795   0.971  13.331  0.5633 -0.6472  0.3061
13305TIP3   OH261329   4.869   3.618   3.510 -0.6421  0.6227 -0.3827
13305TIP3    H161330   4.817   3.694   3.533 -1.2139 -0.1162  0.8882
13305TIP3    H261331   4.932   3.609   3.581 -1.3193 -0.7224  0.0914
13306TIP3   OH261332   6.006   5.440   2.497  0.6218  0.4133 -0.0025
13306TIP3    H161333   6.066   5.376   2.533  1.7911  0.7984 -1.1762
13306TIP3    H261334   6.062   5.508   2.459 -0.4880  0.1976 -2.2148
13307TIP3   OH261335   1.807   2.497  13.157 -0.2135 -0.2756 -0.1597
13307TIP3    H161336   1.760   2.413  13.164  1.2043 -0.9761  1.6354
13307TIP3    H261337   1.899   2.474  13.170  0.3615  1.4252 -0.9395
13308TIP3   OH261338   1.698   6.399  12.244  0.2819  0.0507 -0.1878
13308TIP3    H161339   1.695   6.323  12.185 -0.8441 -0.9329  1.0678
13308TIP3    H261340   1.645   6.466  12.200  0.3750 -0.2724 -0.8039
13309TIP3   OH261341   2.386   1.643  10.486 -0.2925  0.2850 -0.2733
13309TIP3    H161342   2.307   1.671  10.531 -1.7811 -2.4349 -1.0082
13309TIP3    H261343   2.418   1.722  10.442 -2.7462  1.4023 -0.1791
13310TIP3   OH261344   1.850   6.181   3.467  0.2790  0.2315 -0.8513
13310TIP3    H161345   1.783   6.175   3.399 -2.4309  2.6672  1.3459
13310TIP3    H261346   1.916   6.240   3.430 -0.4972  0.5026 -1.8406
13311TIP3   OH261347   5.667   2.541   2.312 -0.1482  0.2869 -0.2397
13311TIP3    H161348   5.615   2.490   2.251 -2.1284 -1.2848  2.5813
13311TIP3    H261349   5.606   2.570   2.379  2.2342 -0.0659  2.2872
13312TIP3   OH261350   0.540   0.090   4.871 -0.3624  0.2757  0.7369
13312TIP3    H161351   0.456   0.083   4.827 -0.3991 -0.7667  0.9619
13312TIP3    H261352   0.520   0.079   4.964  0.1387 -0.9817  0.7053
13313TIP3   OH261353   4.077   4.667  12.759  0.1626 -0.0244 -0.6754
13313TIP3    H161354   4.163   4.687  12.723  1.1286 -1.2484  0.8468
13313TIP3    H261355   4.083   4.686  12.852 -1.3557  0.2782 -0.6095
13314TIP3   OH261356   2.084   4.954   5.367 -0.7151  0.3226  0.2191
13314TIP3    H161357   2.058   4.878   5.315  0.0627  0.4515 -0.3754
13314TIP3    H261358   2.001   4.993   5.396 -1.1246 -0.6114  0.3288
13315TIP3   OH261359   3.000   4.552  13.144  0.4505  0.4015  0.2475
13315TIP3    H161360   3.049   4.502  13.080 -0.7406  0.7710 -1.0025
13315TIP3    H261361   2.980   4.635  13.101  0.6370  1.1561  1.5408
13316TIP3   OH261362   3.082   3.355   4.127 -0.4237  0.5406 -0.1697
13316TIP3    H161363   3.049   3.384   4.042 -1.4771  0.9904  0.3742
13316TIP3    H261364   3.148   3.420   4.151  2.3101 -1.3132 -2.0759
13317TIP3   OH261365   3.484   1.185   0.334 -0.5555  0.8351 -0.2091
13317TIP3    H161366   3.432   1.110   0.305  0.6486  0.3357 -1.2143
13317TIP3    H261367   3.440   1.217   0.413 -1.3718 -0.6244 -0.0441
13318TIP3   OH261368   3.506   1.000   3.272 -0.7409  0.8470 -0.5312
13318TIP3    H161369   3.583   1.049   3.244 -1.5047  1.1398 -2.2721
13318TIP3    H261370   3.473   0.959   3.191 -1.1649 -1.0707  0.5430
13319TIP3   OH261371   0.690   4.435   3.609 -0.2126  0.4522 -0.1278
13319TIP3    H161372   0.650   4.378   3.543 -0.8206 -0.5929  1.0728
13319TIP3    H261373   0.661   4.523   3.586  1.8798  0.5404 -2.8422
13320TIP3   OH261374   3.123   3.862  12.575  0.5340  0.0821 -0.3392
13320TIP3    H161375   3.124   3.844  12.669  2.3781 -2.4495 -0.7369
13320TIP3    H261376   3.201   3.914  12.559  1.0321 -0.7391 -0.6367
13321TIP3   OH261377   4.056   0.657   5.788 -0.1294  0.0081 -0.6786
13321TIP3    H161378   3.996   0.729   5.807  1.1384  0.8318  0.4736
13321TIP3    H261379   4.101   0.683   5.708  0.4800  0.6518 -0.1496
13322TIP3   OH261380   5.331   3.958   4.877 -0.1559  0.0555 -0.4616
13322TIP3    H161381   5.236   3.967   4.884 -0.1781 -1.1822  1.7578
13322TIP3    H261382   5.348   3.867   4.900  1.5135 -0.0304 -1.8503
13323TIP3   OH261383   1.810   5.293  14.870  0.4200 -0.7023 -0.0224
13323TIP3    H161384   1.718   5.304  14.894 -0.0606  0.8264 -2.2480
13323TIP3    H261385   1.808   5.233  14.795  1.2151 -0.3790 -0.3060
13324TIP3   OH261386   0.902   4.867   1.828 -0.1761  0.3149  0.1088
13324TIP3    H161387   0.956   4.792   1.804 -1.2448 -0.4710  0.1431
13324TIP3    H261388   0.943   4.901   1.908  2.7231  2.2539 -1.9616
13325TIP3   OH261389   1.350   6.580  15.789 -0.4991  0.0484  0.0982
13325TIP3    H161390   1.426   6.630  15.757 -0.7771  1.1307  1.0665
13325TIP3    H261391   1.281   6.599  15.725 -0.6327  1.0215  0.5116
13326TIP3   OH261392   4.888   5.453  11.478  0.4740  0.3571  0.2598
13326TIP3    H161393   4.854   5.370  11.446  2.0333 -0.5689  0.9342
13326TIP3    H261394   4.898   5.441  11.572  0.5124  1.3952  0.4054
13327TIP3   OH261395   4.864   4.547   2.375 -0.5495  0.1361 -0.8524
13327TIP3    H161396   4.869   4.528   2.281 -0.7802  0.6638 -0.9752
13327TIP3    H261397   4.838   4.464   2.415 -1.3788  0.1459 -1.3568
13328TIP3   OH261398   4.957   6.157  16.630  0.1550  0.4648  0.3214
13328TIP3    H161399   5.012   6.234  16.623 -0.0842  0.5492 -0.7034
13328TIP3    H261400   4.868   6.191  16.637 -0.0227  0.2898 -0.8569
13329TIP3   OH261401   6.100   6.200  11.725  0.5150 -0.2764 -0.3979
13329TIP3    H161402   6.071   6.185  11.635  0.3776 -1.8461 -0.1287
13329TIP3    H261403   6.031   6.256  11.763 -1.0007 -1.9804 -0.4692
13330TIP3   OH261404   0.742   3.624  14.496  0.0103 -0.4086  0.1675
13330TIP3    H161405   0.660   3.576  14.486  0.0103 -0.1813 -1.0746
13330TIP3    H261406   0.716   3.716  14.503  0.1722 -0.3163 -0.4520
13331TIP3   OH261407   1.592   6.334   2.737 -0.2918  0.1023  0.7738
13331TIP3    H161408   1.661   6.273   2.763 -0.0763  1.0193  2.5065
13331TIP3    H261409   1.608   6.412   2.790 -1.8230  0.8661  0.1666
13332TIP3   OH261410   2.264   1.748  12.820 -0.3889 -0.4979  0.6649
13332TIP3    H161411   2.205   1.679  12.850 -0.3689 -0.7104  0.2147
13332TIP3    H261412   2.340   1.741  12.877 -0.9198 -0.0267  1.4548
13333TIP3   OH261413   2.653   5.115  12.152  0.7129  0.0970 -0.1640
13333TIP3    H161414   2.664   5.021  12.168 -0.6120 -0.0334  0.0908
13333TIP3    H261415   2.601   5.119  12.072 -0.7590  0.5570  0.7825
13334TIP3   OH261416   2.021   4.216   4.408 -0.7484 -0.1181  0.1090
13334TIP3    H161417   2.049   4.187   4.495  1.6773  0.8463 -0.2776
13334TIP3    H261418   1.971   4.296   4.424  0.1839  0.3782  0.5982
13335TIP3   OH261419   3.875   4.601   6.651  0.0361 -0.8049  0.3902
13335TIP3    H161420   3.839   4.522   6.610 -0.2331 -0.9922  0.9768
13335TIP3    H261421   3.808   4.630   6.712  0.1732 -0.1674  0.2456
13336TIP3   OH261422   1.977   1.074  14.417 -0.7019 -0.3056 -0.0823
13336TIP3    H161423   2.064   1.055  14.384  0.2961  1.8568  1.0616
13336TIP3    H261424   1.921   1.077  14.339  0.7878  0.8165 -1.1650
13337TIP3   OH261425   6.047   0.802  14.691 -0.1114 -0.3597  0.1392
13337TIP3    H161426   6.108   0.842  14.629 -0.1962 -0.1784  0.1710
13337TIP3    H261427   6.017   0.875  14.746 -0.2290 -0.4757  0.2307
13338TIP3   OH261428   0.372   0.201   5.853  0.6236  0.3405 -0.6389
13338TIP3    H161429   0.429   0.267   5.814  0.9548 -0.0368 -0.8013
13338TIP3    H261430   0.426   0.158   5.919  0.4510  0.1483 -0.6204
13339TIP3   OH261431   4.950   5.260   0.159  0.1267 -0.3582 -0.1596
13339TIP3    H161432   4.878   5.316   0.130  1.0928 -0.1261 -2.3088
13339TIP3    H261433   5.017   5.271   0.091  2.8597  0.6464  2.4742
13340TIP3   OH261434   1.112   5.637   0.885  0.8162  0.3359  0.1365
13340TIP3    H161435   1.084   5.581   0.957  1.0184 -1.2608 -0.9704
13340TIP3    H261436   1.207   5.626   0.882  0.8281  0.5396 -0.2604
13341TIP3   OH261437   5.638   0.607   2.335  0.0986 -0.1381 -0.3128
13341TIP3    H161438   5.678   0.692   2.355  2.2624 -0.8656 -1.2483
13341TIP3    H261439   5.609   0.615   2.244 -0.6850 -0.0665 -0.0635
13342TIP3   OH261440   0.610   0.358   2.742  0.1950 -0.1443 -0.3543
13342TIP3    H161441   0.562   0.440   2.730 -0.4297  0.1215  3.0174
13342TIP3    H261442   0.701   0.385   2.752  0.0916  0.0820  0.0038
13343TIP3   OH261443   1.359   1.356  12.325  0.1750 -0.3312 -0.0379
13343TIP3    H161444   1.265   1.370  12.338  0.2206 -0.7822  0.8774
13343TIP3    H261445   1.368   1.344  12.230 -0.7752 -0.8423 -0.0795
13344TIP3   OH261446   0.396   0.060  14.756 -0.2457  0.6332 -0.3688
13344TIP3    H161447   0.323   0.026  14.703  0.4091  0.2318 -1.0466
13344TIP3    H261448   0.358   0.076  14.842 -0.7850 -1.0919 -0.2422
13345TIP3   OH261449   5.298   2.879  15.907  0.4440 -0.4448  0.1688
13345TIP3    H161450   5.205   2.879  15.884  0.7385  0.6509 -1.1407
13345TIP3    H261451   5.338   2.943  15.849  2.1283 -1.2861  0.3090
13346TIP3   OH261452   2.791   3.692   3.575 -0.3617  0.8833 -0.0978
13346TIP3    H161453   2.751   3.677   3.660 -0.8944  0.8406 -0.3538
13346TIP3    H261454   2.762   3.619   3.520  0.7283  0.4034 -0.0663
13347TIP3   OH261455   0.382   3.135  15.458 -0.2028  0.6447 -0.3358
13347TIP3    H161456   0.397   3.227  15.480 -1.1934  0.5230  1.0220
13347TIP3    H261457   0.466   3.093  15.473 -0.0379  1.1413  0.1702
13348TIP3   OH261458   0.652   6.353  11.190 -0.4343  0.3649  0.4581
13348TIP3    H161459   0.612   6.377  11.106  3.2986  2.3344 -1.0001
13348TIP3    H261460   0.593   6.391  11.256 -2.0967  1.1219 -1.3569
13349TIP3   OH261461   2.768   6.618   1.384  0.3849  0.4520 -0.0095
13349TIP3    H161462   2.712   6.579   1.451 -2.4848  2.1956 -1.1878
13349TIP3    H261463   2.778   6.709   1.411 -0.2982  1.0282 -1.5255
13350TIP3   OH261464   2.703   0.063  15.275  0.0063  0.2640 -0.5181
13350TIP3    H161465   2.681   0.082  15.184 -0.4916 -0.5651 -0.5823
13350TIP3    H261466   2.624   0.022  15.311  0.2166  0.5286  0.2739
13351TIP3   OH261467   1.495   0.429   1.419 -0.2116  0.3801 -0.4319
13351TIP3    H161468   1.415   0.411   1.469  0.8609 -3.1563  0.3297
13351TIP3    H261469   1.465   0.439   1.328 -1.7421  2.3914  0.2196
13352TIP3   OH261470   6.109   1.525   2.197 -0.6418 -0.2876 -0.1211
13352TIP3    H161471   6.071   1.440   2.219 -1.3227  0.4801  1.8792
13352TIP3    H261472   6.110   1.573   2.279  0.4657  1.3792 -1.0473
13353TIP3   OH261473   1.787   2.788  13.602 -0.1792  0.0182 -0.1259
13353TIP3    H161474   1.817   2.784  13.511  0.7836  1.8184  0.0505
13353TIP3    H261475   1.779   2.882  13.620  0.4406 -0.2608  1.8701
13354TIP3   OH261476   2.633   0.791  12.697  0.1409 -0.1533 -0.1429
13354TIP3    H161477   2.707   0.759  12.645 -0.2107 -0.3565 -0.5281
13354TIP3    H261478   2.615   0.719  12.758  0.3090 -0.0709  0.0063
13355TIP3   OH261479   3.196   1.809   3.779 -0.2218 -0.4279 -0.1609
13355TIP3    H161480   3.254   1.811   3.702  0.1559  0.0707  0.1300
13355TIP3    H261481   3.116   1.853   3.751 -0.9924 -2.2559 -0.9716
13356TIP3   OH261482   1.993   1.307   1.336  0.3185  0.0688  0.1736
13356TIP3    H161483   2.009   1.213   1.333 -2.6364 -0.4831 -0.8549
13356TIP3    H261484   2.059   1.344   1.277 -0.4955 -1.7237 -1.9856
13357TIP3   OH261485   5.451   0.108  16.618  0.4589  0.5164  0.4741
13357TIP3    H161486   5.470   0.084  16.708 -0.1950 -1.2796  0.1716
13357TIP3    H261487   5.517   0.063  16.566 -0.7756 -0.7054 -0.1078
13358TIP3   OH261488   0.086   6.668   6.005 -0.2469 -0.1547 -0.0947
13358TIP3    H161489   0.143   6.634   5.937 -0.4823 -0.4412 -0.1498
13358TIP3    H261490  -0.001   6.635   5.983 -0.3781  0.0056  0.1714
13359TIP3   OH261491   6.298   2.009   0.309  0.9838  0.3825 -0.2406
13359TIP3    H161492   6.334   1.980   0.225  0.7072  0.6242 -0.4430
13359TIP3    H261493   6.267   2.098   0.292  1.3121  0.5891  0.2287
13360TIP3   OH261494   6.757   5.399   0.301 -0.3004  0.8751  0.5877
13360TIP3    H161495   6.844   5.397   0.339 -0.1713  0.3228  0.2780
13360TIP3    H261496   6.751   5.483   0.256  1.3918 -0.4228 -2.3894
13361TIP3   OH261497   6.703   4.241   2.629  0.3401  0.2738  0.0078
13361TIP3    H161498   6.793   4.216   2.608  0.7083  0.5179  1.2139
13361TIP3    H261499   6.660   4.252   2.544  1.1486 -0.9005 -0.5789
13362TIP3   OH261500   0.753   4.633   6.161  0.3946  0.5041  0.3856
13362TIP3    H161501   0.684   4.659   6.221  1.0805  2.7674  0.3068
13362TIP3    H261502   0.727   4.547   6.129 -1.6595  0.6958  1.3996
13363TIP3   OH261503   5.344   4.967  13.174 -0.1455 -0.3557  0.0796
13363TIP3    H161504   5.310   5.049  13.210 -0.0430 -0.0479 -0.5178
13363TIP3    H261505   5.296   4.899  13.221 -0.1845  0.0418  0.6310
13364TIP3   OH261506   2.215   0.321  16.909  0.4290  0.4453  0.2811
13364TIP3    H161507   2.248   0.236  16.940 -0.0524  0.0941 -0.1453
13364TIP3    H261508   2.129   0.300  16.871  0.4978  1.0556 -0.2164
13365TIP3   OH261509   4.731   6.005  13.613 -0.6503  0.1117 -0.0007
13365TIP3    H161510   4.676   6.038  13.542 -1.1244 -1.7326 -0.5500
13365TIP3    H261511   4.793   6.076  13.631 -0.8955  0.8523 -1.8668
13366TIP3   OH261512   3.186   0.433   4.112  0.1269  0.1617  0.3843
13366TIP3    H161513   3.179   0.514   4.062  1.1562 -0.3429 -0.6129
13366TIP3    H261514   3.112   0.436   4.172 -0.1634  1.5822 -0.0043
13367TIP3   OH261515   3.066   5.749  17.340  0.5188  0.1865  0.2399
13367TIP3    H161516   3.113   5.805  17.279 -0.2400 -0.0931 -0.6209
13367TIP3    H261517   2.995   5.710  17.288  0.4179 -0.7794  1.0627
13368TIP3   OH261518   1.611   3.927  13.319  0.0724 -0.7337  1.0249
13368TIP3    H161519   1.604   3.975  13.401 -2.2851 -1.0325  1.0858
13368TIP3    H261520   1.539   3.863  13.322 -1.2268  0.3769 -1.9556
13369TIP3   OH261521   0.966   2.844  16.974 -0.1777  0.0985  0.2901
13369TIP3    H161522   0.950   2.774  16.910  1.2930 -0.1246  0.1328
13369TIP3    H261523   0.959   2.925  16.923 -3.0988  0.2018  0.7118
13370TIP3   OH261524   4.797   6.228  16.084  0.4876 -0.3173 -0.4271
13370TIP3    H161525   4.737   6.282  16.032 -3.0180 -1.9141  1.5715
13370TIP3    H261526   4.783   6.139  16.050  1.7139 -0.7645  0.1802
13371TIP3   OH261527   4.858   1.580  14.246  0.3115  0.0527  0.2835
13371TIP3    H161528   4.810   1.549  14.169 -0.9340  2.0298  0.2083
13371TIP3    H261529   4.820   1.531  14.319 -1.1752  0.8918  0.0964
13372TIP3   OH261530   2.670   2.294  17.041 -0.3711 -0.0852  0.7495
13372TIP3    H161531   2.711   2.380  17.051  0.2521 -0.4126  1.0498
13372TIP3    H261532   2.644   2.269  17.129 -1.8687  0.4225  0.4786
13373TIP3   OH261533   4.057   1.934   2.015  0.3328  0.2148  0.4950
13373TIP3    H161534   4.012   1.988   2.079  2.2921 -0.5289  2.6393
13373TIP3    H261535   4.140   1.979   1.999  0.4502 -0.3189 -0.4823
13374TIP3   OH261536   5.338   2.840   4.045  0.0798  0.1307  0.2800
13374TIP3    H161537   5.356   2.771   3.981 -0.6910  1.0903 -1.0244
13374TIP3    H261538   5.412   2.900   4.038  0.9059 -0.6719  1.6380
13375TIP3   OH261539   2.304   0.128  15.299 -0.0537 -0.2790  0.8382
13375TIP3    H161540   2.321   0.034  15.287 -0.6417 -0.1774 -1.0611
13375TIP3    H261541   2.372   0.172  15.247 -1.6553  0.2472 -0.9089
13376TIP3   OH261542   6.758   2.732   4.174 -0.3108 -0.6391  0.5029
13376TIP3    H161543   6.706   2.811   4.188  2.0072  0.8480  1.2061
13376TIP3    H261544   6.824   2.758   4.110  0.8637 -1.8231  1.2061
13377TIP3   OH261545   4.433   4.102  16.064 -0.2327 -0.2727  0.3305
13377TIP3    H161546   4.387   4.018  16.060 -1.8692  0.5752  0.3802
13377TIP3    H261547   4.426   4.137  15.976  0.4502 -0.1866  0.3081
13378TIP3   OH261548   5.050   3.695   3.724  0.3241  0.0214 -0.4566
13378TIP3    H161549   5.054   3.604   3.753  0.0208 -0.0913 -0.7524
13378TIP3    H261550   5.134   3.710   3.680 -0.3491 -0.7128 -2.0930
13379TIP3   OH261551   3.663   4.167  11.319  0.3451 -0.3209 -0.1947
13379TIP3    H161552   3.583   4.118  11.301  0.2275 -1.5707  3.0006
13379TIP3    H261553   3.700   4.124  11.396  2.9220  1.6197 -0.2115
13380TIP3   OH261554   4.495   4.717  12.404  0.4695  0.3141  0.3255
13380TIP3    H161555   4.551   4.644  12.377  0.5131 -0.0182  1.2542
13380TIP3    H261556   4.548   4.795  12.388  0.6245  0.1051 -0.1926
13381TIP3   OH261557   5.386   2.765   1.953 -0.0919 -0.2251 -0.1819
13381TIP3    H161558   5.398   2.857   1.931  1.2806  0.1255  1.7408
13381TIP3    H261559   5.475   2.732   1.968 -0.6655 -1.4127  0.8187
13382TIP3   OH261560   4.033   4.212  11.439  0.3934 -0.1144 -0.3310
13382TIP3    H161561   4.040   4.308  11.435 -0.8154 -0.0277 -0.4976
13382TIP3    H261562   3.955   4.191  11.388  0.9163 -1.2366 -0.7025
13383TIP3   OH261563   6.548   2.583  11.737 -0.5027 -0.5092  0.2156
13383TIP3    H161564   6.605   2.620  11.670 -1.1016  0.3307  0.1544
13383TIP3    H261565   6.584   2.614  11.820 -2.4848  2.4821  0.0767
13384TIP3   OH261566   1.344   2.731   6.437  0.1884  0.8444  0.1402
13384TIP3    H161567   1.276   2.765   6.494 -0.0124  0.1631  0.3197
13384TIP3    H261568   1.417   2.792   6.447 -0.4822  1.7251 -0.2559
13385TIP3   OH261569   0.654   3.893  16.305  0.6881 -1.0035  0.2982
13385TIP3    H161570   0.717   3.837  16.259 -0.4299 -0.9763 -1.3707
13385TIP3    H261571   0.680   3.982  16.281  0.8296 -0.9346  0.7135
13386TIP3   OH261572   2.420   0.881  15.735 -0.0049 -0.5676  0.2492
13386TIP3    H161573   2.449   0.883  15.827 -2.3353  0.1004  1.0521
13386TIP3    H261574   2.375   0.797  15.727 -1.0126 -0.0327  0.1575
13387TIP3   OH261575   4.240   4.777   6.590 -0.3645 -0.3649 -0.1717
13387TIP3    H161576   4.207   4.690   6.568  0.6856 -1.5004  2.3488
13387TIP3    H261577   4.183   4.808   6.659 -1.1296  1.3024 -1.4972
13388TIP3   OH261578   3.305   1.880   0.024 -0.4067  0.1447  0.1937
13388TIP3    H161579   3.215   1.912   0.029 -0.7700 -1.0244  2.7769
13388TIP3    H261580   3.357   1.950   0.063 -0.3880  0.2396 -0.0034
13389TIP3   OH261581   3.861   2.866  12.721  0.6660  0.5189  0.1348
13389TIP3    H161582   3.923   2.896  12.788 -0.5722 -0.1825  1.6580
13389TIP3    H261583   3.849   2.773  12.740  0.6960  0.1665 -1.4376
13390TIP3   OH261584   2.007   6.026   1.169 -0.2099  0.6007 -0.5242
13390TIP3    H161585   2.072   6.012   1.099 -1.5529 -1.8594 -1.3929
13390TIP3    H261586   1.928   5.983   1.137 -1.1649  0.2106  2.1452
13391TIP3   OH261587   4.359   3.024  12.203 -0.7914 -0.2546 -0.3737
13391TIP3    H161588   4.281   3.078  12.212  0.1109  0.8484  1.2945
13391TIP3    H261589   4.378   3.026  12.109 -1.4009  1.4826 -0.5041
13392TIP3   OH261590   3.164   1.009   1.805  0.6105 -0.1293  0.7707
13392TIP3    H161591   3.144   1.040   1.717  0.1960  1.2439  1.3262
13392TIP3    H261592   3.102   0.938   1.821  0.8125 -0.5104 -0.1074
13393TIP3   OH261593   1.765   0.860  13.520 -0.1806 -0.1277 -0.2007
13393TIP3    H161594   1.811   0.792  13.569  1.9822  0.0480 -1.8704
13393TIP3    H261595   1.686   0.877  13.571  0.8675 -1.5100  2.0008
13394TIP3   OH261596   1.333   5.268  16.087  0.3177  0.0602 -0.7664
13394TIP3    H161597   1.292   5.256  16.173 -1.2128 -0.3537 -1.5261
13394TIP3    H261598   1.311   5.357  16.062  0.6947  0.1520 -0.7736
13395TIP3   OH261599   3.222   4.851  15.174  0.2139 -0.2024  0.4116
13395TIP3    H161600   3.243   4.908  15.248  0.4234  1.0378 -0.5631
13395TIP3    H261601   3.146   4.892  15.133 -0.1644 -1.1133  0.1667
13396TIP3   OH261602   5.723   1.199  14.540  0.5170  0.0555  0.7508
13396TIP3    H161603   5.715   1.284  14.583  1.2657  0.0687  0.8855
13396TIP3    H261604   5.816   1.177  14.549  0.4616 -0.4571  0.1104
13397TIP3   OH261605   3.501   1.351   1.496 -0.2495 -0.3497 -0.4099
13397TIP3    H161606   3.455   1.274   1.527 -0.4730  0.3187  1.0087
13397TIP3    H261607   3.572   1.364   1.559  0.8663 -0.3950 -1.6181
13398TIP3   OH261608   4.700   0.861   2.076 -0.6061 -0.0701  0.1514
13398TIP3    H161609   4.608   0.885   2.088 -0.6476 -0.2135  0.1263
13398TIP3    H261610   4.732   0.919   2.007 -0.4455  0.5623  0.7429
13399TIP3   OH261611   0.364   2.802   1.464 -0.0243  0.3203 -0.6882
13399TIP3    H161612   0.312   2.802   1.544  0.0067 -1.2161 -0.6389
13399TIP3    H261613   0.446   2.844   1.488 -0.7910  1.8159 -0.4981
13400TIP3   OH261614   2.918   1.142  11.314 -0.0813 -0.1931  0.1738
13400TIP3    H161615   2.841   1.089  11.332 -0.5766  0.2388 -0.5942
13400TIP3    H261616   2.892   1.231  11.338 -1.0355  0.5586 -3.0731
13401TIP3   OH261617   2.600   2.849   0.797  0.3317  0.1351 -0.0107
13401TIP3    H161618   2.610   2.783   0.865 -0.0135  1.5960  1.5446
13401TIP3    H261619   2.689   2.883   0.783  0.0780  1.6502  1.7000
13402TIP3   OH261620   1.177   1.439  12.515  0.0602  0.2605 -0.1949
13402TIP3    H161621   1.260   1.487  12.526  1.0175 -1.0951 -1.2527
13402TIP3    H261622   1.142   1.431  12.604  1.9344 -0.6340  0.5083
13403TIP3   OH261623   5.039   1.454   6.005  0.7422  0.4149 -0.0642
13403TIP3    H161624   5.001   1.389   6.065 -1.5574  1.2486 -0.4934
13403TIP3    H261625   5.050   1.533   6.058 -0.1583  0.7971 -0.4279
13404TIP3   OH261626   5.666   0.541   1.421 -0.7689 -0.3615  0.2281
13404TIP3    H161627   5.577   0.545   1.455 -1.9371  2.4520 -2.6533
13404TIP3    H261628   5.711   0.614   1.463 -1.2841  1.1235 -1.6860
13405TIP3   OH261629   5.776   2.919  15.561 -0.1780 -0.3226 -0.7386
13405TIP3    H161630   5.862   2.879  15.551 -0.0260 -0.6884  1.5485
13405TIP3    H261631   5.756   2.910  15.654 -2.3486  0.4714 -1.0723
13406TIP3   OH261632   6.214   2.612  16.729 -0.0821  0.1000 -0.2104
13406TIP3    H161633   6.155   2.602  16.805  0.6043  1.3477  0.5175
13406TIP3    H261634   6.157   2.599  16.653 -1.4479  1.7786  0.4554
13407TIP3   OH261635   0.280   5.434   5.009 -0.2309  0.2792 -0.1057
13407TIP3    H161636   0.315   5.510   5.055 -2.1168  0.0095  1.9407
13407TIP3    H261637   0.187   5.434   5.030 -0.6955 -1.3606 -1.8873
13408TIP3   OH261638   0.496   0.512   4.481 -0.5312  0.0982 -0.3741
13408TIP3    H161639   0.432   0.466   4.535 -0.5058 -0.4503 -0.8092
13408TIP3    H261640   0.552   0.558   4.545 -0.6019 -0.4047  0.0624
13409TIP3   OH261641   3.907   2.465  15.491  0.0113  0.1896  0.0114
13409TIP3    H161642   3.853   2.509  15.557  1.7598  1.5174  0.6457
13409TIP3    H261643   3.959   2.402  15.540 -0.3505 -0.5003 -0.4725
13410TIP3   OH261644   5.234   1.931   5.107  0.1295 -0.2887  0.1595
13410TIP3    H161645   5.225   1.946   5.012  2.6751 -0.1839 -0.1239
13410TIP3    H261646   5.192   2.008   5.147 -1.2805 -0.4988 -0.8306
13411TIP3   OH261647   4.571   3.663   0.540 -0.1851 -0.4250  0.4374
13411TIP3    H161648   4.629   3.679   0.465  0.7328 -0.7330  1.0602
13411TIP3    H261649   4.488   3.637   0.500 -0.1089  0.6663 -0.4890
13412TIP3   OH261650   6.519   5.798   0.238 -0.2340 -0.3516 -0.5527
13412TIP3    H161651   6.474   5.778   0.320 -1.0487 -0.1227 -0.9344
13412TIP3    H261652   6.542   5.891   0.246  0.2862 -0.4986 -0.3075
13413TIP3   OH261653   4.187   0.929   3.939  0.1312  0.3956  0.3935
13413TIP3    H161654   4.191   0.974   4.024 -0.0958 -1.7938  1.6407
13413TIP3    H261655   4.100   0.890   3.937 -0.9551  2.6511 -2.1475
13414TIP3   OH261656   3.849   1.367  11.403 -0.3401 -0.1515  0.1152
13414TIP3    H161657   3.800   1.286  11.413  1.5945 -1.7655 -2.1718
13414TIP3    H261658   3.853   1.381  11.308  2.6420  0.4023  0.1972
13415TIP3   OH261659   6.519   5.078   3.204  0.3217 -0.4164 -0.0331
13415TIP3    H161660   6.610   5.080   3.234 -0.1070 -2.2054  1.5670
13415TIP3    H261661   6.470   5.126   3.270 -0.0420 -0.3929 -0.3114
13416TIP3   OH261662   1.787   6.583   5.138  0.0434 -0.3719  0.4391
13416TIP3    H161663   1.804   6.508   5.195  4.1745 -0.6688 -0.8845
13416TIP3    H261664   1.767   6.545   5.053  1.2113 -0.0598 -0.0012
13417TIP3   OH261665   0.211   1.121   5.674 -0.4787  0.1590 -0.6486
13417TIP3    H161666   0.173   1.209   5.670  0.3442  0.4986 -1.2888
13417TIP3    H261667   0.152   1.067   5.621 -1.1058  0.2660 -0.0752
13418TIP3   OH261668   0.191   6.575   4.747  0.1473  0.0098  0.7675
13418TIP3    H161669   0.275   6.566   4.793  0.6427  0.4125 -0.0376
13418TIP3    H261670   0.126   6.542   4.809  0.6802  1.4779  2.1521
13419TIP3   OH261671   0.959   4.216  16.385 -0.5046  0.7051 -0.2081
13419TIP3    H161672   0.913   4.170  16.315 -1.6234  1.8146 -0.2488
13419TIP3    H261673   0.983   4.300  16.346 -1.3970  1.4579  0.7914
13420TIP3   OH261674   5.811   6.427   2.810 -0.1140  0.2921  0.5067
13420TIP3    H161675   5.890   6.376   2.828  0.8144  1.3250 -0.4644
13420TIP3    H261676   5.833   6.479   2.733 -1.6123  0.9180  0.4595
13421TIP3   OH261677   1.215   6.209  11.207  0.8964  0.5605  0.4496
13421TIP3    H161678   1.213   6.304  11.198  2.0536  0.4623 -1.3641
13421TIP3    H261679   1.308   6.187  11.209  0.6978 -0.4379  2.8788
13422TIP3   OH261680   5.327   6.127  11.867 -0.0198  0.3531  0.2125
13422TIP3    H161681   5.418   6.155  11.862  0.9034 -2.0289  1.8641
13422TIP3    H261682   5.300   6.147  11.956 -2.0113  3.1896 -0.8688
13423TIP3   OH261683   4.995   6.428  12.831  0.3092  0.3136 -0.1528
13423TIP3    H161684   4.988   6.332  12.832 -0.7563  0.3784 -0.2854
13423TIP3    H261685   4.927   6.456  12.770 -1.0380  1.2703  1.7047
13424TIP3   OH261686   0.228   4.390  14.682 -0.4525  0.0935 -0.0321
13424TIP3    H161687   0.255   4.332  14.753 -0.6585  0.0643  0.0233
13424TIP3    H261688   0.301   4.388  14.620  0.3731  1.2334  0.8579
13425TIP3   OH261689   0.903   3.447  12.088  0.1751 -0.3266  0.0984
13425TIP3    H161690   0.878   3.445  11.995  2.0468  0.3361 -0.4647
13425TIP3    H261691   0.854   3.374  12.127  0.6006 -1.6880 -1.7484
13426TIP3   OH261692   3.398   3.273  13.802  0.1096 -0.1871 -0.4104
13426TIP3    H161693   3.322   3.224  13.835  0.1383 -1.0447 -1.5465
13426TIP3    H261694   3.373   3.298  13.713  0.7133  0.5425 -0.3838
13427TIP3   OH261695   0.406   6.566  12.841 -0.1911 -0.0766 -0.1203
13427TIP3    H161696   0.378   6.481  12.876 -1.3423  0.3603  0.0550
13427TIP3    H261697   0.342   6.585  12.772 -1.2376  1.6065  1.2377
13428TIP3   OH261698   6.631   6.126  16.719 -0.5108 -0.3801  0.0097
13428TIP3    H161699   6.725   6.110  16.717 -0.1005  1.7377 -1.6247
13428TIP3    H261700   6.592   6.045  16.686  0.8947 -0.5532 -1.3153
13429TIP3   OH261701   3.428   5.437  11.713 -0.0425  0.2156 -0.3993
13429TIP3    H161702   3.370   5.503  11.674 -1.3064 -0.2176  0.6896
13429TIP3    H261703   3.382   5.355  11.701 -0.1725 -0.0067  1.4337
13430TIP3   OH261704   0.708   3.900   0.200  0.8794  0.1181 -0.4055
13430TIP3    H161705   0.734   3.959   0.130  0.1030 -0.0517 -0.8520
13430TIP3    H261706   0.653   3.954   0.258 -0.0155 -0.2053 -0.9333
13431TIP3   OH261707   4.977   3.045  15.313  0.2405  0.1290 -0.2401
13431TIP3    H161708   5.015   3.012  15.231 -1.8375  0.7492 -1.5183
13431TIP3    H261709   5.009   3.135  15.320  0.2989  0.1258 -0.4591
13432TIP3   OH261710   0.028   4.550   2.566 -0.3357 -0.0166  0.2894
13432TIP3    H161711   0.028   4.568   2.660  3.1933 -0.1224  0.4132
13432TIP3    H261712   0.055   4.633   2.526 -0.7808 -0.2744 -0.5640
13433TIP3   OH261713   4.677   4.117   4.587 -0.1813  0.1186  0.2066
13433TIP3    H161714   4.746   4.167   4.545  1.0509  0.5338  2.5872
13433TIP3    H261715   4.651   4.170   4.662 -0.7343 -1.5651  1.2595
13434TIP3   OH261716   3.629   3.947  13.413 -0.9475 -0.3854 -0.7271
13434TIP3    H161717   3.678   4.028  13.425 -0.5697 -0.7240  0.1281
13434TIP3    H261718   3.626   3.933  13.318 -0.3512  0.2214 -0.8364
13435TIP3   OH261719   4.676   2.937  14.554 -0.2645 -0.3712 -0.2066
13435TIP3    H161720   4.705   2.981  14.474  1.5742 -0.8991  0.1226
13435TIP3    H261721   4.664   2.846  14.529 -0.6417 -0.3545 -0.0950
13436TIP3   OH261722   1.519   0.505  16.161 -0.2381  0.0164 -0.4032
13436TIP3    H161723   1.501   0.484  16.069  0.3339  1.3317 -0.8262
13436TIP3    H261724   1.486   0.594  16.173 -2.5158 -0.9290  1.3318
13437TIP3   OH261725   1.939   4.382  13.877  0.0557  0.4990  0.4567
13437TIP3    H161726   1.955   4.397  13.784 -0.2853 -1.4216  0.0444
13437TIP3    H261727   1.964   4.291  13.891 -1.7969  0.1474  1.8061
13438TIP3   OH261728   3.784   5.894  11.774  0.0717  0.2765 -0.1890
13438TIP3    H161729   3.795   5.969  11.832 -0.6658  0.8206 -0.7266
13438TIP3    H261730   3.848   5.830  11.804 -1.1973 -0.0116  2.1162
13439TIP3   OH261731   4.997   2.766  11.590 -0.7380  0.0687 -0.2585
13439TIP3    H161732   4.903   2.769  11.605 -0.7646  2.5867 -0.5702
13439TIP3    H261733   5.011   2.827  11.518  1.1019 -0.6010 -0.5101
13440TIP3   OH261734   4.508   0.042  14.361 -0.6581  0.4705 -0.1908
13440TIP3    H161735   4.505   0.104  14.288  0.3530  0.0026 -0.6569
13440TIP3    H261736   4.423  -0.001  14.361 -0.1428 -0.6978 -2.1769
13441TIP3   OH261737   2.835   3.661  16.006 -0.3603  0.0030 -0.8170
13441TIP3    H161738   2.885   3.643  15.926  0.8898 -0.1241 -0.0419
13441TIP3    H261739   2.752   3.615  15.993  0.1733 -0.7725 -1.6716
13442TIP3   OH261740   2.298   0.169   2.474 -0.3350  0.3169  0.1319
13442TIP3    H161741   2.266   0.180   2.564 -0.8522 -1.0304  0.1380
13442TIP3    H261742   2.311   0.258   2.442 -0.0757  0.8212  1.5632
13443TIP3   OH261743   3.719   1.674   6.505  0.2019 -0.1429  0.4704
13443TIP3    H161744   3.679   1.599   6.461  0.9746 -0.4748  0.3158
13443TIP3    H261745   3.794   1.637   6.552  1.0091  0.6385 -0.1810
13444TIP3   OH261746   0.465   0.271   1.239  0.5473 -0.4139  0.1942
13444TIP3    H161747   0.521   0.265   1.316  0.2740 -0.4325  0.3902
13444TIP3    H261748   0.521   0.242   1.167  0.5785 -1.1069  0.4903
13445TIP3   OH261749   4.083   0.817   3.432  0.0776 -0.4636  0.2216
13445TIP3    H161750   4.080   0.747   3.498  0.5318 -0.4937  0.2117
13445TIP3    H261751   3.991   0.841   3.419 -0.1359 -1.4370 -0.1748
13446TIP3   OH261752   6.273   6.538  14.480  0.1632  0.0621 -0.2917
13446TIP3    H161753   6.351   6.485  14.462  1.6801  1.8270  0.7835
13446TIP3    H261754   6.241   6.562  14.393  1.3038 -0.0406 -0.7616
13447TIP3   OH261755   4.587   2.532   2.219 -0.2499 -0.1023  0.0264
13447TIP3    H161756   4.552   2.608   2.173  0.5010  0.0197 -0.3613
13447TIP3    H261757   4.629   2.568   2.297  0.8089 -0.0028 -0.5565
13448TIP3   OH261758   0.888   1.501  16.526  0.5652 -0.4328 -0.4884
13448TIP3    H161759   0.959   1.528  16.468  0.6463 -0.8339 -0.5757
13448TIP3    H261760   0.927   1.503  16.614  0.2622  0.7996 -0.3702
13449TIP3   OH261761   4.669   0.884  11.058 -0.4566  0.1376 -0.4397
13449TIP3    H161762   4.689   0.964  11.106  1.4243 -0.2505 -0.4942
13449TIP3    H261763   4.690   0.905  10.967  1.0198 -0.6543 -0.3264
13450TIP3   OH261764   4.444   5.616  14.634  0.3826 -0.3449 -0.1531
13450TIP3    H161765   4.409   5.693  14.588  2.4799 -0.8957 -2.9248
13450TIP3    H261766   4.475   5.650  14.718 -1.8168  1.1115  0.1534
13451TIP3   OH261767   1.888   0.374   6.274  0.9776 -0.1555 -0.1748
13451TIP3    H161768   1.799   0.408   6.268  0.6263 -0.4433  2.3472
13451TIP3    H261769   1.878   0.280   6.286  1.5200 -0.0493  1.3105
13452TIP3   OH261770   3.928   4.648  15.706 -0.1138 -1.0641  0.0040
13452TIP3    H161771   3.988   4.627  15.634 -0.2352  0.7363 -0.6748
13452TIP3    H261772   3.961   4.596  15.780  2.1231 -0.3836 -0.4300
13453TIP3   OH261773   4.378   3.293  13.681 -0.1826  0.2269 -0.3570
13453TIP3    H161774   4.380   3.197  13.676 -0.4640  0.2650 -1.2918
13453TIP3    H261775   4.364   3.322  13.591 -0.6905  1.1347 -0.0003
13454TIP3   OH261776   0.911   5.319  11.593  1.1039  0.3546 -0.1092
13454TIP3    H161777   0.951   5.394  11.550  0.1860  2.1465  1.9493
13454TIP3    H261778   0.874   5.266  11.522  2.3716  1.4741 -1.6547
13455TIP3   OH261779   5.335   5.375   2.174  0.1146 -0.2483  0.0407
13455TIP3    H161780   5.388   5.404   2.248 -0.1154 -0.7501  0.4108
13455TIP3    H261781   5.395   5.322   2.121  0.1352 -0.3472  0.1613
13456TIP3   OH261782   4.964   0.523   0.413 -0.8001 -0.1812 -0.8108
13456TIP3    H161783   4.960   0.524   0.317 -2.1509  1.1579 -0.7784
13456TIP3    H261784   5.004   0.438   0.434 -0.8800 -0.6954 -2.5381
13457TIP3   OH261785   2.533   6.640  15.410 -1.2905 -0.2698  0.1492
13457TIP3    H161786   2.606   6.579  15.423 -2.5597 -2.0781 -0.7041
13457TIP3    H261787   2.492   6.648  15.496 -0.9036 -0.3668  0.3400
13458TIP3   OH261788   4.145   5.945   2.107  0.7752 -0.2232 -0.1713
13458TIP3    H161789   4.135   5.994   2.026 -0.3591 -0.0032  0.0815
13458TIP3    H261790   4.133   5.853   2.081 -0.2659 -0.1046 -0.1722
13459TIP3   OH261791   3.238   4.666  15.493 -0.3587  0.0889 -0.2200
13459TIP3    H161792   3.314   4.697  15.443  0.5493  1.6604  1.9099
13459TIP3    H261793   3.277   4.618  15.566 -1.5910 -1.4908 -0.5615
13460TIP3   OH261794   6.479   1.902  12.642  0.6851  0.0876  0.3937
13460TIP3    H161795   6.572   1.904  12.622  0.6934  0.9358  0.4874
13460TIP3    H261796   6.466   1.818  12.686  0.8242 -1.4294 -2.2495
13461TIP3   OH261797   2.955   5.213   3.412 -0.0093 -0.4057  0.3234
13461TIP3    H161798   2.907   5.295   3.425 -2.1326 -1.3074 -1.1611
13461TIP3    H261799   3.047   5.238   3.413 -0.5261  1.6964  1.6744
13462TIP3   OH261800   4.201   5.795  16.174 -0.4676 -0.7649 -0.0891
13462TIP3    H161801   4.252   5.876  16.174  0.1200 -1.0847  1.9012
13462TIP3    H261802   4.206   5.764  16.083  0.2880  0.7896 -0.6233
13463TIP3   OH261803   3.879   4.722   0.559  0.1899  0.1466 -0.2502
13463TIP3    H161804   3.839   4.808   0.563  0.7331  0.3674  0.8778
13463TIP3    H261805   3.872   4.687   0.648 -0.1360 -1.0368 -0.7116
13464TIP3   OH261806   0.633   1.676  10.771 -0.5195  0.0275 -0.0357
13464TIP3    H161807   0.544   1.641  10.776 -0.0651 -1.5936 -2.0240
13464TIP3    H261808   0.689   1.606  10.805  0.1169  0.3902 -0.3157
13465TIP3   OH261809   5.682   5.823   1.246 -0.0718  0.3481 -0.1928
13465TIP3    H161810   5.735   5.850   1.171 -0.5057  0.9830 -0.2776
13465TIP3    H261811   5.697   5.891   1.312 -0.7817  0.5442 -0.2227
13466TIP3   OH261812   6.096   4.727   3.731  0.8020 -0.2341  0.0350
13466TIP3    H161813   6.139   4.642   3.729 -0.3094 -0.7966 -1.8085
13466TIP3    H261814   6.168   4.790   3.741  1.5625 -1.3596  2.3992
13467TIP3   OH261815   2.790   0.986   0.082  0.1317  0.1144  0.2382
13467TIP3    H161816   2.773   1.062   0.025  1.7871  0.2287 -0.1443
13467TIP3    H261817   2.789   0.911   0.023  0.5727  0.0798  0.2760
13468TIP3   OH261818   3.847   6.421  16.453  0.5816  0.1806  0.4495
13468TIP3    H161819   3.798   6.387  16.378  0.1206 -1.1253  1.2906
13468TIP3    H261820   3.785   6.417  16.526  2.0417 -2.1135  1.6890
13469TIP3   OH261821   5.771   4.700  17.228  0.1113 -0.0166 -0.2068
13469TIP3    H161822   5.830   4.712  17.153  0.6029 -2.6031 -0.3210
13469TIP3    H261823   5.787   4.777  17.283  2.0577  0.4016 -1.2435
13470TIP3   OH261824   1.116   5.493  14.377  0.2903  0.1183  0.2878
13470TIP3    H161825   1.148   5.403  14.374 -1.1905 -0.4159 -0.2326
13470TIP3    H261826   1.135   5.522  14.467 -0.5850 -1.2406  0.9455
13471TIP3   OH261827   4.759   6.135  13.029  0.4994  0.3581 -1.1587
13471TIP3    H161828   4.722   6.072  12.968 -0.5063 -1.7822  1.4425
13471TIP3    H261829   4.699   6.209  13.027 -0.1962 -0.2041 -1.8575
13472TIP3   OH261830   1.243   3.833   2.472 -0.5561 -0.1446 -0.0276
13472TIP3    H161831   1.210   3.780   2.544 -0.1934 -0.2201  0.0801
13472TIP3    H261832   1.336   3.844   2.490 -0.2850 -0.8810 -0.9345
13473TIP3   OH261833   0.846   2.974   2.701  0.1058 -1.0530 -0.1335
13473TIP3    H161834   0.754   2.963   2.724  0.0482  0.3519  0.4292
13473TIP3    H261835   0.893   2.965   2.784  0.3290 -0.4370 -0.1836
13474TIP3   OH261836   1.983   5.052   0.728  0.2199 -0.0557  0.6328
13474TIP3    H161837   1.993   5.062   0.822 -0.0700  0.5135  0.6094
13474TIP3    H261838   1.951   4.963   0.716  0.2337 -0.1207  1.0703
13475TIP3   OH261839   2.934   2.758   3.421 -0.1497 -0.3289 -0.0915
13475TIP3    H161840   3.009   2.803   3.458 -1.2135  1.1751  0.3466
13475TIP3    H261841   2.899   2.819   3.356 -1.9493 -0.2267  0.9067
13476TIP3   OH261842   3.359   3.700  12.244 -0.0672  0.8514  0.0175
13476TIP3    H161843   3.352   3.795  12.257  0.5927  1.1988 -1.8566
13476TIP3    H261844   3.378   3.690  12.151 -1.3789 -1.2031 -0.0949
13477TIP3   OH261845   4.845   0.825  13.672 -0.6352 -0.6085 -0.0911
13477TIP3    H161846   4.872   0.779  13.751  0.4795 -0.7830 -0.5636
13477TIP3    H261847   4.758   0.789  13.652 -0.7716 -0.8242  0.8306
13478TIP3   OH261848   3.504   3.515   3.856  0.3033 -0.1184 -0.7955
13478TIP3    H161849   3.463   3.518   3.770  0.1675 -0.3801 -0.7435
13478TIP3    H261850   3.441   3.557   3.914 -0.1213 -0.9555 -0.6312
13479TIP3   OH261851   6.384   0.807   4.453  0.3941  0.3538 -0.3706
13479TIP3    H161852   6.363   0.785   4.544  1.1759  1.8871  0.2193
13479TIP3    H261853   6.400   0.723   4.411 -1.7663 -0.5242  0.4136
13480TIP3   OH261854   5.128   5.978  15.990  0.1245  0.1453  0.1990
13480TIP3    H161855   5.050   6.000  15.938 -0.2373 -0.4361  0.4982
13480TIP3    H261856   5.199   5.973  15.925 -0.3916 -0.9228 -0.2935
13481TIP3   OH261857   3.435   6.127  15.161  0.5369 -0.2320 -0.4165
13481TIP3    H161858   3.504   6.103  15.223 -0.5109 -1.6661  0.2590
13481TIP3    H261859   3.481   6.173  15.091  2.0242 -0.2446  0.5045
13482TIP3   OH261860   4.430   1.618   3.412 -0.2568  0.0515  0.2121
13482TIP3    H161861   4.494   1.548   3.426  0.6210  1.0767  1.4385
13482TIP3    H261862   4.444   1.644   3.321 -0.6660 -1.4074 -0.3047
13483TIP3   OH261863   1.227   3.965  14.168 -0.3098 -0.3384  0.4296
13483TIP3    H161864   1.211   3.885  14.118  0.7360 -0.7228  0.6833
13483TIP3    H261865   1.249   3.934  14.256 -1.0048  0.2836  0.8304
13484TIP3   OH261866   2.851   2.097   5.811 -0.1996 -0.2350  0.2161
13484TIP3    H161867   2.822   2.141   5.891 -0.6174  3.5915 -1.7934
13484TIP3    H261868   2.771   2.056   5.777 -0.5695  0.1157  0.6360
13485TIP3   OH261869   4.142   1.399   4.281 -0.3198 -0.6177  0.0074
13485TIP3    H161870   4.167   1.487   4.253  0.2037 -1.4099 -2.2726
13485TIP3    H261871   4.179   1.390   4.369 -0.7731  1.5643  0.4661
13486TIP3   OH261872   5.330   6.679  14.435  0.4413  0.0374  0.8237
13486TIP3    H161873   5.368   6.652  14.518  0.0055 -0.0656  0.9907
13486TIP3    H261874   5.239   6.700  14.456  0.3961  0.2443  0.4200
13487TIP3   OH261875   1.968   2.322   2.555 -0.0444  0.3507  0.1689
13487TIP3    H161876   1.957   2.291   2.465 -0.8475 -2.8519  1.2203
13487TIP3    H261877   1.913   2.400   2.560 -1.5079 -0.4664 -1.6409
13488TIP3   OH261878   2.367   3.068   2.953  0.1636  0.2650  0.1499
13488TIP3    H161879   2.290   3.125   2.956 -1.1116 -1.3571 -0.4894
13488TIP3    H261880   2.422   3.107   2.886 -1.6087 -0.3084 -1.7401
13489TIP3   OH261881   5.419   5.197  16.461  0.2818 -0.8008  0.1906
13489TIP3    H161882   5.461   5.233  16.383 -0.3518 -0.6495 -0.0883
13489TIP3    H261883   5.333   5.169  16.430  0.2755 -1.3367  0.6971
13490TIP3   OH261884   4.922   3.617  16.037 -0.2254  0.8069 -0.3851
13490TIP3    H161885   4.923   3.553  16.108  0.1678 -1.0187 -1.9499
13490TIP3    H261886   4.830   3.620  16.008 -0.6181  2.4357  0.9039
13491TIP3   OH261887   1.638   6.690   2.079 -0.3788 -0.1581  0.3644
13491TIP3    H161888   1.553   6.662   2.112 -0.7643  0.7055  0.1245
13491TIP3    H261889   1.700   6.660   2.146 -0.6828 -2.0801 -0.1547
13492TIP3   OH261890   2.224   1.522   0.940  0.1244  0.0660  0.8242
13492TIP3    H161891   2.263   1.494   1.023 -0.7442 -0.6377  1.0089
13492TIP3    H261892   2.179   1.444   0.907  1.0391  0.1452 -0.6628
13493TIP3   OH261893   1.491   5.883  11.373  0.2720 -0.5318  0.6928
13493TIP3    H161894   1.455   5.935  11.301 -0.9672  0.6811  2.1061
13493TIP3    H261895   1.569   5.931  11.400 -0.9484  0.7771  2.0878
13494TIP3   OH261896   0.876   0.150   5.621 -0.5514 -0.1216  0.2266
13494TIP3    H161897   0.846   0.104   5.699  0.9215 -2.0331 -0.2463
13494TIP3    H261898   0.941   0.213   5.653 -2.8756  2.0596  0.9263
13495TIP3   OH261899   0.597   0.488   2.355  0.0832 -0.0028 -0.0516
13495TIP3    H161900   0.683   0.454   2.329  0.2917  2.3931 -3.0529
13495TIP3    H261901   0.617   0.565   2.409 -0.1980  0.2203 -0.2655
13496TIP3   OH261902   0.986   1.168   2.292  0.4361  0.7449 -1.0126
13496TIP3    H161903   0.997   1.180   2.387 -0.8214 -1.6880 -0.4843
13496TIP3    H261904   1.041   1.093   2.270 -0.7577  0.0693 -1.8149
13497TIP3   OH261905   1.482   5.287  12.171  0.3488 -0.0595 -0.2194
13497TIP3    H161906   1.428   5.274  12.249  0.7867  2.1191  0.5185
13497TIP3    H261907   1.491   5.199  12.133 -1.4185 -0.8879  1.1297
13498TIP3   OH261908   6.413   5.250   5.595  0.2346  0.6496 -0.4362
13498TIP3    H161909   6.393   5.232   5.686  0.7179  0.8139 -0.2934
13498TIP3    H261910   6.503   5.221   5.584 -0.5442 -1.5475 -1.4750
13499TIP3   OH261911   5.049   4.583  14.966 -0.0032 -0.0553 -0.2808
13499TIP3    H161912   4.979   4.625  14.915 -0.2342 -0.3884 -0.2390
13499TIP3    H261913   5.128   4.600  14.915  0.1679  1.7938  0.5092
13500TIP3   OH261914   0.197   2.972  15.882  0.3385 -0.0846  0.0514
13500TIP3    H161915   0.166   3.018  15.960 -1.9310  1.4372 -1.6476
13500TIP3    H261916   0.292   2.984  15.884  0.0513  2.6059  0.9625
13501TIP3   OH261917   3.415   3.633  13.333  0.7489 -0.3580 -0.0168
13501TIP3    H161918   3.507   3.609  13.346  0.3936 -0.7103  2.3946
13501TIP3    H261919   3.374   3.554  13.299  0.8061 -1.2430  1.8328
13502TIP3   OH261920   1.710   3.715  12.740  0.3741 -0.0949  0.8261
13502TIP3    H161921   1.699   3.685  12.830 -0.2647 -1.1661  0.4097
13502TIP3    H261922   1.660   3.652  12.687  0.7425  0.5086 -0.2769
13503TIP3   OH261923   6.233   4.944  12.562  0.1414 -0.4398 -0.2821
13503TIP3    H161924   6.277   4.865  12.595 -1.4656 -1.1676  0.2182
13503TIP3    H261925   6.140   4.926  12.573 -0.3045  1.0808 -1.2388
13504TIP3   OH261926   0.799   0.208  15.996  0.5905 -0.1251 -0.7183
13504TIP3    H161927   0.779   0.231  16.087  3.4600  0.9932 -0.2735
13504TIP3    H261928   0.821   0.292  15.955  1.9959 -0.9300 -1.6867
13505TIP3   OH261929   5.621   2.540   5.125 -0.3228  0.0984  0.2670
13505TIP3    H161930   5.637   2.606   5.193 -0.9359  0.0046  0.5072
13505TIP3    H261931   5.566   2.475   5.167 -3.6596  1.7209 -1.2030
13506TIP3   OH261932   5.100   4.621   4.421 -0.0751  0.2033  0.2482
13506TIP3    H161933   5.037   4.679   4.464  0.1730  0.3664  0.3992
13506TIP3    H261934   5.182   4.672   4.420 -0.3306  0.6403 -1.3873
13507TIP3   OH261935   0.512   1.164   6.289 -0.5841  0.0593  0.0514
13507TIP3    H161936   0.492   1.072   6.307  1.5034 -0.2742  1.0098
13507TIP3    H261937   0.599   1.162   6.249  0.0045  1.6494  1.1428
13508TIP3   OH261938   5.707   5.450   5.283 -0.5392  0.2411  0.4600
13508TIP3    H161939   5.617   5.471   5.260 -0.4355  0.4577  0.2491
13508TIP3    H261940   5.760   5.495   5.217 -0.3144 -0.8033 -0.0846
13509TIP3   OH261941   1.683   1.991  12.558 -0.0092  0.2528  0.5676
13509TIP3    H161942   1.677   2.035  12.473  2.3460  2.0645  1.2306
13509TIP3    H261943   1.742   1.917  12.541 -2.0587 -1.3197 -0.0109
13510TIP3   OH261944   1.503   5.381   5.406  0.4649 -0.5217  0.3642
13510TIP3    H161945   1.487   5.459   5.352  1.5307 -0.4240  0.1693
13510TIP3    H261946   1.443   5.315   5.370  2.3630 -1.0229 -2.1883
13511TIP3   OH261947   6.212   5.227  13.088 -0.1803  0.8983 -0.7953
13511TIP3    H161948   6.158   5.293  13.045  1.8764  2.8518 -0.5642
13511TIP3    H261949   6.200   5.148  13.035 -1.9243  1.6896 -1.6787
13512TIP3   OH261950   2.278   0.213   4.976 -0.1889  0.0668  0.4160
13512TIP3    H161951   2.345   0.147   4.993  2.4764  1.5823 -3.0568
13512TIP3    H261952   2.322   0.297   4.991 -2.2035  1.1456  0.7066
13513TIP3   OH261953   2.086   1.377   3.557 -0.1590 -0.6329 -0.1244
13513TIP3    H161954   2.113   1.339   3.473  0.4893 -0.6224  0.0758
13513TIP3    H261955   2.161   1.364   3.614 -0.2624  0.1714  0.1971
13514TIP3   OH261956   1.347   4.188  13.110  0.0633 -0.4050 -0.2359
13514TIP3    H161957   1.427   4.212  13.063 -0.2218  0.5648 -0.2525
13514TIP3    H261958   1.338   4.094  13.096 -0.0796 -0.1391 -2.2532
13515TIP3   OH261959   6.535   3.364  11.704  0.1308  0.2646  0.3632
13515TIP3    H161960   6.617   3.404  11.675  0.1239  0.7939  1.0401
13515TIP3    H261961   6.545   3.354  11.799  0.5134 -2.2617  0.1373
13516TIP3   OH261962   2.983   0.384  15.206 -0.0833 -0.1510 -0.0458
13516TIP3    H161963   3.004   0.409  15.116 -0.1328 -1.7657 -0.5254
13516TIP3    H261964   2.939   0.461  15.242 -1.2523  0.0658 -1.8194
13517TIP3   OH261965   0.841   5.909   3.915  0.0587 -0.2751 -0.1217
13517TIP3    H161966   0.908   5.845   3.894 -0.9754 -1.2550 -0.5416
13517TIP3    H261967   0.784   5.865   3.977 -1.6949 -0.4786 -1.7672
13518TIP3   OH261968   5.931   0.118  16.029  0.1958 -0.1249 -0.5460
13518TIP3    H161969   5.927   0.184  16.098  0.7495 -0.0826 -0.5491
13518TIP3    H261970   5.910   0.035  16.073 -0.8868  0.0935 -0.6179
13519TIP3   OH261971   2.943   5.551   0.568  0.3295 -0.0703 -0.2856
13519TIP3    H161972   2.989   5.622   0.524  0.7291 -0.6474 -0.8175
13519TIP3    H261973   2.867   5.593   0.608  1.5377  0.9774  0.9902
13520TIP3   OH261974   2.688   1.621   4.417  0.4211  0.3905  0.4124
13520TIP3    H161975   2.663   1.704   4.377  0.1793  0.7573  1.3035
13520TIP3    H261976   2.720   1.645   4.504  0.9992 -0.3843  0.4265
13521TIP3   OH261977   0.200   2.897  10.663  0.5142 -0.2619 -0.5822
13521TIP3    H161978   0.257   2.960  10.708 -1.9000  0.4215  1.8182
13521TIP3    H261979   0.145   2.950  10.605  0.7099 -0.5987 -1.0819
13522TIP3   OH261980   5.317   4.812   5.945 -0.0345  0.0616  0.7408
13522TIP3    H161981   5.408   4.811   5.916 -0.4692  0.9613 -0.7634
13522TIP3    H261982   5.319   4.854   6.031  1.0718 -0.8780  1.1938
13523TIP3   OH261983   4.766   5.068   5.935 -0.3093  0.5898  0.5961
13523TIP3    H161984   4.754   4.973   5.926  0.3687  0.5807 -0.3338
13523TIP3    H261985   4.840   5.088   5.878 -0.5308  1.7020  0.6848
13524TIP3   OH261986   6.123   1.843   4.603 -0.3777  0.1714 -0.3283
13524TIP3    H161987   6.177   1.861   4.680 -0.4385  1.8322 -0.6243
13524TIP3    H261988   6.041   1.808   4.638 -0.3001  0.6598  0.3537
13525TIP3   OH261989   1.093   6.621   0.662 -0.5478  0.4310  0.5703
13525TIP3    H161990   1.112   6.714   0.647  0.7184  0.2644  0.9643
13525TIP3    H261991   1.001   6.619   0.688 -0.3504  1.6919  1.4705
13526TIP3   OH261992   4.649   4.900   0.853  0.0257 -0.1855  0.0915
13526TIP3    H161993   4.668   4.969   0.790  0.2171 -0.7065 -0.4387
13526TIP3    H261994   4.735   4.871   0.885 -0.0749  0.1528  0.6837
13527TIP3   OH261995   4.206   0.297   2.556 -0.0119  0.4496 -0.0961
13527TIP3    H161996   4.234   0.222   2.504  0.5474  0.5094  0.1048
13527TIP3    H261997   4.288   0.339   2.582 -0.3126  0.9969 -0.0159
13528TIP3   OH261998   5.241   3.209  15.886 -0.5531  0.5740  0.1002
13528TIP3    H161999   5.288   3.158  15.819 -2.4395  0.3922 -1.1542
13528TIP3    H262000   5.252   3.300  15.858  0.7339  0.7110  0.9654
13529TIP3   OH262001   3.426   4.453  16.629 -0.3236 -0.1628 -0.4195
13529TIP3    H162002   3.437   4.548  16.633  0.1654 -0.1771 -1.2331
13529TIP3    H262003   3.388   4.429  16.714  0.2858  0.6604  0.0986
13530TIP3   OH262004   3.085   3.742  17.051  1.2428 -0.4896 -0.1650
13530TIP3    H162005   3.173   3.747  17.089  1.7361  0.4339 -1.3277
13530TIP3    H262006   3.054   3.655  17.073  1.9778 -0.4147  1.2687
13531TIP3   OH262007   1.578   6.406  12.674 -0.1156  0.4033 -0.1468
13531TIP3    H162008   1.624   6.335  12.720 -0.0955  0.0797 -0.6544
13531TIP3    H262009   1.636   6.481  12.682  0.1815  0.1801 -0.1877
13532TIP3   OH262010   3.237   4.133   6.474 -0.4989  0.6923 -0.0033
13532TIP3    H162011   3.321   4.096   6.498 -0.1655 -0.3022 -2.4023
13532TIP3    H262012   3.186   4.133   6.555  0.4027 -2.5963  0.7048
13533TIP3   OH262013   2.856   4.536  15.459  0.6035  0.5326 -0.6453
13533TIP3    H162014   2.881   4.629  15.463 -0.1354  0.7100  0.0613
13533TIP3    H262015   2.905   4.501  15.384  0.9155  1.4837 -0.8975
13534TIP3   OH262016   3.126   1.563  11.692 -0.1421  0.6589 -0.0872
13534TIP3    H162017   3.056   1.555  11.757  0.3551  0.8097  0.4710
13534TIP3    H262018   3.084   1.540  11.609 -0.7656  0.3969  0.2948
13535TIP3   OH262019   3.202   3.450   1.438  0.5259  0.0775  0.0850
13535TIP3    H162020   3.232   3.410   1.356 -0.6134  2.5247 -1.6536
13535TIP3    H262021   3.273   3.508   1.464 -0.4641  1.9750 -1.2059
13536TIP3   OH262022   5.773   2.094  16.733  0.6763 -0.0582 -0.2065
13536TIP3    H162023   5.830   2.089  16.810 -0.2000 -0.9684  0.3957
13536TIP3    H262024   5.800   2.021  16.678 -1.5207 -2.0791  1.2403
13537TIP3   OH262025   0.791   4.314  11.367 -1.1323  0.0759  0.0579
13537TIP3    H162026   0.759   4.390  11.318  1.4299  0.8102 -0.6166
13537TIP3    H262027   0.854   4.350  11.429  0.3802 -1.4641 -0.4881
13538TIP3   OH262028   5.488   4.165  16.827 -0.7113 -0.4343  0.1025
13538TIP3    H162029   5.468   4.083  16.871  1.9027 -0.7285  0.9344
13538TIP3    H262030   5.529   4.219  16.896 -1.2970  1.1295 -0.7174
13539TIP3   OH262031   5.118   0.898  10.392  0.1094  0.3035  0.0472
13539TIP3    H162032   5.168   0.839  10.335  1.7855  1.1236  0.5841
13539TIP3    H262033   5.151   0.985  10.370 -0.2287  0.7597  1.2721
13540TIP3   OH262034   2.062   5.057   6.197 -0.4682 -0.3728 -0.2967
13540TIP3    H162035   1.998   5.017   6.256 -2.7941  2.1898 -0.9104
13540TIP3    H262036   2.010   5.106   6.133  2.0727  1.2897 -1.2701
13541TIP3   OH262037   0.278   0.504  13.269 -0.1746  0.2689  0.2210
13541TIP3    H162038   0.253   0.487  13.360  2.5423 -1.3380  0.7774
13541TIP3    H262039   0.333   0.582  13.274 -1.0242  0.9259 -0.2808
13542TIP3   OH262040   0.404   1.772   0.771  0.3669  0.7906  0.1746
13542TIP3    H162041   0.409   1.779   0.866  1.8290 -1.1216  0.2961
13542TIP3    H262042   0.495   1.775   0.741  0.1995 -1.7122 -0.8361
13543TIP3   OH262043   1.472   3.831  14.591  0.0632  0.0703 -0.3130
13543TIP3    H162044   1.552   3.864  14.633  0.4938  0.3880 -1.3458
13543TIP3    H262045   1.401   3.880  14.633  0.6078  1.5714 -1.0332
13544TIP3   OH262046   6.756   5.453   5.101 -0.5392  0.0666  0.1071
13544TIP3    H162047   6.694   5.500   5.157 -1.3548 -0.3568 -0.4169
13544TIP3    H262048   6.702   5.421   5.028  0.0356 -1.4476  0.3161
13545TIP3   OH262049   6.564   3.029  11.324  0.3266  0.1618  0.8592
13545TIP3    H162050   6.652   3.068  11.316 -0.0204  0.8675  0.4284
13545TIP3    H262051   6.538   3.048  11.413  0.2995  0.6244  0.7543
13546TIP3   OH262052   6.638   1.128  14.287 -0.6942 -0.7400  0.0464
13546TIP3    H162053   6.565   1.113  14.227 -0.8154  2.6434 -0.8906
13546TIP3    H262054   6.715   1.132  14.231 -0.3917 -0.3134  0.4823
13547TIP3   OH262055   6.229   2.980  11.689 -0.0535  0.2974  0.3815
13547TIP3    H162056   6.175   2.983  11.768  1.6403 -1.6543  1.7471
13547TIP3    H262057   6.296   2.914  11.710  1.8426  1.4238 -1.8230
13548TIP3   OH262058   2.926   3.936  15.853  0.3452  0.2816  0.3447
13548TIP3    H162059   2.998   3.915  15.912  1.1134 -0.2236 -0.7421
13548TIP3    H262060   2.850   3.891  15.891  0.7169  0.3394  1.1779
13549TIP3   OH262061   1.970   6.505  16.388  0.1286  0.0519  0.3348
13549TIP3    H162062   2.059   6.497  16.424  1.5018  2.5098 -2.0873
13549TIP3    H262063   1.980   6.484  16.296 -1.5356  1.4613 -0.2231
13550TIP3   OH262064   4.061   0.588  14.033 -0.3605  0.9786 -0.1112
13550TIP3    H162065   4.000   0.657  14.005 -1.2937 -0.6375 -2.3939
13550TIP3    H262066   4.011   0.507  14.024  0.9962 -0.1193  1.5861
13551TIP3   OH262067   5.960   5.595  16.198  0.4370  0.1527  0.0317
13551TIP3    H162068   5.897   5.524  16.207 -2.6920  2.8648  1.7518
13551TIP3    H262069   5.911   5.666  16.157  2.9110  1.8927 -0.1508
13552TIP3   OH262070   6.250   5.803   1.857 -0.0543  0.1939  0.0449
13552TIP3    H162071   6.332   5.793   1.906  0.1120 -0.1084 -0.2942
13552TIP3    H262072   6.184   5.764   1.913  0.2769 -1.0007 -0.3703
13553TIP3   OH262073   3.193   3.612   6.095  0.8556 -0.3947 -0.1065
13553TIP3    H162074   3.145   3.693   6.074  1.6944  0.4064  0.9355
13553TIP3    H262075   3.149   3.579   6.173 -0.1081 -1.5169 -1.0840
13554TIP3   OH262076   6.315   4.692   3.083 -0.0525  0.0412 -0.1215
13554TIP3    H162077   6.321   4.781   3.050 -2.5058 -0.0156 -0.9411
13554TIP3    H262078   6.247   4.695   3.150  0.0546 -1.1333  0.0654
13555TIP3   OH262079   6.639   3.195  10.742 -0.0262  0.7425  0.4427
13555TIP3    H162080   6.611   3.107  10.720  0.1738  1.0544 -1.1626
13555TIP3    H262081   6.560   3.248  10.739  0.1685  0.9927 -0.7144
13556TIP3   OH262082   6.620   0.177  14.881 -0.4025  0.0519 -0.1916
13556TIP3    H162083   6.667   0.148  14.959  1.0414 -0.1793 -1.1087
13556TIP3    H262084   6.620   0.101  14.822  0.1536  0.7558 -1.1331
13557TIP3   OH262085   6.551   3.781   2.226  0.2179  0.5754 -0.2097
13557TIP3    H162086   6.562   3.692   2.192  0.3385  1.2258 -1.9454
13557TIP3    H262087   6.457   3.796   2.224  0.2020  0.5166  0.0312
13558TIP3   OH262088   2.911   6.258  15.471  0.5174  0.3964  0.5626
13558TIP3    H162089   2.987   6.307  15.439  0.9321 -0.5406  0.0604
13558TIP3    H262090   2.947   6.199  15.538  0.3039 -0.2668  0.1103
13559TIP3   OH262091   1.711   2.179   4.627 -0.0342  0.1939 -0.2368
13559TIP3    H162092   1.667   2.094   4.625  1.7641 -0.7795 -0.1675
13559TIP3    H262093   1.723   2.197   4.720 -2.4895  1.7193 -0.1177
13560TIP3   OH262094   4.237   3.152  13.496 -0.2405 -0.3014 -0.1201
13560TIP3    H162095   4.192   3.102  13.427 -0.8648 -0.2754  0.2616
13560TIP3    H262096   4.185   3.137  13.574  2.0253 -2.6976  1.0962
13561TIP3   OH262097   4.320   0.361   6.252 -0.0622 -0.2147  0.0293
13561TIP3    H162098   4.412   0.345   6.271 -0.1318  1.6691  2.3188
13561TIP3    H262099   4.320   0.437   6.194 -0.1677 -0.1374  0.1291
13562TIP3   OH262100   4.628   0.872  16.984  0.2039 -0.2808  0.3110
13562TIP3    H162101   4.561   0.937  16.961  0.4116 -0.0602  0.3197
13562TIP3    H262102   4.632   0.814  16.908  1.3911  0.8568 -0.5556
13563TIP3   OH262103   3.735   4.932   3.151 -0.0179 -0.5097  0.4567
13563TIP3    H162104   3.739   4.876   3.229 -0.7690 -1.0065  0.1492
13563TIP3    H262105   3.713   5.019   3.184 -0.1205 -0.6717  0.8169
13564TIP3   OH262106   6.482   4.183   6.746  0.3029 -0.0551 -0.2163
13564TIP3    H162107   6.424   4.154   6.675  0.2587 -1.0086  0.2013
13564TIP3    H262108   6.568   4.150   6.721  0.5759  0.8690 -0.5468
13565TIP3   OH262109   4.603   4.830  14.879 -0.3252 -0.1509 -0.1756
13565TIP3    H162110   4.634   4.847  14.968  2.1288 -1.4281 -0.7049
13565TIP3    H262111   4.609   4.915  14.835 -0.6438  0.2812  0.5867
13566TIP3   OH262112   5.515   5.638  11.533 -0.4746  0.6972 -0.3297
13566TIP3    H162113   5.533   5.729  11.509  1.4082  0.8467  1.4113
13566TIP3    H262114   5.583   5.616  11.596 -2.6504 -0.9842  1.6118
13567TIP3   OH262115   3.330   0.747   3.486 -0.0784 -0.6624 -0.6381
13567TIP3    H162116   3.304   0.670   3.435  2.2631 -0.3998 -2.3743
13567TIP3    H262117   3.422   0.732   3.508  0.4619  1.6666 -1.1099
13568TIP3   OH262118   4.128   2.597   1.758 -0.3534  0.2157 -0.2462
13568TIP3    H162119   4.059   2.661   1.775 -0.6438 -0.5315  1.6253
13568TIP3    H262120   4.129   2.587   1.663 -3.0170  0.0710 -0.3323
13569TIP3   OH262121   1.122   4.046  15.376 -0.3719  0.0634 -0.3876
13569TIP3    H162122   1.044   3.991  15.372  1.1797 -2.4530  0.9560
13569TIP3    H262123   1.185   4.001  15.319  0.8964  0.5525  0.5797
13570TIP3   OH262124   4.605   2.903  15.680  0.1199  0.4213 -0.2538
13570TIP3    H162125   4.658   2.938  15.752  1.0465  0.8113 -1.1105
13570TIP3    H262126   4.599   2.974  15.617 -0.9541  0.1820 -0.4363
13571TIP3   OH262127   0.177   0.112   1.602 -0.8515 -0.6258  0.0474
13571TIP3    H162128   0.192   0.143   1.513 -1.7193  0.7536  0.3591
13571TIP3    H262129   0.127   0.031   1.591  1.6175 -2.1378 -0.7862
13572TIP3   OH262130   1.292   2.086  11.532 -0.6880 -0.0914  0.3281
13572TIP3    H162131   1.336   2.167  11.559 -1.2312 -0.2657  1.8166
13572TIP3    H262132   1.270   2.100  11.440 -1.4319  1.7663  0.7517
13573TIP3   OH262133   0.071   1.207  13.518  0.2453 -0.1393 -0.0827
13573TIP3    H162134   0.112   1.281  13.562 -0.8026 -0.8742  2.3090
13573TIP3    H262135   0.097   1.131  13.570 -0.0639 -1.2330 -1.4844
13574TIP3   OH262136   5.897   3.292   2.928 -0.6102  0.7076  0.0068
13574TIP3    H162137   5.946   3.363   2.969  0.1121  0.1792  0.0794
13574TIP3    H262138   5.806   3.323   2.926 -0.6244  0.8500  1.7674
13575TIP3   OH262139   5.796   6.543   3.433 -0.0928  1.2664 -0.6355
13575TIP3    H162140   5.726   6.483   3.458  1.2493  0.2127  0.7766
13575TIP3    H262141   5.834   6.503   3.355 -0.5425  1.4182 -0.9374
13576TIP3   OH262142   4.113   5.579   1.484 -0.4181  0.1141 -0.4377
13576TIP3    H162143   4.103   5.651   1.546  0.5418 -1.9062  2.2180
13576TIP3    H262144   4.203   5.587   1.452 -0.8875  1.1041 -1.6244
13577TIP3   OH262145   1.230   0.662  10.915 -0.2911  0.0990  0.2018
13577TIP3    H162146   1.248   0.568  10.905 -3.0210 -0.6622  1.5506
13577TIP3    H262147   1.169   0.682  10.844 -0.3641  0.6588  0.4214
13578TIP3   OH262148   5.453   5.513   2.605 -0.6929 -0.4507 -0.2828
13578TIP3    H162149   5.391   5.562   2.657  0.7562  0.9987  0.1537
13578TIP3    H262150   5.532   5.509   2.658 -0.1084 -1.4848 -1.1727
13579TIP3   OH262151   5.087   3.086  12.309 -0.0497  0.5755 -0.4358
13579TIP3    H162152   5.175   3.056  12.285 -0.4336 -0.2203 -0.9093
13579TIP3    H262153   5.028   3.027  12.260 -0.8440  0.5325  0.5464
13580TIP3   OH262154   2.427   2.017   5.401  0.2131 -0.1792  0.0134
13580TIP3    H162155   2.398   2.084   5.462 -0.3745  0.0146 -0.4643
13580TIP3    H262156   2.520   2.037   5.385  0.3899 -0.2778  0.8828
13581TIP3   OH262157   3.523   1.126  11.000  0.1786 -0.2794 -0.5191
13581TIP3    H162158   3.527   1.077  10.918  0.1227 -2.8809  0.9047
13581TIP3    H262159   3.611   1.117  11.038  0.1723  0.7842 -0.2186
13582TIP3   OH262160   2.928   5.880   0.285  0.0302  0.0055  0.2473
13582TIP3    H162161   2.869   5.892   0.211  0.0447 -0.5139  0.1478
13582TIP3    H262162   2.891   5.934   0.354 -1.1732 -1.1152  0.5285
13583TIP3   OH262163   5.098   1.139  15.155  0.2591  0.1849 -0.2141
13583TIP3    H162164   5.184   1.101  15.135  0.8983  1.5757 -0.2205
13583TIP3    H262165   5.082   1.202  15.084 -0.2430  0.7404  0.3808
13584TIP3   OH262166   3.067   4.318  16.560 -1.0772  0.2071  0.0205
13584TIP3    H162167   3.161   4.326  16.543 -1.1992  1.5333 -0.1200
13584TIP3    H262168   3.037   4.252  16.497 -0.2266 -0.3745  0.2016
13585TIP3   OH262169   0.366   2.461  15.250  0.2100 -0.1908  0.0520
13585TIP3    H162170   0.370   2.557  15.248 -1.5423 -0.0993 -0.0584
13585TIP3    H262171   0.399   2.438  15.337 -0.0316  0.5484  0.3440
13586TIP3   OH262172   2.587   5.497  16.612  0.0245 -0.0477 -0.0482
13586TIP3    H162173   2.645   5.453  16.675 -1.7213  0.7840  2.3252
13586TIP3    H262174   2.558   5.428  16.554  1.9391 -0.8148 -0.1620
13587TIP3   OH262175   4.699   4.670  11.331 -1.2323  0.1122 -0.1462
13587TIP3    H162176   4.617   4.622  11.320 -1.5766  0.6767 -0.0585
13587TIP3    H262177   4.679   4.760  11.304 -1.2548  0.7974  1.9838
13588TIP3   OH262178   2.916   3.119  12.188 -0.1539 -0.4084  0.0690
13588TIP3    H162179   2.930   3.058  12.115  0.1329 -0.2631  0.0041
13588TIP3    H262180   2.820   3.124  12.195 -0.2203  0.6097 -1.1780
13589TIP3   OH262181   2.337   1.913   1.685  0.2303 -0.0195  0.0903
13589TIP3    H162182   2.391   1.952   1.615  1.1084  0.6045  1.0895
13589TIP3    H262183   2.374   1.825   1.696  1.1670  0.4536  0.8652
13590TIP3   OH262184   0.752   2.014   3.334 -0.5841  0.5442 -0.0278
13590TIP3    H162185   0.803   2.082   3.289  1.2570 -0.5867  0.2412
13590TIP3    H262186   0.689   2.063   3.386 -0.4063  1.9896 -1.1006
13591TIP3   OH262187   0.938   4.456   4.760 -0.8503  0.2312 -0.3207
13591TIP3    H162188   0.866   4.440   4.700 -1.2296 -0.7376  0.3699
13591TIP3    H262189   0.899   4.504   4.833 -0.4907  0.9660 -0.5937
13592TIP3   OH262190   1.361   0.840  11.112  0.3485 -0.6245 -0.0182
13592TIP3    H162191   1.385   0.924  11.071  2.1917 -1.5250 -0.9405
13592TIP3    H262192   1.325   0.788  11.040  0.7698 -1.1727  0.1579
13593TIP3   OH262193   3.029   4.872  16.233 -0.0836 -0.4397 -0.4529
13593TIP3    H162194   3.049   4.962  16.209 -0.8269 -0.1504 -0.0038
13593TIP3    H262195   2.966   4.879  16.305  3.2905 -1.1810  2.9553
13594TIP3   OH262196   2.673   3.957   6.364  0.1449  0.2414  0.4500
13594TIP3    H162197   2.620   4.033   6.343  1.4039  1.9160  2.8468
13594TIP3    H262198   2.698   3.969   6.456  3.7304 -0.9700 -0.1728
13595TIP3   OH262199   4.761   2.686  15.574  0.4660 -0.0134  0.4090
13595TIP3    H162200   4.711   2.761  15.605  2.6665  1.2046  1.2935
13595TIP3    H262201   4.776   2.704  15.481 -1.1944 -0.7265 -0.0371
13596TIP3   OH262202   1.876   3.020  12.059  0.0297  0.1743 -0.8859
13596TIP3    H162203   1.953   3.060  12.099 -1.0704 -0.0712  1.6633
13596TIP3    H262204   1.911   2.946  12.009  1.4040 -0.7139  1.2263
13597TIP3   OH262205   5.890   2.285  14.696  0.3382  0.4862  0.2722
13597TIP3    H162206   5.949   2.357  14.675  1.4744 -0.2970  0.6762
13597TIP3    H262207   5.907   2.220  14.629  0.3532  0.0223  0.7232
13598TIP3   OH262208   4.966   0.089   5.933 -0.1506  0.0409 -0.1462
13598TIP3    H162209   5.034   0.028   5.902  0.5379  0.3967  0.6396
13598TIP3    H262210   4.894   0.076   5.871  0.0851 -1.3718 -0.1725
13599TIP3   OH262211   1.617   2.222   2.352  0.3654 -1.0420  0.0933
13599TIP3    H162212   1.555   2.275   2.403  1.7118 -0.4755  1.2161
13599TIP3    H262213   1.648   2.280   2.284  1.0026 -0.7260  0.6421
13600TIP3   OH262214   2.993   1.858   3.163 -0.2804  0.5320  0.6959
13600TIP3    H162215   2.915   1.806   3.181 -0.1865 -0.2205 -0.9275
13600TIP3    H262216   3.003   1.913   3.241 -3.9170  2.5675 -0.0316
13601TIP3   OH262217   1.849   5.351   6.220 -0.2735 -0.5098  0.0648
13601TIP3    H162218   1.811   5.339   6.307  0.1736  0.1872  0.3588
13601TIP3    H262219   1.918   5.416   6.232  2.5840 -3.3100 -0.0323
13602TIP3   OH262220   4.660   3.577   4.708  0.4194 -0.5336  0.2412
13602TIP3    H162221   4.586   3.597   4.766  0.2373  0.1913 -0.2170
13602TIP3    H262222   4.722   3.649   4.724  1.1311 -1.2548  0.7815
13603TIP3   OH262223   2.518   4.440   3.447  0.2588 -0.2218 -0.0910
13603TIP3    H162224   2.508   4.362   3.502 -2.3839  0.1192  0.0081
13603TIP3    H262225   2.437   4.446   3.398  1.3202  1.2426 -1.7867
13604TIP3   OH262226   2.852   4.595   1.498 -0.6458 -0.1747  0.0805
13604TIP3    H162227   2.934   4.567   1.539  0.2737  0.5626 -1.1490
13604TIP3    H262228   2.837   4.683   1.533 -0.7479 -0.1915  0.0790
13605TIP3   OH262229   6.001   6.106   4.733 -0.6122 -0.0504  0.2375
13605TIP3    H162230   6.078   6.108   4.676 -0.9581  0.1415 -0.2305
13605TIP3    H262231   5.927   6.096   4.673 -0.8315 -2.5742  0.7909
13606TIP3   OH262232   4.058   1.580   3.806  0.0225  0.2840 -0.2965
13606TIP3    H162233   4.067   1.564   3.712  2.6624 -0.3034 -0.0362
13606TIP3    H262234   4.035   1.673   3.812  1.3735  0.7369 -1.5186
13607TIP3   OH262235   3.247   0.436   1.741  0.3754  0.0776 -0.3689
13607TIP3    H162236   3.294   0.405   1.818 -0.1209 -0.7896 -0.4050
13607TIP3    H262237   3.244   0.531   1.752  1.0780  0.0422  0.2291
13608TIP3   OH262238   0.631   5.599  12.301 -0.1556 -0.1381  0.3066
13608TIP3    H162239   0.582   5.533  12.252 -1.0058  0.5387  0.2136
13608TIP3    H262240   0.589   5.682  12.277  1.5983  0.5783 -0.4773
13609TIP3   OH262241   6.481   2.228  11.221  0.4703 -0.3205  0.0547
13609TIP3    H162242   6.424   2.174  11.166 -0.0102  0.9994 -0.7722
13609TIP3    H262243   6.543   2.268  11.160 -0.0591  1.1526  0.4366
13610TIP3   OH262244   5.141   2.166  17.253  0.5488 -0.2045  0.4615
13610TIP3    H162245   5.077   2.094  17.255  0.7446 -0.3760  1.3445
13610TIP3    H262246   5.094   2.241  17.288  0.3594  0.0948 -0.4145
13611TIP3   OH262247   4.482   3.670  13.156  0.2921  0.3784 -0.2731
13611TIP3    H162248   4.534   3.699  13.230 -0.5199  0.0472  0.4439
13611TIP3    H262249   4.545   3.632  13.095  0.9204  0.3290  0.4031
13612TIP3   OH262250   3.607   0.071   5.513 -0.3049  0.1800 -0.2669
13612TIP3    H162251   3.566   0.111   5.436 -2.5574 -1.5289 -0.0637
13612TIP3    H262252   3.549   0.092   5.586  1.0109  0.5225  0.7205
13613TIP3   OH262253   3.094   1.451   5.814  0.5749 -0.1841 -0.2928
13613TIP3    H162254   3.146   1.471   5.736 -1.4230  0.9864 -1.4369
13613TIP3    H262255   3.007   1.486   5.794 -0.3521 -0.9681  1.9865
13614TIP3   OH262256   3.669   0.404   3.745 -0.1429  0.5244 -0.1970
13614TIP3    H162257   3.606   0.388   3.675  1.2706  1.9242 -1.9005
13614TIP3    H262258   3.630   0.474   3.798 -0.8957 -0.0387  0.0080
13615TIP3   OH262259   4.565   1.336   1.131 -0.1494 -0.0814 -0.1056
13615TIP3    H162260   4.651   1.365   1.161 -0.9512  0.8961  1.4042
13615TIP3    H262261   4.542   1.399   1.062 -1.5205  2.6964  2.5961
13616TIP3   OH262262   6.500   2.450   4.699  0.3249  0.2887 -0.0382
13616TIP3    H162263   6.449   2.508   4.644 -1.2620  0.3953  1.4473
13616TIP3    H262264   6.542   2.508   4.762  1.1650  0.0731 -0.3951
13617TIP3   OH262265   0.878   3.984   5.894 -0.3316  0.4002  0.2457
13617TIP3    H162266   0.865   3.892   5.872 -0.6967  0.4656  0.1740
13617TIP3    H262267   0.819   4.031   5.835 -1.3904  0.5784  1.4039
13618TIP3   OH262268   5.741   5.773  10.931  0.0883  0.3297  0.3451
13618TIP3    H162269   5.819   5.755  10.879 -1.1617 -2.8557 -0.6584
13618TIP3    H262270   5.678   5.808  10.868  0.1648  1.3867  0.8334
13619TIP3   OH262271   0.901   1.069   3.307  0.2054  0.8949  0.6292
13619TIP3    H162272   0.810   1.044   3.319  0.8443 -1.6434  0.7934
13619TIP3    H262273   0.936   1.078   3.395  0.4230  0.6361  0.5695
13620TIP3   OH262274   0.823   2.382   1.266  0.3628 -0.1451  0.1952
13620TIP3    H162275   0.842   2.436   1.190  0.3382  0.2790  0.4853
13620TIP3    H262276   0.736   2.347   1.249 -1.1564  2.6771  1.5369
13621TIP3   OH262277   4.842   0.690  12.211  0.0974 -0.5475  0.2422
13621TIP3    H162278   4.838   0.760  12.277 -0.1907  0.3722 -0.7231
13621TIP3    H262279   4.777   0.626  12.241  0.1115 -0.2420  0.9611
13622TIP3   OH262280   0.695   1.789  15.826  0.1146  0.3823 -0.7696
13622TIP3    H162281   0.625   1.754  15.881  0.5052  0.8029  0.0220
13622TIP3    H262282   0.651   1.837  15.757 -0.3898 -0.1014 -0.7850
13623TIP3   OH262283   4.314   2.008  17.361 -0.0335  0.2786 -0.2268
13623TIP3    H162284   4.235   1.984  17.408 -0.4830  0.6731 -0.7683
13623TIP3    H262285   4.339   1.929  17.314  1.4575 -0.7017  2.0509
13624TIP3   OH262286   2.107   0.477  11.100 -0.1329 -0.2888 -0.9437
13624TIP3    H162287   2.086   0.525  11.180 -0.6432 -1.2730 -0.4584
13624TIP3    H262288   2.022   0.461  11.059 -0.0629 -1.4959 -0.6516
13625TIP3   OH262289   4.690   3.423  14.955 -0.2419 -0.8960 -0.2761
13625TIP3    H162290   4.752   3.486  14.919 -0.3199 -0.8845 -0.3920
13625TIP3    H262291   4.744   3.357  14.997 -0.1675  0.6397  2.2946
13626TIP3   OH262292   3.941   2.072  12.572  0.1296 -0.7582  0.3583
13626TIP3    H162293   3.955   2.148  12.628  2.1991 -0.1438 -0.8529
13626TIP3    H262294   3.852   2.081  12.540  0.5300  1.6088 -0.3094
13627TIP3   OH262295   0.217   3.923  10.947  0.2387  0.6678 -0.0897
13627TIP3    H162296   0.283   3.988  10.971  1.0460 -1.0327  2.6167
13627TIP3    H262297   0.254   3.878  10.871  1.2714  1.0167  0.2006
13628TIP3   OH262298   4.277   5.863  12.830 -0.0097 -0.5466  0.0394
13628TIP3    H162299   4.331   5.832  12.757  0.6587  0.6104  0.0247
13628TIP3    H262300   4.197   5.896  12.789  0.4412  0.2665 -0.1977
13629TIP3   OH262301   2.486   5.447  15.321  0.6099  0.1988 -0.1085
13629TIP3    H162302   2.401   5.479  15.292  2.4015  4.0689 -1.8680
13629TIP3    H262303   2.490   5.357  15.290 -3.4878 -0.8801  1.8630
13630TIP3   OH262304   0.946   2.917  14.047 -0.2398  0.3654 -0.4590
13630TIP3    H162305   0.860   2.933  14.085 -0.0809  0.2650 -0.0539
13630TIP3    H262306   0.927   2.891  13.957 -0.6902 -0.5795 -0.1046
13631TIP3   OH262307   1.817   5.088  14.683  0.1139 -0.3349 -0.1875
13631TIP3    H162308   1.862   5.094  14.599  2.4273  1.5350  1.0715
13631TIP3    H262309   1.808   4.994  14.699  1.2417 -0.7350 -1.7199
13632TIP3   OH262310   1.295   5.849   2.547 -0.5210 -0.3607 -0.4317
13632TIP3    H162311   1.328   5.760   2.563 -2.4829 -1.2227 -0.8402
13632TIP3    H262312   1.262   5.846   2.457 -1.1585  0.5993 -0.2456
13633TIP3   OH262313   3.940   3.737  11.861 -0.2497  0.2194  0.4978
13633TIP3    H162314   3.947   3.715  11.768 -1.1226  0.6210  0.3265
13633TIP3    H262315   3.857   3.696  11.889 -0.2540  0.5435  0.9652
13634TIP3   OH262316   6.619   0.554  15.340  0.2079  0.2601 -1.2476
13634TIP3    H162317   6.602   0.506  15.421 -1.3675  1.6269 -0.7084
13634TIP3    H262318   6.713   0.570  15.340  0.8494 -2.8341 -1.5119
13635TIP3   OH262319   3.090   2.106  14.039 -0.1362  0.5482  0.1402
13635TIP3    H162320   3.122   2.029  13.991 -2.6602  1.2249 -2.9717
13635TIP3    H262321   3.128   2.097  14.126  2.8997 -2.0836 -1.2368
13636TIP3   OH262322   2.179   0.598   1.622 -0.3006  0.7388 -0.5234
13636TIP3    H162323   2.255   0.605   1.564  0.0061 -0.5828 -0.3265
13636TIP3    H262324   2.171   0.504   1.640 -0.8652  1.0349  0.9509
13637TIP3   OH262325   1.274   6.611  13.360 -0.2179 -0.3191 -0.1863
13637TIP3    H162326   1.259   6.580  13.271  0.8613  1.1617 -0.9245
13637TIP3    H262327   1.340   6.552  13.395 -1.4522 -1.6094  0.0815
13638TIP3   OH262328   6.335   3.571  12.966 -0.0273 -0.4625  0.4882
13638TIP3    H162329   6.251   3.541  12.933 -0.9171 -0.3312  2.4802
13638TIP3    H262330   6.343   3.661  12.933 -0.5479 -0.5633  0.0732
13639TIP3   OH262331   5.921   3.083  12.799  0.2323  0.0591  0.2176
13639TIP3    H162332   5.876   3.162  12.829 -0.9484 -0.4016 -0.2874
13639TIP3    H262333   6.004   3.084  12.846  0.4486  1.8480 -0.1236
13640TIP3   OH262334   0.108   3.377  12.680  0.2301  0.2141 -0.8923
13640TIP3    H162335   0.145   3.306  12.628  4.6894  1.5600  0.0355
13640TIP3    H262336   0.117   3.348  12.770 -0.1686  0.9750 -0.6005
13641TIP3   OH262337   5.295   0.187   4.373 -0.6767  0.1461  0.8659
13641TIP3    H162338   5.229   0.254   4.358 -1.4753 -0.5682  1.0590
13641TIP3    H262339   5.292   0.132   4.295 -0.3914  0.0398  0.9269
13642TIP3   OH262340   1.701   5.728  13.322  0.6185 -0.1554  0.2983
13642TIP3    H162341   1.759   5.681  13.383 -0.2221 -2.1849 -0.3662
13642TIP3    H262342   1.614   5.693  13.339 -0.0474  1.1198 -0.3340
13643TIP3   OH262343   5.982   4.339   2.782  0.9715  0.2305  0.7500
13643TIP3    H162344   6.041   4.304   2.848  1.3233 -1.9919 -0.6414
13643TIP3    H262345   5.895   4.307   2.807  1.0442 -0.2758  0.3605
13644TIP3   OH262346   0.234   4.283   5.955  0.5063  0.2322 -0.3528
13644TIP3    H162347   0.187   4.331   5.887 -0.8180 -0.5588 -0.0389
13644TIP3    H262348   0.167   4.227   5.995  1.4157  0.1240  1.0875
13645TIP3   OH262349   2.282   3.928   0.933 -0.3147  0.1835  0.2175
13645TIP3    H162350   2.233   3.859   0.978  0.0090  0.2192  0.6359
13645TIP3    H262351   2.347   3.881   0.881 -0.1919  0.1633  0.3863
13646TIP3   OH262352   1.878   1.370  15.624 -0.4439 -0.2336  0.1672
13646TIP3    H162353   1.963   1.359  15.582 -0.7266  0.0999 -0.5083
13646TIP3    H262354   1.898   1.393  15.715  0.1731 -2.7569  0.7333
13647TIP3   OH262355   3.627   0.829  14.140 -0.3646  0.0352  0.6988
13647TIP3    H162356   3.560   0.843  14.208  1.5481  0.8741  2.5327
13647TIP3    H262357   3.709   0.825  14.189  1.0955  0.5513 -1.5976
13648TIP3   OH262358   3.713   0.542   2.481 -0.0194 -0.2824 -0.1364
13648TIP3    H162359   3.686   0.471   2.539  1.5923  0.4157  1.5456
13648TIP3    H262360   3.804   0.560   2.504 -0.4227  2.5107 -0.2765
13649TIP3   OH262361   5.270   4.595   6.654  0.2967  0.3119 -0.0514
13649TIP3    H162362   5.216   4.666   6.688 -0.1226  0.7017 -1.4537
13649TIP3    H262363   5.343   4.640   6.610  0.6684 -0.1594  0.0775
13650TIP3   OH262364   4.505   0.351   0.324 -0.3705  0.4169  0.3965
13650TIP3    H162365   4.531   0.271   0.370 -2.5859 -1.5232 -1.4789
13650TIP3    H262366   4.438   0.390   0.381  1.2576  1.4463  1.6880
13651TIP3   OH262367   5.427   5.325  14.926 -0.5348  0.3657  0.3568
13651TIP3    H162368   5.465   5.367  15.002  0.4574 -0.9873  0.6358
13651TIP3    H262369   5.502   5.294  14.875 -1.0867  2.4254 -1.9283
13652TIP3   OH262370   5.960   6.341  16.969 -0.2102 -0.2761  0.3990
13652TIP3    H162371   6.026   6.281  16.934  1.7199  1.0368  1.5948
13652TIP3    H262372   5.880   6.318  16.923  0.9570 -2.2809 -0.7658
13653TIP3   OH262373   4.254   6.286  11.724 -0.3758 -0.2941 -0.3663
13653TIP3    H162374   4.201   6.288  11.804 -0.5490  1.8208 -0.4594
13653TIP3    H262375   4.201   6.238  11.661 -1.0462 -0.4327  0.2876
13654TIP3   OH262376   3.537   6.395  13.653 -0.1736  0.2343 -0.4321
13654TIP3    H162377   3.522   6.301  13.642 -0.9139  0.3115 -0.1183
13654TIP3    H262378   3.614   6.401  13.708 -0.1147 -0.1930 -0.4671
13655TIP3   OH262379   1.603   0.652  11.219 -0.3675 -0.4786 -0.2247
13655TIP3    H162380   1.593   0.592  11.293 -2.1655 -1.8486 -1.5058
13655TIP3    H262381   1.612   0.594  11.143  1.1084  0.8977 -1.1614
13656TIP3   OH262382   3.380   5.570  16.539 -0.0061  0.0172  0.0373
13656TIP3    H162383   3.424   5.634  16.482 -0.1324 -0.5268 -0.6959
13656TIP3    H262384   3.314   5.621  16.586  0.0135  0.4595 -0.4045
13657TIP3   OH262385   0.442   5.520  17.166  0.5711 -0.1778  0.0081
13657TIP3    H162386   0.381   5.594  17.162  1.6435  0.6986 -0.8121
13657TIP3    H262387   0.436   5.488  17.256  0.7193  1.4788  0.6329
13658TIP3   OH262388   4.551   0.223  13.559  1.0085 -0.2205 -0.3182
13658TIP3    H162389   4.540   0.307  13.603  0.3555 -0.0232 -0.8297
13658TIP3    H262390   4.599   0.244  13.479  0.3528 -0.2340 -0.7236
13659TIP3   OH262391   6.006   1.132  13.349 -0.0538 -0.2523 -0.2613
13659TIP3    H162392   6.015   1.224  13.324  1.4179  0.1851  1.5896
13659TIP3    H262393   6.091   1.110  13.388 -1.0181 -1.8003  1.1149
13660TIP3   OH262394   4.648   0.859   0.376 -1.1264  0.1277 -0.2337
13660TIP3    H162395   4.709   0.853   0.302 -0.4787 -0.0927  0.3121
13660TIP3    H262396   4.700   0.893   0.448 -1.0607 -2.0453  0.8418
13661TIP3   OH262397   2.253   0.126   0.422 -0.4593  0.7144 -0.0394
13661TIP3    H162398   2.213   0.109   0.337 -0.3952  4.0071 -0.8589
13661TIP3    H262399   2.184   0.107   0.485 -0.8834 -0.6213 -0.8457
13662TIP3   OH262400   4.824   1.844  15.821 -0.1257 -0.4961 -0.5040
13662TIP3    H162401   4.798   1.760  15.858  0.2436 -0.3144  0.1713
13662TIP3    H262402   4.755   1.904  15.848 -0.4725 -0.6046 -1.1194
13663TIP3   OH262403   2.363   4.491  16.965 -0.1446 -0.1419 -0.3128
13663TIP3    H162404   2.273   4.521  16.974  0.6191  1.7545  2.1077
13663TIP3    H262405   2.358   4.418  16.904 -3.7298 -1.9233  1.7637
13664TIP3   OH262406   5.163   4.710   4.692 -0.0600  0.5593 -0.6656
13664TIP3    H162407   5.181   4.624   4.654 -0.6803  0.1710 -0.1029
13664TIP3    H262408   5.198   4.705   4.781  0.4864  1.1154 -0.8453
13665TIP3   OH262409   5.505   0.121  16.013 -0.2849  0.6723 -0.5482
13665TIP3    H162410   5.540   0.045  15.964  0.7975  1.6074 -1.2974
13665TIP3    H262411   5.461   0.173  15.946  0.0772  1.3225 -0.2858
13666TIP3   OH262412   0.986   0.683   2.949  0.5752  0.4988 -0.3745
13666TIP3    H162413   0.942   0.716   3.027  3.4216  0.1696  1.4898
13666TIP3    H262414   1.028   0.760   2.910 -0.6352  0.6199 -1.5106
13667TIP3   OH262415   5.024   6.659  16.179  0.0012 -0.2997  0.0449
13667TIP3    H162416   5.117   6.671  16.196  0.5918 -2.0291 -1.6264
13667TIP3    H262417   4.984   6.661  16.266  1.1810  2.9019  0.6614
13668TIP3   OH262418   1.486   5.375  17.026 -0.0568  0.4114 -0.0044
13668TIP3    H162419   1.523   5.445  17.080  0.2495  0.2980 -0.0681
13668TIP3    H262420   1.525   5.387  16.940 -0.7661  0.7670 -0.2843
13669TIP3   OH262421   6.518   4.959   5.380 -0.1593 -0.4782 -0.5123
13669TIP3    H162422   6.566   5.040   5.397 -1.7759  0.7715 -1.6470
13669TIP3    H262423   6.584   4.890   5.386  1.6018  1.0813 -1.2034
13670TIP3   OH262424   0.883   4.492  13.617 -0.4030 -0.5534  0.1537
13670TIP3    H162425   0.822   4.537  13.559  0.2933 -0.0695 -0.2195
13670TIP3    H262426   0.914   4.560  13.676 -1.0967 -1.0395  1.1064
13671TIP3   OH262427   2.589   0.906  11.761  0.4558 -0.2007  0.1776
13671TIP3    H162428   2.574   0.978  11.822 -0.4408  0.1586 -0.4431
13671TIP3    H262429   2.579   0.827  11.814 -2.4085  0.0413  0.1293
13672TIP3   OH262430   2.375   3.734  16.755 -0.2563  0.1794 -0.1899
13672TIP3    H162431   2.396   3.745  16.848 -2.1096 -0.4811  0.3482
13672TIP3    H262432   2.322   3.654  16.752  1.3238 -0.8841 -2.0841
13673TIP3   OH262433   3.562   5.826  16.720  0.2658 -0.1197 -0.4847
13673TIP3    H162434   3.501   5.856  16.788  0.8545  0.5123 -0.2249
13673TIP3    H262435   3.606   5.905  16.691  1.9480 -0.7255  0.2960
13674TIP3   OH262436   3.174   4.004  13.077 -0.1122 -0.3733  0.3006
13674TIP3    H162437   3.160   4.017  13.171 -1.1012 -2.1158  0.4502
13674TIP3    H262438   3.248   3.943  13.072 -1.1281 -1.6412  0.0693
13675TIP3   OH262439   6.444   4.002   1.490  0.1776 -0.8990  0.0605
13675TIP3    H162440   6.499   3.932   1.526  0.8502  0.6934  2.4011
13675TIP3    H262441   6.458   4.076   1.550 -1.4706  0.8424 -1.5730
13676TIP3   OH262442   3.472   0.246   6.073 -0.6768  0.0888 -0.0544
13676TIP3    H162443   3.499   0.277   6.159  3.4175 -0.3111 -1.0124
13676TIP3    H262444   3.376   0.239   6.079 -0.8133  2.5122  3.5628
13677TIP3   OH262445   5.276   1.146  12.313  0.3623 -0.5796 -0.0912
13677TIP3    H162446   5.291   1.052  12.325  2.1618 -0.5193 -1.3581
13677TIP3    H262447   5.200   1.151  12.255 -0.5262 -1.1954  0.9862
13678TIP3   OH262448   2.356   4.300   2.191  0.1953 -0.3207 -0.1844
13678TIP3    H162449   2.438   4.312   2.240  1.1763  0.0654 -1.8298
13678TIP3    H262450   2.335   4.388   2.158 -0.0039 -0.6906 -1.0819
13679TIP3   OH262451   6.004   0.035   4.783 -0.5035 -0.2138  0.0532
13679TIP3    H162452   6.045   0.105   4.835 -1.3143 -0.1687  0.6453
13679TIP3    H262453   5.917   0.069   4.762 -1.0929 -1.2549  0.7696
13680TIP3   OH262454   3.247   1.122  12.489 -0.2970 -0.5887  0.1236
13680TIP3    H162455   3.198   1.201  12.511 -1.7799 -1.7738  1.3127
13680TIP3    H262456   3.221   1.058  12.555  0.5588 -2.2050 -1.0233
13681TIP3   OH262457   3.580   3.274  15.882  0.3016  0.1366 -0.3177
13681TIP3    H162458   3.607   3.358  15.846  0.2268 -0.2971 -1.4229
13681TIP3    H262459   3.656   3.243  15.931  0.9992 -0.0025 -1.4699
13682TIP3   OH262460   1.516   3.745   2.786 -0.7682  0.3086  0.3059
13682TIP3    H162461   1.604   3.778   2.803  0.0774 -1.1270 -1.0755
13682TIP3    H262462   1.469   3.759   2.868  0.9854  0.3189  1.3584
13683TIP3   OH262463   0.987   1.282   4.445 -0.2738 -0.4667 -0.6796
13683TIP3    H162464   1.070   1.312   4.410 -0.4054 -0.9580 -1.4487
13683TIP3    H262465   0.921   1.329   4.395 -0.4606 -0.6366 -0.5969
13684TIP3   OH262466   0.992   0.631  10.768  0.2087  0.3304 -0.3327
13684TIP3    H162467   0.922   0.635  10.833  1.1397 -0.1435  0.7230
13684TIP3    H262468   0.959   0.570  10.701 -0.6936  0.7050 -0.2355
13685TIP3   OH262469   1.759   0.075  15.633  0.1125  0.1114 -0.8069
13685TIP3    H162470   1.789   0.005  15.691  1.3795 -0.7236 -2.4000
13685TIP3    H262471   1.735   0.031  15.552 -0.1972  1.3973 -1.4384
13686TIP3   OH262472   3.532   6.278  14.667 -0.9194  0.0605 -0.4380
13686TIP3    H162473   3.529   6.224  14.588 -0.3555 -2.5009  1.1777
13686TIP3    H262474   3.480   6.230  14.731  1.5744  0.0978  1.8147
13687TIP3   OH262475   5.350   6.738   4.711 -0.0587  0.8837 -0.2348
13687TIP3    H162476   5.427   6.778   4.669 -0.9296  2.8042 -0.1295
13687TIP3    H262477   5.342   6.784   4.794  0.6503 -1.7130  1.3851
13688TIP3   OH262478   6.748   5.681   5.471  0.2904  0.2151 -0.3621
13688TIP3    H162479   6.742   5.773   5.444  1.1153  0.3223 -0.2249
13688TIP3    H262480   6.840   5.670   5.496  0.0720 -0.4984  0.1617
13689TIP3   OH262481   1.143   2.396   0.761  0.2528 -0.5665 -0.1978
13689TIP3    H162482   1.187   2.342   0.695  1.1711 -0.0525 -0.0133
13689TIP3    H262483   1.169   2.485   0.740 -0.4903 -0.2753  0.0921
13690TIP3   OH262484   3.665   4.308   3.670  0.0295  0.1041  0.0840
13690TIP3    H162485   3.589   4.253   3.690 -0.5886  0.5893 -0.8068
13690TIP3    H262486   3.640   4.353   3.589  0.7649  1.2256  0.4619
13691TIP3   OH262487   5.210   3.905  14.832 -0.0681 -0.3452 -0.1292
13691TIP3    H162488   5.290   3.852  14.836 -0.4360 -0.8679  0.7828
13691TIP3    H262489   5.238   3.992  14.860 -0.1008 -0.9251  1.9050
13692TIP3   OH262490   6.505   6.724   1.112 -0.5930  0.3777 -0.2648
13692TIP3    H162491   6.542   6.712   1.024  0.6408 -1.1106  0.4099
13692TIP3    H262492   6.512   6.818   1.128 -1.4398  0.7686 -2.0000
13693TIP3   OH262493   3.226   4.834   5.417  0.3316 -0.1872  0.0392
13693TIP3    H162494   3.230   4.883   5.499  0.8282 -1.1771  0.6258
13693TIP3    H262495   3.155   4.875   5.368  1.7175  2.1387 -0.1854
13694TIP3   OH262496   4.543   4.675   6.604  0.4110  0.0708  0.4339
13694TIP3    H162497   4.467   4.711   6.649 -0.2096 -0.6713 -0.0002
13694TIP3    H262498   4.598   4.638   6.673 -0.3918 -0.7987  0.6248
13695TIP3   OH262499   2.181   3.136  17.251 -0.0261  0.2007  0.2260
13695TIP3    H162500   2.150   3.143  17.161 -0.4416  0.2688  0.3744
13695TIP3    H262501   2.273   3.160  17.246  0.4346 -1.5077 -0.4791
13696TIP3   OH262502   5.307   4.130  13.120 -1.0055 -0.6472  0.4465
13696TIP3    H162503   5.324   4.149  13.213 -1.3719  0.0341  0.3782
13696TIP3    H262504   5.258   4.048  13.121  0.9798 -1.9105  0.7243
13697TIP3   OH262505   0.529   3.140   3.525 -0.5989 -0.1580  0.1406
13697TIP3    H162506   0.555   3.174   3.439  0.3035  2.5695  1.3819
13697TIP3    H262507   0.585   3.063   3.537  1.1347  0.8883 -0.6871
13698TIP3   OH262508   6.635   6.369   3.769 -0.8973 -0.4458 -0.5270
13698TIP3    H162509   6.669   6.453   3.739 -0.1113 -0.6737 -0.3031
13698TIP3    H262510   6.692   6.345   3.841 -1.1502 -1.1494 -0.5553
13699TIP3   OH262511   0.129   5.677  15.895  0.2266  0.1772  0.0104
13699TIP3    H162512   0.189   5.648  15.826  1.6993 -0.3424  1.4737
13699TIP3    H262513   0.183   5.684  15.973 -1.6315 -0.3349  1.4035
13700TIP3   OH262514   2.147   2.055   0.083 -0.3790  0.0840  0.1360
13700TIP3    H162515   2.143   1.980   0.023  3.4800  0.8963 -1.4480
13700TIP3    H262516   2.150   2.132   0.026 -1.5038  1.3168  1.6351
13701TIP3   OH262517   4.970   4.532  16.075  0.0607 -0.0601 -0.6990
13701TIP3    H162518   4.979   4.502  15.985  0.9412  0.8589 -0.9321
13701TIP3    H262519   5.048   4.498  16.119 -0.9738 -1.5799  0.0515
13702TIP3   OH262520   4.474   4.351   2.201 -0.3394 -1.1389  0.3140
13702TIP3    H162521   4.534   4.353   2.276  0.2216  0.2218 -0.1309
13702TIP3    H262522   4.505   4.278   2.147  0.0045 -1.3613  0.8072
13703TIP3   OH262523   2.468   2.532  16.434 -0.6337 -0.4762 -0.1614
13703TIP3    H162524   2.563   2.522  16.426 -0.6050 -0.7990  0.5467
13703TIP3    H262525   2.448   2.502  16.523 -1.4373 -0.7077 -0.4133
13704TIP3   OH262526   1.208   1.392  10.648 -0.0048 -0.1060 -0.1777
13704TIP3    H162527   1.275   1.364  10.586  1.3188 -0.0798  1.1831
13704TIP3    H262528   1.185   1.312  10.695  1.2341  0.3631  1.3273
13705TIP3   OH262529   6.071   2.446   3.692  0.2531  0.0547  0.4619
13705TIP3    H162530   6.052   2.357   3.722 -0.4446  0.4955  1.3711
13705TIP3    H262531   5.991   2.474   3.648  0.1824  0.5357  0.9004
13706TIP3   OH262532   2.852   0.193   1.154 -0.0640  0.8996 -0.4112
13706TIP3    H162533   2.944   0.208   1.130  0.0010  0.2553 -0.5662
13706TIP3    H262534   2.850   0.102   1.184 -0.0507  1.6954  2.3429
13707TIP3   OH262535   1.155   2.658   2.569  0.0670 -0.2682 -0.0334
13707TIP3    H162536   1.110   2.725   2.620  1.2565  1.3618 -1.0093
13707TIP3    H262537   1.087   2.622   2.512 -0.4349  0.8124 -0.1577
13708TIP3   OH262538   2.891   0.586   3.305 -0.3672 -0.5501  0.4992
13708TIP3    H162539   2.883   0.491   3.312  0.7760 -0.7709 -0.8542
13708TIP3    H262540   2.920   0.602   3.215  1.7654  0.9107  1.3744
13709TIP3   OH262541   5.942   4.072  14.150 -0.2931  0.6341  0.7229
13709TIP3    H162542   6.011   4.138  14.146 -0.1177  0.5040  1.5747
13709TIP3    H262543   5.932   4.044  14.059  0.9682  0.4551  0.6171
13710TIP3   OH262544   0.249   4.109  12.580  0.1600  0.0313  0.3357
13710TIP3    H162545   0.205   4.090  12.498  0.5200  1.5156 -0.2387
13710TIP3    H262546   0.247   4.205  12.587  1.1591  0.0031  1.4705
13711TIP3   OH262547   3.307   3.853   5.674  0.3159  0.0416 -0.2339
13711TIP3    H162548   3.299   3.880   5.582  1.7762  0.9313 -0.1382
13711TIP3    H262549   3.355   3.770   5.671 -1.5459 -1.1018 -0.3526
13712TIP3   OH262550   1.379   5.350  13.503  0.0209 -0.7710 -0.6107
13712TIP3    H162551   1.357   5.443  13.495  1.8963 -0.2560 -0.2030
13712TIP3    H262552   1.361   5.328  13.594 -0.7644 -0.9179 -0.7954
13713TIP3   OH262553   1.535   3.496  12.681 -0.2345  0.1645  0.3221
13713TIP3    H162554   1.470   3.454  12.625 -0.7557  1.6824 -0.2563
13713TIP3    H262555   1.489   3.512  12.763 -0.4004  0.6130  0.1483
13714TIP3   OH262556   1.811   0.964  10.655  0.6135  0.0858 -0.6694
13714TIP3    H162557   1.720   0.949  10.630 -0.3863  1.2483  1.8900
13714TIP3    H262558   1.857   0.885  10.627 -1.7701 -1.8542  0.5188
13715TIP3   OH262559   5.790   5.630   4.527 -0.2241  0.0082  0.3029
13715TIP3    H162560   5.877   5.629   4.487 -0.3872  2.0068 -0.2338
13715TIP3    H262561   5.743   5.699   4.480 -2.0178 -0.8381  0.7730
13716TIP3   OH262562   2.407   2.554   3.438  0.0136  0.3694 -0.4021
13716TIP3    H162563   2.316   2.528   3.429  0.6427 -1.8635 -0.7614
13716TIP3    H262564   2.442   2.495   3.505  1.1943  1.2297 -0.2285
13717TIP3   OH262565   1.993   3.870  15.050  0.2507 -0.1474  0.2607
13717TIP3    H162566   1.981   3.778  15.077  1.1116 -0.2428  0.3382
13717TIP3    H262567   2.037   3.911  15.124 -1.0941  0.6103  0.6709
13718TIP3   OH262568   1.170   5.485  16.805  0.5519 -0.2055 -0.5830
13718TIP3    H162569   1.092   5.517  16.758  0.7381  1.5109  0.2151
13718TIP3    H262570   1.136   5.449  16.887  0.6267  1.1060  0.0425
13719TIP3   OH262571   1.161   6.735   2.958  0.2992 -0.2216 -0.5243
13719TIP3    H162572   1.208   6.735   3.041 -0.5049  1.5736 -0.0308
13719TIP3    H262573   1.184   6.818   2.917 -1.4447  0.1658 -0.8178
13720TIP3   OH262574   2.387   3.408  16.818 -0.2565  0.3731 -0.5463
13720TIP3    H162575   2.333   3.452  16.884 -0.5113 -1.0198  0.2113
13720TIP3    H262576   2.347   3.321  16.808  0.9651 -0.1601 -1.0511
13721TIP3   OH262577   3.957   6.121  13.708 -0.1523  0.4117  0.2654
13721TIP3    H162578   4.011   6.073  13.645  0.9197 -0.4684  1.7824
13721TIP3    H262579   3.882   6.063  13.724 -0.4046  0.6178 -0.1608
13722TIP3   OH262580   4.651   1.975  16.031  0.1004  0.1254 -0.3903
13722TIP3    H162581   4.559   1.949  16.029 -0.4659  1.6096  2.2660
13722TIP3    H262582   4.693   1.911  16.089  0.3443  0.5749 -0.0688
13723TIP3   OH262583   3.020   5.362  13.463  0.0863 -0.2393 -0.0457
13723TIP3    H162584   2.964   5.429  13.502  1.2515  1.5829 -1.2880
13723TIP3    H262585   3.096   5.357  13.522  0.2571 -0.0350 -0.2452
13724TIP3   OH262586   1.326   4.954  12.907  0.1632 -0.1353 -0.3725
13724TIP3    H162587   1.389   4.891  12.944  0.6853  1.8498  2.4323
13724TIP3    H262588   1.373   4.996  12.835  2.2415  1.3806  1.7300
13725TIP3   OH262589   4.351   3.045  16.377  0.2392  1.0681  0.1962
13725TIP3    H162590   4.392   2.961  16.399  0.4525  1.0232 -0.3711
13725TIP3    H262591   4.325   3.082  16.462 -0.0973  0.3063  0.4343
13726TIP3   OH262592   5.763   1.811  13.592  0.0672  0.3578 -0.1394
13726TIP3    H162593   5.759   1.897  13.633 -0.5644  0.1901  0.1605
13726TIP3    H262594   5.686   1.765  13.625 -1.2903  0.7010 -2.6053
13727TIP3   OH262595   0.664   3.092  13.363 -0.1570 -0.2960 -0.3585
13727TIP3    H162596   0.662   3.043  13.446 -0.5394 -0.5564 -0.5142
13727TIP3    H262597   0.578   3.074  13.324 -0.5984  1.0945 -0.0828
13728TIP3   OH262598   2.933   5.470  11.458 -0.2880  0.1050 -0.5070
13728TIP3    H162599   2.904   5.380  11.445 -0.6568  0.1008  0.3089
13728TIP3    H262600   3.011   5.478  11.403  0.0171 -0.8481 -0.2268
13729TIP3   OH262601   4.783   5.314   6.654 -0.0734 -0.0701  0.6331
13729TIP3    H162602   4.767   5.353   6.567  0.1720  0.6164  0.8920
13729TIP3    H262603   4.786   5.389   6.713  0.6575 -0.4660  1.1062
13730TIP3   OH262604   1.121   0.276  17.031 -0.5142  0.6639  0.1816
13730TIP3    H162605   1.129   0.371  17.042 -1.4069  0.7672 -0.0244
13730TIP3    H262606   1.128   0.262  16.937 -0.9652  0.5835  0.1599
13731TIP3   OH262607   2.230   3.367   2.330  0.4632 -0.4776  0.5126
13731TIP3    H162608   2.182   3.290   2.299  0.1633 -0.6815  1.4647
13731TIP3    H262609   2.162   3.429   2.356  0.7075 -0.1504  0.3800
13732TIP3   OH262610   6.408   2.366   2.885  0.0910  0.6517  0.2426
13732TIP3    H162611   6.438   2.451   2.854  0.3885  1.0158  1.4575
13732TIP3    H262612   6.338   2.341   2.826  0.8382  1.1550 -0.8859
13733TIP3   OH262613   4.429   3.040  11.688 -0.4287  0.4436 -0.0511
13733TIP3    H162614   4.401   3.126  11.658 -1.6485  0.8503  2.0389
13733TIP3    H262615   4.519   3.053  11.717 -0.6243  1.0530  0.3047
13734TIP3   OH262616   6.142   3.113  13.774 -0.0165 -0.5009 -0.1535
13734TIP3    H162617   6.204   3.054  13.732  0.4485  1.3406 -2.2566
13734TIP3    H262618   6.177   3.125  13.862 -0.3875 -3.6147  0.5205
13735TIP3   OH262619   5.093   6.694   5.751  0.0903  0.1319  0.0840
13735TIP3    H162620   5.184   6.703   5.776 -0.1296 -0.3904  1.1235
13735TIP3    H262621   5.070   6.604   5.775 -0.9195  0.5085  0.5814
13736TIP3   OH262622   4.582   5.883   2.586  0.5124  0.1884  0.3329
13736TIP3    H162623   4.559   5.861   2.676  1.3303 -0.0097  0.5005
13736TIP3    H262624   4.518   5.950   2.561  1.4409  1.6957  1.7279
13737TIP3   OH262625   1.481   0.174   0.802  0.2890  0.2746  0.1480
13737TIP3    H162626   1.479   0.158   0.896  3.1973 -0.7022  0.1718
13737TIP3    H262627   1.407   0.124   0.767 -0.2986 -0.0910  1.8301
13738TIP3   OH262628   4.484   6.309   1.877 -0.1104  0.2384  0.0274
13738TIP3    H162629   4.501   6.215   1.884 -0.1947  0.1882 -0.4119
13738TIP3    H262630   4.492   6.341   1.966  0.9749 -0.0100  0.0361
13739TIP3   OH262631   3.871   4.302  15.413  0.2608 -0.1355  0.3386
13739TIP3    H162632   3.786   4.339  15.436  0.6548  0.8234  0.2546
13739TIP3    H262633   3.901   4.354  15.339  1.5907  0.4840  1.2852
13740TIP3   OH262634   4.236   5.509   4.071  0.2419 -0.0354 -0.0845
13740TIP3    H162635   4.311   5.504   4.012  2.0355  2.4689  1.7155
13740TIP3    H262636   4.188   5.586   4.041  0.7667  0.8226  1.1945
13741TIP3   OH262637   5.670   0.071   1.071  0.2442 -0.6198  0.2764
13741TIP3    H162638   5.663   0.022   0.989 -0.4877  1.0720 -0.7416
13741TIP3    H262639   5.761   0.060   1.098  0.2584 -1.9824 -0.2397
13742TIP3   OH262640   5.547   4.433   1.045 -0.3203 -0.2621 -0.2483
13742TIP3    H162641   5.520   4.519   1.012  3.3237  1.0791 -0.1960
13742TIP3    H262642   5.514   4.431   1.135 -1.5144  0.4880 -0.6280
13743TIP3   OH262643   1.137   3.523   0.335  0.4919  0.1082 -0.1632
13743TIP3    H162644   1.177   3.437   0.317 -0.1746 -0.1519 -0.4186
13743TIP3    H262645   1.078   3.507   0.408  1.6395  0.7269  0.9291
13744TIP3   OH262646   5.338   2.692  12.583  0.3747  0.0517  0.3504
13744TIP3    H162647   5.367   2.768  12.532 -0.7901  0.0122 -0.4007
13744TIP3    H262648   5.357   2.717  12.674 -2.3268  2.4217  0.4142
13745TIP3   OH262649   4.783   6.148   3.961 -0.4822  0.0583  0.0495
13745TIP3    H162650   4.867   6.191   3.949 -1.2131  1.3686 -0.5118
13745TIP3    H262651   4.761   6.164   4.053 -0.8737  1.1320 -0.2236
13746TIP3   OH262652   5.325   4.389  14.768  0.1172  0.0441 -0.0123
13746TIP3    H162653   5.399   4.359  14.715  0.6628 -2.9521  2.1766
13746TIP3    H262654   5.248   4.370  14.715  0.7137 -1.4306 -0.3907
13747TIP3   OH262655   0.193   3.493  12.352  0.4400  0.2307 -0.5613
13747TIP3    H162656   0.253   3.420  12.369  1.8907  1.5597  0.2698
13747TIP3    H262657   0.108   3.451  12.342  1.3094 -1.6292 -0.6592
13748TIP3   OH262658   1.919   5.857  14.519 -0.4439  0.5908  0.4973
13748TIP3    H162659   1.965   5.915  14.459 -0.2184 -0.4076 -0.3261
13748TIP3    H262660   1.907   5.909  14.598 -1.0421  2.0659 -0.5133
13749TIP3   OH262661   5.491   4.705   0.282 -0.1067  0.2517 -0.1035
13749TIP3    H162662   5.480   4.610   0.285 -0.7122  0.3295  0.3677
13749TIP3    H262663   5.574   4.718   0.237 -0.6867 -0.4612 -1.4201
13750TIP3   OH262664   6.546   1.216  13.511 -0.1474  0.1650  0.2788
13750TIP3    H162665   6.640   1.206  13.495  0.0417  1.0327  0.8095
13750TIP3    H262666   6.541   1.257  13.597 -0.9638  1.3103 -0.2895
13751TIP3   OH262667   2.147   2.036  15.294 -0.9184  0.1756  0.5856
13751TIP3    H162668   2.171   1.944  15.304  0.5396  0.2691 -1.4065
13751TIP3    H262669   2.128   2.065  15.383  1.1134 -1.4200  1.6511
13752TIP3   OH262670   2.459   1.121   4.857 -0.1619  0.4470  0.0474
13752TIP3    H162671   2.431   1.039   4.897 -1.3092  0.7039 -0.2065
13752TIP3    H262672   2.554   1.123   4.871  0.0206 -1.3313 -0.7239
13753TIP3   OH262673   3.342   2.370   1.056 -0.0408 -0.5851 -0.1587
13753TIP3    H162674   3.359   2.378   1.150 -0.2984  2.1710 -0.2863
13753TIP3    H262675   3.253   2.402   1.045 -0.1049 -1.1106 -1.3348
13754TIP3   OH262676   3.449   0.229  11.399  0.3565  0.5196 -0.0401
13754TIP3    H162677   3.369   0.214  11.349  0.2327  0.3291  0.2129
13754TIP3    H262678   3.511   0.164  11.366 -0.4869 -1.2768  1.7422
13755TIP3   OH262679   3.077   2.303  11.887 -0.5944 -0.1946 -0.3699
13755TIP3    H162680   3.054   2.395  11.893  1.5947  0.3743  0.2576
13755TIP3    H262681   3.079   2.284  11.793 -0.0268  0.7153 -0.5527
13756TIP3   OH262682   3.427   0.659   2.840 -0.1243  0.0078 -0.3994
13756TIP3    H162683   3.352   0.674   2.898 -0.5621 -1.7112 -0.4549
13756TIP3    H262684   3.415   0.722   2.769  0.0405  1.6756  0.9718
13757TIP3   OH262685   1.884   3.967   5.845  0.3447 -0.2933 -0.6776
13757TIP3    H162686   1.844   4.034   5.790  1.7591 -1.4880 -3.3271
13757TIP3    H262687   1.978   3.976   5.830  0.6100 -2.3627 -0.5365
13758TIP3   OH262688   2.023   3.036   3.748  0.6028  0.3294 -0.4862
13758TIP3    H162689   1.989   2.993   3.827  1.1470 -1.0337 -0.9682
13758TIP3    H262690   2.024   3.129   3.770 -0.9157  0.1586  0.4845
13759TIP3   OH262691   2.178   0.860   4.256  0.3088  0.2123 -0.0480
13759TIP3    H162692   2.180   0.940   4.203  1.2747  0.2999  0.1113
13759TIP3    H262693   2.142   0.888   4.340 -2.0275 -0.0849 -0.8763
13760TIP3   OH262694   1.304   3.893  13.110  0.1745  0.8413 -0.2733
13760TIP3    H162695   1.249   3.819  13.083 -0.3420  1.7528 -1.8165
13760TIP3    H262696   1.344   3.864  13.193 -0.5196 -0.8927 -0.5055
13761TIP3   OH262697   3.554   0.142  12.733 -0.3478 -0.1866 -0.4086
13761TIP3    H162698   3.503   0.073  12.775 -1.1836 -0.2647 -1.5111
13761TIP3    H262699   3.548   0.217  12.793  1.0554 -1.1972  1.0854
13762TIP3   OH262700   5.014   0.796   3.079 -0.3330 -0.1914  0.1592
13762TIP3    H162701   5.046   0.705   3.083  0.9492  0.2750  1.2699
13762TIP3    H262702   4.995   0.811   2.986 -1.6459 -1.9253  0.0821
13763TIP3   OH262703   4.394   1.928  14.651 -0.1265 -0.3560 -0.7641
13763TIP3    H162704   4.343   1.890  14.580  0.6041 -1.5558 -0.6727
13763TIP3    H262705   4.346   2.008  14.675 -1.2300 -0.7558 -1.5489
13764TIP3   OH262706   1.226   1.320   0.285 -0.4641  0.2067 -0.4027
13764TIP3    H162707   1.259   1.241   0.328 -2.6064  0.3908  1.8163
13764TIP3    H262708   1.153   1.289   0.232  1.8873  0.0514 -3.9083
13765TIP3   OH262709   5.344   5.307  13.268 -0.1621  0.3856  0.1691
13765TIP3    H162710   5.311   5.396  13.282  0.2761  0.7995 -1.2086
13765TIP3    H262711   5.425   5.303  13.320  2.0293  2.2462 -2.7871
13766TIP3   OH262712   2.426   0.441   5.064 -0.1487 -0.3433  0.4606
13766TIP3    H162713   2.377   0.454   5.145  0.4704 -0.5447  0.8765
13766TIP3    H262714   2.518   0.448   5.090  0.1168 -1.9976  0.0708
13767TIP3   OH262715   6.485   0.698   2.508  0.1499 -0.1819  0.1187
13767TIP3    H162716   6.423   0.758   2.550 -0.2712  0.1745 -0.9574
13767TIP3    H262717   6.566   0.748   2.501  0.0819 -0.0725  0.0995
13768TIP3   OH262718   3.878   4.024  14.313  0.0080  0.2956 -0.0408
13768TIP3    H162719   3.829   4.052  14.390  1.3622 -1.1270  1.4356
13768TIP3    H262720   3.887   3.929  14.325  1.9464  0.3356 -0.9201
13769TIP3   OH262721   0.080   0.180   5.880  0.1651 -1.1487 -0.2266
13769TIP3    H162722   0.176   0.175   5.881  0.1446 -1.5974  0.6529
13769TIP3    H262723   0.053   0.119   5.811  0.5775  0.9985 -2.4228
13770TIP3   OH262724   5.853   6.117  14.401  0.0231 -0.1699  0.6134
13770TIP3    H162725   5.831   6.210  14.399 -1.1240 -0.4515 -0.4896
13770TIP3    H262726   5.799   6.081  14.472 -0.7649 -0.2886 -0.0411
13771TIP3   OH262727   2.586   5.681  17.368  0.0224  0.0050 -0.0839
13771TIP3    H162728   2.596   5.680  17.273 -0.8882 -0.1299 -0.1845
13771TIP3    H262729   2.623   5.598  17.397 -1.5280 -0.8872 -0.5340
13772TIP3   OH262730   5.604   4.196  16.459 -0.0952 -0.6310  0.1076
13772TIP3    H162731   5.549   4.253  16.405  0.3339  0.2042  0.5367
13772TIP3    H262732   5.668   4.255  16.499 -0.1804 -1.2816  1.2492
13773TIP3   OH262733   1.133   0.060  11.873  0.4198 -0.3549 -0.2806
13773TIP3    H162734   1.109   0.024  11.959  1.8196  0.3315  0.4489
13773TIP3    H262735   1.176  -0.013  11.828  0.4243 -0.4896 -0.0607
13774TIP3   OH262736   6.607   4.382   1.149  0.5784  0.0173  0.1005
13774TIP3    H162737   6.545   4.318   1.113  1.0597  0.0988 -0.9382
13774TIP3    H262738   6.580   4.466   1.112  0.5853  0.2466  0.6062
13775TIP3   OH262739   0.639   1.914  15.273 -1.3173  0.0580  0.7109
13775TIP3    H162740   0.592   1.891  15.193  0.3240  0.1241 -0.3214
13775TIP3    H262741   0.584   1.979  15.316 -1.6288  1.0013 -1.0359
13776TIP3   OH262742   2.031   3.016  12.799 -0.0163  0.3684  0.1493
13776TIP3    H162743   1.941   3.027  12.768 -0.0508 -0.0271  0.1024
13776TIP3    H262744   2.068   3.104  12.796 -0.6314  0.6614  0.8791
13777TIP3   OH262745   3.619   2.806  13.889  0.0900  0.3285  0.2814
13777TIP3    H162746   3.602   2.774  13.801 -0.6358  1.0249  0.1589
13777TIP3    H262747   3.535   2.839  13.919 -0.1234 -1.5275  1.9421
13778TIP3   OH262748   0.537   1.639  16.944 -0.4906  0.1314  0.0746
13778TIP3    H162749   0.504   1.684  16.866 -0.4719  2.1924  1.1778
13778TIP3    H262750   0.472   1.658  17.012 -0.1969 -1.1005  0.7352
13779TIP3   OH262751   0.600   5.770   4.005  0.1019 -0.7274  0.3114
13779TIP3    H162752   0.567   5.775   4.095  0.9197 -0.5781  0.6061
13779TIP3    H262753   0.567   5.850   3.964 -0.4544 -0.9004  0.4120
13780TIP3   OH262754   2.693   6.543   4.919 -0.0322 -0.9933  0.4107
13780TIP3    H162755   2.673   6.629   4.884 -2.1166 -1.7036 -0.2886
13780TIP3    H262756   2.721   6.560   5.009 -0.2387  0.4140  0.2308
13781TIP3   OH262757   4.774   5.443   0.032  0.7347  0.1551 -0.7524
13781TIP3    H162758   4.682   5.453   0.005  1.1297  0.2755 -2.1314
13781TIP3    H262759   4.824   5.462  -0.048  1.9056 -1.9541 -0.5715
13782TIP3   OH262760   5.217   1.851  16.970  0.3227  0.5506 -0.1129
13782TIP3    H162761   5.129   1.822  16.992  0.2324  0.7888 -0.1510
13782TIP3    H262762   5.245   1.904  17.045 -0.2123  1.8471 -0.7866
13783TIP3   OH262763   1.597   3.258   5.406  0.4344  0.7500  0.2635
13783TIP3    H162764   1.517   3.307   5.387 -0.1158 -0.7983 -1.7211
13783TIP3    H262765   1.571   3.197   5.475  0.2807  1.0851  0.5104
13784TIP3   OH262766   0.851   5.725   5.262  0.3284 -0.0492 -0.3170
13784TIP3    H162767   0.922   5.779   5.295 -0.7989  0.8941  0.6956
13784TIP3    H262768   0.891   5.641   5.243  1.7644  0.5478 -0.0835
13785TIP3   OH262769   5.328   3.580   4.001  0.4073 -0.2447  0.0207
13785TIP3    H162770   5.251   3.612   4.047  0.8870 -0.4814  1.0090
13785TIP3    H262771   5.297   3.503   3.953 -0.4215  0.8265 -1.2393
13786TIP3   OH262772   2.585   1.728   4.049  0.3256 -0.2212  0.6338
13786TIP3    H162773   2.677   1.751   4.035  0.5655  0.5475  2.9804
13786TIP3    H262774   2.564   1.764   4.135 -2.1414 -0.5439  0.2529
13787TIP3   OH262775   3.413   1.808   4.978  0.1505  0.4144  0.2014
13787TIP3    H162776   3.434   1.866   5.052  0.1691  0.5503  0.0914
13787TIP3    H262777   3.330   1.767   5.002  1.0419 -0.9155  1.1078
13788TIP3   OH262778   5.786   5.117   4.003 -0.6464 -0.2920 -0.2912
13788TIP3    H162779   5.690   5.117   4.000 -0.7191  0.1632  0.9654
13788TIP3    H262780   5.806   5.133   4.096  0.6435 -0.3596 -0.5428
13789TIP3   OH262781   2.316   6.151   5.559  0.5268 -0.1023  0.0086
13789TIP3    H162782   2.317   6.241   5.593  0.6259  0.1932 -0.7495
13789TIP3    H262783   2.371   6.102   5.619 -0.9233 -0.0476  1.4610
13790TIP3   OH262784   2.693   0.911   2.675 -0.9707 -0.1985 -0.9668
13790TIP3    H162785   2.664   0.996   2.643  0.9547  0.6863 -0.5306
13790TIP3    H262786   2.662   0.908   2.766 -2.8599 -0.9201 -1.5956
13791TIP3   OH262787   0.810   4.491   2.300  0.3595 -0.2832 -0.1176
13791TIP3    H162788   0.735   4.498   2.359  1.5285  1.2289  1.3072
13791TIP3    H262789   0.858   4.414   2.331  0.5842  0.0840  0.4699
13792TIP3   OH262790   0.426   3.857  15.971 -0.2761 -0.0513  0.3206
13792TIP3    H162791   0.402   3.785  15.913 -0.6016 -0.1821  0.6170
13792TIP3    H262792   0.343   3.893  16.001 -0.1125  0.1206  0.5775
13793TIP3   OH262793   6.546   3.737  17.009  0.3410  0.3469  0.6801
13793TIP3    H162794   6.558   3.758  16.916 -0.3737  0.0148  0.5059
13793TIP3    H262795   6.465   3.781  17.033 -0.0167 -0.4115  0.8822
13794TIP3   OH262796   1.096   5.725  17.007  0.5281  0.4528  0.0179
13794TIP3    H162797   1.166   5.735  16.943  1.0962 -0.8400  0.4161
13794TIP3    H262798   1.016   5.721  16.954  0.9758 -0.4301 -0.6104
13795TIP3   OH262799   0.980   2.336  14.556 -0.3738  0.5082 -0.1503
13795TIP3    H162800   0.996   2.410  14.615  1.7525 -0.7810  1.0280
13795TIP3    H262801   1.039   2.350  14.483 -1.8023  1.2324 -1.2077
13796TIP3   OH262802   0.263   5.023   4.661  0.4981 -0.0320  0.1215
13796TIP3    H162803   0.229   5.090   4.602  3.0699 -1.2286 -2.9836
13796TIP3    H262804   0.333   5.066   4.709 -0.7940  0.6051  1.5304
13797TIP3   OH262805   6.183   3.061   6.880  0.1731  0.0759 -0.1910
13797TIP3    H162806   6.126   3.134   6.855  1.1730  0.9584  0.0197
13797TIP3    H262807   6.139   2.983   6.846 -1.6165  0.6115  0.7370
13798TIP3   OH262808   1.673   4.465  16.059 -0.1049 -0.7420  0.3740
13798TIP3    H162809   1.588   4.498  16.088 -1.3280 -2.5914 -0.8946
13798TIP3    H262810   1.671   4.475  15.964  1.4192 -0.1876  0.3774
13799TIP3   OH262811   0.344   4.904   0.351  0.0598 -0.1819  0.5574
13799TIP3    H162812   0.432   4.940   0.338 -0.8492  2.0415  0.1559
13799TIP3    H262813   0.295   4.976   0.391 -1.8493 -1.0091 -0.1978
13800TIP3   OH262814   6.190   5.840   0.005  0.2177  1.0446  0.3846
13800TIP3    H162815   6.190   5.771   0.071 -1.0904  0.0876 -0.5503
13800TIP3    H262816   6.283   5.864  -0.005  0.5982  0.0718  1.3804
13801TIP3   OH262817   2.632   1.209  16.566 -0.3657  0.1076 -0.3083
13801TIP3    H162818   2.615   1.197  16.660  1.3481 -0.4070 -0.0371
13801TIP3    H262819   2.546   1.228  16.529 -1.1542 -0.1506  1.2923
13802TIP3   OH262820   5.401   3.501   5.837 -0.4297 -0.1137 -0.3663
13802TIP3    H162821   5.469   3.517   5.902  0.0624 -2.4931 -0.2035
13802TIP3    H262822   5.445   3.514   5.753 -0.6306  1.3375 -0.2741
13803TIP3   OH262823   3.750   3.062  16.630 -0.3117  0.8573  0.7513
13803TIP3    H162824   3.763   2.967  16.628 -1.5312  0.6345  2.0175
13803TIP3    H262825   3.730   3.086  16.539  1.0429  0.0852  0.2235
13804TIP3   OH262826   4.726   2.512   0.237 -0.2417 -0.1709  0.0986
13804TIP3    H162827   4.647   2.536   0.285  0.4012 -2.9518  2.8476
13804TIP3    H262828   4.791   2.577   0.266 -0.3774 -0.6366  1.5514
13805TIP3   OH262829   4.513   4.304   0.960 -0.3177  0.1209 -0.7263
13805TIP3    H162830   4.569   4.228   0.975 -0.7564  0.0966  1.0096
13805TIP3    H262831   4.553   4.349   0.885  0.5080 -1.2748 -1.1666
13806TIP3   OH262832   6.512   5.868  11.966 -0.2754 -0.1955  0.1746
13806TIP3    H162833   6.565   5.856  11.887 -0.6509  0.7718 -0.2473
13806TIP3    H262834   6.422   5.876  11.933 -0.1880  2.7184  0.4249
13807TIP3   OH262835   3.006   4.321   0.814 -0.0167 -0.5734 -0.6916
13807TIP3    H162836   2.969   4.336   0.901  0.5599 -0.0937 -0.5245
13807TIP3    H262837   3.089   4.369   0.814 -0.3387  0.0240 -1.7410
13808TIP3   OH262838   5.295   4.462  16.817 -0.1517 -0.3639  0.2108
13808TIP3    H162839   5.312   4.521  16.890  1.1628  0.9582 -1.0935
13808TIP3    H262840   5.220   4.410  16.845  1.7870 -1.7063  3.5469
13809TIP3   OH262841   0.164   1.410  14.165 -0.3191  0.2055 -0.1846
13809TIP3    H162842   0.115   1.395  14.245  0.2899  2.2921  0.6422
13809TIP3    H262843   0.256   1.398  14.190 -0.2306 -1.2757 -1.1253
13810TIP3   OH262844   2.754   4.906  16.403 -0.1471 -0.0377  0.3811
13810TIP3    H162845   2.787   4.819  16.382 -3.0579 -1.2037  0.1519
13810TIP3    H262846   2.734   4.903  16.496 -0.9580  0.1173  0.2159
13811TIP3   OH262847   1.160   0.735   4.580 -0.0439 -0.5727 -0.4209
13811TIP3    H162848   1.208   0.654   4.567  1.4537  0.3926 -1.2809
13811TIP3    H262849   1.107   0.745   4.501 -2.1967 -1.9296  0.7816
13812TIP3   OH262850   4.866   0.579  13.472 -0.2854  0.0067 -0.6083
13812TIP3    H162851   4.778   0.611  13.454 -0.2715 -0.2505 -1.1493
13812TIP3    H262852   4.920   0.657  13.476 -0.7301  0.2813  0.9397
13813TIP3   OH262853   3.628   0.898   5.016  0.1377  0.1091 -0.5161
13813TIP3    H162854   3.620   0.834   4.945  0.8479 -1.6503  0.9076
13813TIP3    H262855   3.708   0.872   5.062 -1.0950  0.2031  1.8311
13814TIP3   OH262856   0.260   2.146   1.110 -0.3948  0.1422  0.1115
13814TIP3    H162857   0.246   2.219   1.171 -0.0366  1.1916 -1.0340
13814TIP3    H262858   0.345   2.110   1.136 -0.7992 -0.2211  1.0041
13815TIP3   OH262859   3.048   6.646   4.034 -0.5510 -0.5957  1.0279
13815TIP3    H162860   2.960   6.662   4.070 -0.4343 -0.5598  1.2998
13815TIP3    H262861   3.073   6.730   3.995 -0.5735 -0.5594  1.0907
13816TIP3   OH262862   6.360   4.572  15.357  0.1042 -0.3859  0.0268
13816TIP3    H162863   6.360   4.663  15.385  0.6146  0.0341 -1.2656
13816TIP3    H262864   6.357   4.522  15.439 -2.9415  0.7295  0.7330
13817TIP3   OH262865   6.433   5.502  12.013 -0.2453 -0.2891  0.3438
13817TIP3    H162866   6.518   5.540  12.034  1.4202 -3.5548  0.1948
13817TIP3    H262867   6.417   5.527  11.922  0.6906  0.1641  0.2907
13818TIP3   OH262868   5.848   1.881   0.484  0.6466  0.4866 -0.0002
13818TIP3    H162869   5.916   1.867   0.417  2.1005 -0.1419  1.5339
13818TIP3    H262870   5.808   1.964   0.460  0.7718  0.0374 -1.9370
13819TIP3   OH262871   1.224   1.697   4.008 -0.3701  0.5940  0.4789
13819TIP3    H162872   1.162   1.750   4.058  1.4798  2.1415  1.2400
13819TIP3    H262873   1.310   1.723   4.041  0.6820 -2.8995  0.8901
13820TIP3   OH262874   6.019   5.539   0.068 -0.1195 -0.2822  0.5395
13820TIP3    H162875   5.983   5.450   0.064 -0.6083 -0.0760  0.2597
13820TIP3    H262876   5.996   5.578  -0.017  0.0348  0.1334  0.6866
13821TIP3   OH262877   1.004   0.422  16.670 -0.3451 -0.1644  0.3855
13821TIP3    H162878   1.077   0.362  16.684 -1.1729 -1.5351 -0.8083
13821TIP3    H262879   1.023   0.463  16.585 -0.0139  0.9338  0.9809
13822TIP3   OH262880   5.690   5.659   2.017 -0.5405  0.7138 -0.4119
13822TIP3    H162881   5.699   5.738   2.072 -1.4613 -0.6035  1.7456
13822TIP3    H262882   5.609   5.673   1.968  0.8421  2.3942 -2.4258
13823TIP3   OH262883   6.154   5.961   0.420  0.2897 -0.6241 -1.1467
13823TIP3    H162884   6.123   6.001   0.338 -0.4114 -0.0674 -0.6205
13823TIP3    H262885   6.076   5.956   0.475  1.0690  0.6151  0.1386
13824TIP3   OH262886   3.798   6.490   2.525  0.3243  0.5306  0.1026
13824TIP3    H162887   3.738   6.510   2.597  0.2838  1.9432 -0.2978
13824TIP3    H262888   3.741   6.470   2.451  0.3498  0.9368 -0.0282
13825TIP3   OH262889   1.389   1.716  11.418 -0.4558  0.1193 -0.5330
13825TIP3    H162890   1.400   1.790  11.478 -2.2736 -1.2317  1.6682
13825TIP3    H262891   1.463   1.658  11.437  0.8137  1.1708 -2.0605
13826TIP3   OH262892   2.052   6.106  11.700 -0.6587 -0.0026  0.1601
13826TIP3    H162893   2.138   6.130  11.735 -0.0400  0.4729 -1.6033
13826TIP3    H262894   2.014   6.050  11.768  1.1193 -0.4239  0.8753
13827TIP3   OH262895   0.028   3.533   1.093  0.0437 -0.9442  0.1854
13827TIP3    H162896   0.031   3.454   1.148 -0.8835 -0.4783  0.9431
13827TIP3    H262897  -0.039   3.514   1.028 -1.0704 -0.3546  1.1129
13828TIP3   OH262898   0.936   4.898  12.331  0.3882 -0.0296 -0.2870
13828TIP3    H162899   0.925   4.851  12.413  2.5299 -0.6412 -0.2881
13828TIP3    H262900   0.914   4.835  12.263  0.0347  0.0283 -0.2302
13829TIP3   OH262901   2.499   2.018   1.477  0.4867 -0.1095  0.2975
13829TIP3    H162902   2.578   2.071   1.474 -1.1083  2.6180  1.9867
13829TIP3    H262903   2.435   2.067   1.424 -0.1338 -2.2097 -1.0044
13830TIP3   OH262904   0.848   0.950   1.028 -0.0229 -0.2347 -0.3958
13830TIP3    H162905   0.793   1.002   1.087  0.5732  0.4050 -0.3901
13830TIP3    H262906   0.811   0.964   0.941 -1.4906 -1.9273 -0.1134
13831TIP3   OH262907   3.013   5.507   1.288 -0.2514  0.2085 -0.0062
13831TIP3    H162908   2.978   5.587   1.249 -1.3358  0.1429  0.7668
13831TIP3    H262909   2.951   5.439   1.261  1.1303 -0.5666 -1.3825
13832TIP3   OH262910   4.295   2.382  12.375 -0.4164  0.0751 -0.4387
13832TIP3    H162911   4.321   2.346  12.460 -0.6683 -0.7541 -0.7122
13832TIP3    H262912   4.209   2.345  12.357  0.6259 -1.7161 -2.1598
13833TIP3   OH262913   5.792   5.837  12.583  0.5013 -0.1343 -0.5467
13833TIP3    H162914   5.812   5.743  12.581 -1.4978 -0.6335  0.0216
13833TIP3    H262915   5.848   5.872  12.653  0.7256 -1.0596 -0.2443
13834TIP3   OH262916   1.868   1.100   2.191  0.0911 -0.5069  0.3940
13834TIP3    H162917   1.958   1.103   2.158  0.6502 -1.5967  1.6972
13834TIP3    H262918   1.860   1.178   2.245 -0.8721  1.3615 -2.2183
13835TIP3   OH262919   6.660   6.602   0.676  0.0115  0.3119 -0.3420
13835TIP3    H162920   6.696   6.687   0.704  0.8309 -0.4070  0.8706
13835TIP3    H262921   6.571   6.622   0.648 -0.6338  1.2374  2.1328
13836TIP3   OH262922   5.464   5.474   0.274 -0.3228  0.3394 -0.4060
13836TIP3    H162923   5.381   5.505   0.309 -0.9795 -1.0230 -0.7233
13836TIP3    H262924   5.482   5.393   0.321  0.3358  0.1109 -1.0334
13837TIP3   OH262925   4.711   6.022  15.183 -0.5949 -0.0698 -0.5168
13837TIP3    H162926   4.790   5.980  15.150 -0.5140  0.3033 -0.8155
13837TIP3    H262927   4.640   5.986  15.129 -0.6973 -0.7726  0.0811
13838TIP3   OH262928   2.642   2.005   2.738 -0.2381  0.1336  0.1451
13838TIP3    H162929   2.631   2.087   2.690 -2.3823 -0.3144 -0.2236
13838TIP3    H262930   2.561   1.994   2.787  0.6960 -0.9323  1.5582
13839TIP3   OH262931   3.106   5.238  12.563  0.8410  0.1031  0.1374
13839TIP3    H162932   3.163   5.167  12.595  2.5394  0.3202 -2.1790
13839TIP3    H262933   3.026   5.229  12.615  1.7262 -2.3049  1.2507
13840TIP3   OH262934   6.427   3.105   2.171 -0.0714 -0.2653  0.5397
13840TIP3    H162935   6.507   3.107   2.119 -0.7925 -1.7029 -0.7142
13840TIP3    H262936   6.356   3.114   2.107 -0.9402  0.7922  1.5999
13841TIP3   OH262937   3.456   0.132  16.834  0.8237  0.3019 -0.0726
13841TIP3    H162938   3.377   0.184  16.817 -0.3882 -1.3800  0.1369
13841TIP3    H262939   3.494   0.118  16.748 -1.2783 -2.0655 -0.7438
13842TIP3   OH262940   5.242   4.879  12.705  0.1279  0.0162 -0.0771
13842TIP3    H162941   5.329   4.851  12.735 -0.1791 -1.1420 -0.2120
13842TIP3    H262942   5.261   4.945  12.639  0.8844  0.4383  0.5410
13843TIP3   OH262943   0.939   5.056  14.348 -0.0400  0.0546 -0.5508
13843TIP3    H162944   0.876   4.984  14.349 -0.4891  0.4373 -0.7883
13843TIP3    H262945   0.974   5.057  14.259 -0.2265  0.2876 -0.6245
13844TIP3   OH262946   3.553   0.460   4.063  0.0157 -0.1977  0.9933
13844TIP3    H162947   3.489   0.462   3.992  0.7817 -1.3024  0.2521
13844TIP3    H262948   3.500   0.448   4.142 -0.6490 -2.5200  0.2680
13845TIP3   OH262949   0.823   2.223   2.007 -0.2010  0.1993 -0.1035
13845TIP3    H162950   0.732   2.217   2.038 -0.9920  1.7988 -1.8628
13845TIP3    H262951   0.820   2.292   1.940  1.9051 -1.0862 -1.6370
13846TIP3   OH262952   2.470   5.199  15.146  0.4255  0.1323  0.2293
13846TIP3    H162953   2.508   5.132  15.088  1.9334  1.9164 -0.9566
13846TIP3    H262954   2.393   5.230  15.099 -0.1143 -0.5446  0.6497
13847TIP3   OH262955   3.193   0.666   1.173 -0.3313  0.1814  0.0911
13847TIP3    H162956   3.220   0.676   1.264 -3.3265  0.8658  1.0270
13847TIP3    H262957   3.216   0.576   1.151  3.1683  0.8514  0.4088
13848TIP3   OH262958   5.492   1.286  17.151  0.5692  0.3378  0.5391
13848TIP3    H162959   5.416   1.343  17.164  0.9884  0.7201  1.3604
13848TIP3    H262960   5.488   1.261  17.058 -0.7529  0.0708  0.6479
13849TIP3   OH262961   2.699   4.883  13.050  0.1417 -0.3852  0.3066
13849TIP3    H162962   2.690   4.815  12.983 -0.7293  0.8995 -0.9527
13849TIP3    H262963   2.655   4.847  13.127 -2.8003 -0.2269 -1.1548
13850TIP3   OH262964   2.021   2.564  16.806  0.4756 -0.1919 -0.6947
13850TIP3    H162965   1.956   2.569  16.736 -0.2298 -1.0423 -0.1247
13850TIP3    H262966   2.069   2.483  16.790 -0.6685 -1.1811  0.5831
13851TIP3   OH262967   5.521   6.291  16.399 -0.2555 -0.1383  0.0777
13851TIP3    H162968   5.459   6.285  16.472 -0.8992 -0.5789 -0.4945
13851TIP3    H262969   5.472   6.337  16.330  0.0279 -0.5678 -0.4079
13852TIP3   OH262970   3.101   4.180   6.163  0.0672  0.3415  0.1926
13852TIP3    H162971   3.135   4.154   6.078 -0.1800  2.3488 -0.5821
13852TIP3    H262972   3.032   4.244   6.143 -0.9510 -0.1434  1.8628
13853TIP3   OH262973   1.465   6.468  15.369  0.4144 -0.3500  0.1701
13853TIP3    H162974   1.459   6.563  15.377 -1.2744  0.0923 -3.7355
13853TIP3    H262975   1.379   6.436  15.399  1.1099 -0.7694  1.8348
13854TIP3   OH262976   5.584   4.416   3.753  0.0257  0.3257 -0.3905
13854TIP3    H162977   5.646   4.432   3.683  0.6784 -1.7048 -0.3324
13854TIP3    H262978   5.633   4.367   3.819 -1.1458  0.3146  0.5211
13855TIP3   OH262979   4.455   1.695  15.023  0.0209  0.2760  0.6321
13855TIP3    H162980   4.472   1.779  14.982  0.1739 -0.5121 -0.9764
13855TIP3    H262981   4.468   1.631  14.953 -0.3430 -1.0675  1.7557
13856TIP3   OH262982   4.898   6.371  16.311 -0.1102 -0.7744 -0.3536
13856TIP3    H162983   4.961   6.432  16.272 -0.0767 -0.3806  0.3003
13856TIP3    H262984   4.908   6.290  16.260 -0.4464 -0.1117 -1.4973
13857TIP3   OH262985   3.079   2.462  14.931 -0.4398 -0.1762  0.0829
13857TIP3    H162986   3.136   2.398  14.974 -1.2247 -0.0993  1.2896
13857TIP3    H262987   3.134   2.502  14.864  0.5656 -0.9287  0.4337
13858TIP3   OH262988   5.969   4.143   4.368  0.3204  0.2244 -0.0719
13858TIP3    H162989   5.923   4.121   4.449  0.2219 -1.6087 -0.5919
13858TIP3    H262990   5.972   4.062   4.318  1.0645  1.1247 -1.5914
13859TIP3   OH262991   0.204   3.733   1.980 -0.6658  0.4974 -0.9460
13859TIP3    H162992   0.191   3.824   2.004  0.0301  0.7098 -1.3488
13859TIP3    H262993   0.149   3.683   2.041 -0.6411  1.1501 -0.3912
13860TIP3   OH262994   0.513   1.732   3.313 -0.2055  0.8004  0.4019
13860TIP3    H162995   0.557   1.801   3.263  0.8282  0.7749  1.2337
13860TIP3    H262996   0.585   1.678   3.347 -0.8645  0.8024  1.8745
13861TIP3   OH262997   3.126   4.367  14.465 -0.2023  0.4044  0.1932
13861TIP3    H162998   3.126   4.286  14.515  0.5198  0.2238 -0.0914
13861TIP3    H262999   3.218   4.390  14.455 -0.3713  0.9068 -0.3046
13862TIP3   OH263000   3.876   0.388  11.027  0.0383 -0.1816  0.3655
13862TIP3    H163001   3.967   0.409  11.004 -0.0049  0.5828  0.8476
13862TIP3    H263002   3.850   0.459  11.086 -0.8317 -0.4661  0.3289
13863TIP3   OH263003   4.719   2.801   4.838  0.1790  0.2094 -0.0447
13863TIP3    H163004   4.656   2.851   4.786  1.1541  1.7030  0.1696
13863TIP3    H263005   4.692   2.709   4.826 -0.8454  0.6685 -1.5105
13864TIP3   OH263006   3.701   6.376  16.683  0.2717  0.9315 -0.1326
13864TIP3    H163007   3.715   6.457  16.732  2.1500  1.4553 -1.4197
13864TIP3    H263008   3.765   6.315  16.719  1.0669  1.0500 -1.2947
13865TIP3   OH263009   0.787   6.215   0.047 -0.2107 -1.0511 -0.0519
13865TIP3    H163010   0.703   6.253   0.022  0.2443  0.0263  0.0127
13865TIP3    H263011   0.765   6.149   0.113 -1.5785 -4.7743 -3.7730
13866TIP3   OH263012   6.467   1.305   6.461  0.0477 -0.6022  0.3084
13866TIP3    H163013   6.499   1.351   6.384  0.0197 -1.0565  0.0241
13866TIP3    H263014   6.389   1.257   6.431  0.2002 -1.0083  0.5436
13867TIP3   OH263015   4.301   4.881   4.203 -0.1307 -0.1728 -0.5018
13867TIP3    H163016   4.210   4.852   4.215 -0.5899  0.6006 -1.9447
13867TIP3    H263017   4.308   4.901   4.110  0.2965  3.7425  0.1999
13868TIP3   OH263018   3.416   4.414  10.686  0.5833  0.1503  0.3215
13868TIP3    H163019   3.324   4.420  10.713 -0.2639  0.2062 -2.2427
13868TIP3    H263020   3.414   4.357  10.609  2.5391  0.9721 -0.4034
13869TIP3   OH263021   3.174   4.432   6.337 -0.1694 -0.0863  0.2343
13869TIP3    H163022   3.153   4.346   6.302  0.2679 -0.8707  1.7907
13869TIP3    H263023   3.145   4.428   6.428  1.9787  0.5625  1.0150
13870TIP3   OH263024   2.236   5.679   4.820  0.2299 -0.4274 -0.3125
13870TIP3    H163025   2.269   5.601   4.863 -0.6332 -1.0518 -0.7351
13870TIP3    H263026   2.141   5.665   4.816  0.0109  0.8766  0.0545
13871TIP3   OH263027   4.851   2.356   2.359  0.5735 -0.0684  0.3779
13871TIP3    H163028   4.942   2.365   2.388  0.0419 -0.3757  2.2810
13871TIP3    H263029   4.807   2.433   2.395  0.4146  1.1278 -2.1731
13872TIP3   OH263030   5.869   6.584  15.898  0.1375 -0.0341 -0.0142
13872TIP3    H163031   5.876   6.542  15.812 -0.3796 -0.3725  0.1090
13872TIP3    H263032   5.823   6.520  15.953  0.3748  0.2208  0.4889
13873TIP3   OH263033   4.072   0.939   4.809  0.4053  0.2590  0.7459
13873TIP3    H163034   4.133   0.877   4.849  2.3977  1.2789 -0.5462
13873TIP3    H263035   4.058   0.906   4.721  1.4507  1.5701  0.0549
13874TIP3   OH263036   0.726   5.364  11.907  0.4376 -0.0921 -0.4587
13874TIP3    H163037   0.767   5.308  11.973  0.8181  0.1338 -0.4929
13874TIP3    H263038   0.698   5.305  11.838 -1.1806 -0.4873  0.4991
13875TIP3   OH263039   6.523   1.986  15.108 -0.3383 -0.1463  0.6666
13875TIP3    H163040   6.566   2.072  15.107  1.9268 -1.2203  0.9906
13875TIP3    H263041   6.525   1.957  15.017  0.6990 -0.6685  0.8380
13876TIP3   OH263042   6.279   1.075  13.380  0.1645 -0.2708 -0.4032
13876TIP3    H163043   6.297   0.995  13.330 -0.3354 -0.2903 -0.5583
13876TIP3    H263044   6.357   1.088  13.434  0.3966 -0.6665 -0.6401
13877TIP3   OH263045   2.124   4.585   5.816  0.0024 -0.3295  0.0656
13877TIP3    H163046   2.033   4.608   5.834  0.1211 -0.8783  1.5338
13877TIP3    H263047   2.164   4.578   5.902  1.2756 -0.7578 -0.5360
13878TIP3   OH263048   3.588   2.479   2.623 -0.6125  0.4044 -0.8395
13878TIP3    H163049   3.618   2.424   2.550 -2.8033 -1.0652 -0.7379
13878TIP3    H263050   3.512   2.433   2.658 -1.2180  2.4172  0.7083
13879TIP3   OH263051   4.970   2.957   3.520 -0.2825 -0.1528 -0.7002
13879TIP3    H163052   4.894   2.975   3.465 -1.6830 -1.5771  0.6681
13879TIP3    H263053   4.938   2.969   3.609  2.0451  2.5941 -0.0734
13880TIP3   OH263054   5.508   4.230  15.136 -0.2593 -0.1431 -0.1320
13880TIP3    H163055   5.572   4.237  15.065  0.4688 -1.9235  0.2906
13880TIP3    H263056   5.559   4.197  15.210 -1.0565  1.4175  1.1640
13881TIP3   OH263057   1.890   2.738   5.271 -0.4271 -0.5564  0.0495
13881TIP3    H163058   1.809   2.768   5.313  0.3773  0.3922  0.9881
13881TIP3    H263059   1.953   2.733   5.343  0.5005 -0.7056 -0.7566
13882TIP3   OH263060   5.294   0.116   1.357  0.6191  0.6830  0.6063
13882TIP3    H163061   5.336   0.031   1.371  0.2062  0.3797  0.0725
13882TIP3    H263062   5.367   0.176   1.341  0.8735  0.2222 -0.0200
13883TIP3   OH263063   0.768   1.615  15.317  0.5512 -0.4733 -0.6151
13883TIP3    H163064   0.737   1.704  15.301  2.0534  0.3801  0.9083
13883TIP3    H263065   0.796   1.583  15.232  2.1501  1.4221 -0.8796
13884TIP3   OH263066   6.024   2.811  15.478  0.9268  0.1737 -0.0731
13884TIP3    H163067   5.998   2.726  15.513  0.9549  0.3716  0.4352
13884TIP3    H263068   6.048   2.794  15.387  0.7943 -0.3354 -0.0106
13885TIP3   OH263069   4.075   6.009   4.814  0.0340 -0.0299 -0.1903
13885TIP3    H163070   4.104   5.997   4.905  0.1048 -0.6162 -0.2922
13885TIP3    H263071   3.987   6.047   4.823 -0.5749 -1.4591  0.1406
13886TIP3   OH263072   4.829   0.694   4.155 -0.2376 -0.8271  1.0779
13886TIP3    H163073   4.767   0.623   4.168 -0.2471 -1.3162 -1.2111
13886TIP3    H263074   4.784   0.755   4.096  0.3546  0.3059  1.7688
13887TIP3   OH263075   0.260   3.710  14.114 -0.2040  0.2868  0.1627
13887TIP3    H163076   0.327   3.642  14.114 -0.8748 -0.3915 -0.0941
13887TIP3    H263077   0.288   3.771  14.045  1.2007  1.1216  1.3958
13888TIP3   OH263078   4.554   5.748  10.943  0.0022  0.4738 -0.1957
13888TIP3    H163079   4.608   5.728  10.867 -0.4954 -0.4830 -0.3219
13888TIP3    H263080   4.599   5.820  10.987 -0.5655  2.2113 -2.2872
13889TIP3   OH263081   2.275   2.622   2.899  0.3369  0.5484  0.5145
13889TIP3    H163082   2.352   2.647   2.848  1.0940  2.8145  2.6226
13889TIP3    H263083   2.309   2.603   2.986 -1.5762  2.9735  1.8962
13890TIP3   OH263084   3.856   3.786   3.616  0.4670 -0.3187 -0.0456
13890TIP3    H163085   3.812   3.708   3.584 -1.7227  0.7987  0.0173
13890TIP3    H263086   3.928   3.800   3.555 -1.2373 -0.4451 -2.2223
13891TIP3   OH263087   2.050   4.053   1.668  0.5646 -0.5164  0.2403
13891TIP3    H163088   2.025   4.092   1.585  1.0692 -0.4625  0.1108
13891TIP3    H263089   1.970   4.009   1.699  0.0965  0.3077  0.2199
13892TIP3   OH263090   0.602   2.908   0.693 -0.0554 -0.0520 -0.2435
13892TIP3    H163091   0.521   2.863   0.668 -1.1551 -2.4008  5.8266
13892TIP3    H263092   0.670   2.841   0.683 -0.1827 -0.3976  1.0836
13893TIP3   OH263093   3.954   5.499  11.934  0.1481 -0.1830  0.0921
13893TIP3    H163094   3.885   5.465  11.878 -0.8267  0.2748  0.9814
13893TIP3    H263095   4.029   5.441  11.918 -0.9378 -1.6882  0.2802
13894TIP3   OH263096   3.804   3.184  13.472 -0.1695 -0.0696  0.1704
13894TIP3    H163097   3.874   3.215  13.414  1.1993 -2.3826  0.4586
13894TIP3    H263098   3.772   3.103  13.430 -0.2443 -0.9214  1.7907
13895TIP3   OH263099   0.468   0.926  12.988 -0.0500  0.4233 -0.1431
13895TIP3    H163100   0.408   0.853  12.973  0.8042 -0.2156 -0.5589
13895TIP3    H263101   0.554   0.892  12.962  0.4360  1.4322  0.0898
13896TIP3   OH263102   1.017   1.239   1.149 -0.6305  0.3544  0.0303
13896TIP3    H163103   1.035   1.202   1.063 -1.1619 -0.5100  0.2784
13896TIP3    H263104   0.933   1.284   1.138 -0.2103  1.1055 -0.1525
13897TIP3   OH263105   4.723   1.966  17.132 -0.2250  0.3443  0.3040
13897TIP3    H163106   4.658   1.927  17.189  0.2403  1.1562  1.4299
13897TIP3    H263107   4.788   2.004  17.191  0.5522  0.7573 -0.7674
13898TIP3   OH263108   0.233   6.702  13.147  0.9131 -0.1063 -0.3534
13898TIP3    H163109   0.242   6.784  13.195  3.6481 -1.1109  1.0302
13898TIP3    H263110   0.310   6.698  13.091 -0.3308 -0.7380 -2.1150
13899TIP3   OH263111   3.793   2.560   5.908 -0.7266 -0.7907 -0.7973
13899TIP3    H163112   3.788   2.464   5.902 -0.7434 -0.9150  0.8830
13899TIP3    H263113   3.776   2.579   6.000  0.5246  0.7528 -0.8557
13900TIP3   OH263114   0.416   1.074  13.494 -0.3068  0.1390  0.1210
13900TIP3    H163115   0.456   1.076  13.407  0.4876 -1.6143  0.4000
13900TIP3    H263116   0.359   0.997  13.492 -0.2232  0.0392  1.1770
13901TIP3   OH263117   3.969   2.571  12.730  0.3381  0.7893 -0.0466
13901TIP3    H163118   3.940   2.543  12.644  0.7680  1.2224 -0.3347
13901TIP3    H263119   4.054   2.611  12.716  0.6859  0.3243  0.6681
13902TIP3   OH263120   2.540   5.261  16.939  0.1973 -0.0710  0.3832
13902TIP3    H163121   2.557   5.224  17.025 -1.5580 -1.6387  0.1212
13902TIP3    H263122   2.616   5.236  16.887  0.2152 -1.1384  0.8964
13903TIP3   OH263123   0.797   6.193  16.928 -0.2668  0.0170  0.0032
13903TIP3    H163124   0.864   6.190  16.997 -1.1133  0.5449  0.8683
13903TIP3    H263125   0.798   6.283  16.897 -1.3171  0.3077  0.7814
13904TIP3   OH263126   3.657   4.302   2.285 -0.1974  0.3662 -0.4203
13904TIP3    H163127   3.670   4.255   2.368  0.5840  0.4822 -0.4764
13904TIP3    H263128   3.577   4.264   2.249 -0.9288  0.7744  0.7128
13905TIP3   OH263129   4.969   1.177  16.558 -0.0976 -0.1018 -0.4890
13905TIP3    H163130   5.007   1.105  16.609 -0.8881 -2.0254 -2.4398
13905TIP3    H263131   5.039   1.203  16.498 -0.0182  0.3508 -0.2052
13906TIP3   OH263132   5.116   3.580   2.110 -0.2488  0.5867  0.3713
13906TIP3    H163133   5.197   3.529   2.114  0.1798  1.1267 -0.8481
13906TIP3    H263134   5.140   3.665   2.147 -0.6982  0.2463  1.4798
13907TIP3   OH263135   4.051   5.994  12.763 -0.5044  0.0232  0.0461
13907TIP3    H163136   4.113   6.061  12.792 -0.8484  1.2330 -1.8594
13907TIP3    H263137   4.016   6.027  12.680 -1.2319 -2.1824 -0.6072
13908TIP3   OH263138   4.723   5.980  11.046 -0.0063  0.7230  0.5957
13908TIP3    H163139   4.807   5.936  11.061  0.4803  0.9500 -1.1886
13908TIP3    H263140   4.743   6.073  11.053 -0.2393  0.7625  0.7457
13909TIP3   OH263141   4.692   1.275  15.419  0.0881  0.4004 -0.2340
13909TIP3    H163142   4.639   1.323  15.355  0.1615  0.1532 -0.4809
13909TIP3    H263143   4.766   1.241  15.368 -0.2265 -0.4004 -0.1585
13910TIP3   OH263144   4.331   5.284  16.703 -0.4637 -0.0151  0.1914
13910TIP3    H163145   4.392   5.245  16.641  0.0564  0.5497  0.3322
13910TIP3    H263146   4.274   5.339  16.650 -2.7322 -2.6797 -0.3543
13911TIP3   OH263147   5.602   0.253  14.773 -0.3193  0.5157  0.3603
13911TIP3    H163148   5.690   0.251  14.811  0.2547  1.3845 -0.8470
13911TIP3    H263149   5.591   0.167  14.732 -1.0939 -0.5773  2.6978
13912TIP3   OH263150   1.141   3.991  14.522  0.1371  0.0853 -0.2236
13912TIP3    H163151   1.140   3.910  14.470 -0.6013 -0.3286  0.4007
13912TIP3    H263152   1.127   3.961  14.612 -0.6455  0.9468 -0.0468
13913TIP3   OH263153   0.660   6.191   0.411  0.5892  0.1388 -0.3736
13913TIP3    H163154   0.615   6.142   0.343 -0.6960  0.9957 -0.1954
13913TIP3    H263155   0.636   6.283   0.395  0.3449  0.3765  1.1202
13914TIP3   OH263156   4.404   6.707   0.933  0.2283  0.0152 -0.2810
13914TIP3    H163157   4.444   6.791   0.908  1.2849 -0.0568  1.0584
13914TIP3    H263158   4.441   6.644   0.871  0.7212  0.2736 -0.2594
13915TIP3   OH263159   6.594   1.260   5.004 -0.2555  0.2161 -1.1334
13915TIP3    H163160   6.498   1.269   4.999 -0.2854  0.3721 -0.3787
13915TIP3    H263161   6.623   1.342   5.044  0.5124  1.6306 -4.2347
13916TIP3   OH263162   4.996   6.098  16.336 -0.1217  0.0161 -0.4913
13916TIP3    H163163   5.065   6.041  16.301 -0.9625 -0.7228 -0.9783
13916TIP3    H263164   4.997   6.082  16.430  0.1997 -0.1818 -0.5260
13917TIP3   OH263165   5.444   1.988  16.726  0.4807 -0.2342 -0.1962
13917TIP3    H163166   5.379   1.960  16.790 -0.5796  0.9393 -0.6998
13917TIP3    H263167   5.490   2.061  16.768  1.1539 -0.7431 -0.0310
13918TIP3   OH263168   5.005   2.995  13.832  0.4367 -0.2271  0.5231
13918TIP3    H163169   5.073   3.006  13.898  2.1473  1.4357 -1.3513
13918TIP3    H263170   5.006   2.901  13.812  2.0442 -0.2958  0.7355
13919TIP3   OH263171   1.520   5.967   2.608 -0.4471  0.5280  0.7307
13919TIP3    H163172   1.504   6.059   2.586 -1.0727  0.4611  0.8814
13919TIP3    H263173   1.439   5.922   2.583  0.6712 -0.3880 -1.5457
13920TIP3   OH263174   1.907   3.970  14.795  0.1827 -0.0483 -0.3483
13920TIP3    H163175   1.989   3.943  14.754  0.6367 -0.0159  0.5348
13920TIP3    H263176   1.910   3.934  14.883 -0.6294  0.1927 -0.2106
13921TIP3   OH263177   0.779   1.553   6.742 -0.4054  0.1702 -0.1110
13921TIP3    H163178   0.862   1.578   6.782 -0.6596 -0.8560  1.1128
13921TIP3    H263179   0.713   1.604   6.788 -0.8089 -1.7967  1.6154
13922TIP3   OH263180   1.026   1.812  16.758 -0.5517 -0.3307 -0.3871
13922TIP3    H163181   1.031   1.812  16.853 -2.4383 -1.0994 -0.2579
13922TIP3    H263182   1.017   1.720  16.734 -0.3357 -0.1246 -1.3121
13923TIP3   OH263183   0.537   3.511   2.683 -0.3555  0.6782  0.3262
13923TIP3    H163184   0.570   3.429   2.720 -1.7114 -0.1509 -0.2188
13923TIP3    H263185   0.601   3.535   2.616 -0.3283 -0.3763 -0.0515
13924TIP3   OH263186   5.611   6.553  12.833 -0.3075 -0.2576 -0.3656
13924TIP3    H163187   5.564   6.544  12.916 -2.3843  0.5459 -1.3767
13924TIP3    H263188   5.631   6.647  12.826 -1.4895 -0.0564 -1.4137
13925TIP3   OH263189   1.315   1.118  11.327 -0.6446  0.4341  0.4206
13925TIP3    H163190   1.244   1.062  11.359  0.6033 -0.3868  1.8803
13925TIP3    H263191   1.292   1.136  11.236 -1.3215 -2.1408  0.0005
13926TIP3   OH263192   2.140   6.328   0.841  0.2010 -0.2197 -0.3943
13926TIP3    H163193   2.152   6.322   0.746  0.3061 -0.1051 -0.3879
13926TIP3    H263194   2.122   6.238   0.868 -3.5052  0.1601 -1.0177
13927TIP3   OH263195   1.579   4.713  12.104 -0.2759 -0.0945  0.6162
13927TIP3    H163196   1.620   4.633  12.138 -0.0221 -0.8317 -1.3004
13927TIP3    H263197   1.490   4.710  12.138 -0.0944 -0.9016  1.0561
13928TIP3   OH263198   0.767   0.444   4.128  0.0491  0.4707  0.0994
13928TIP3    H163199   0.772   0.484   4.215  2.4678 -0.9723  0.7313
13928TIP3    H263200   0.818   0.503   4.072  0.0118  0.4862  0.0821
13929TIP3   OH263201   3.636   6.544   6.608  0.6818  0.2053 -0.3353
13929TIP3    H163202   3.678   6.459   6.601 -0.9881 -0.7234  0.3119
13929TIP3    H263203   3.641   6.566   6.701  1.2517  0.9137 -0.5214
13930TIP3   OH263204   5.451   5.850  12.144 -0.6528 -0.0271  0.4812
13930TIP3    H163205   5.399   5.795  12.085 -0.0121  0.4930 -0.6033
13930TIP3    H263206   5.390   5.918  12.173 -1.3900 -1.1610  1.6660
13931TIP3   OH263207   4.006   2.957   4.980 -0.3441 -0.0473 -0.1230
13931TIP3    H163208   4.080   3.001   4.938 -0.5750  0.2760 -0.1881
13931TIP3    H263209   3.937   3.023   4.983 -0.2024  0.0852  1.1309
13932TIP3   OH263210   2.957   3.717  14.164 -0.0257  0.0346 -0.6209
13932TIP3    H163211   3.007   3.786  14.208 -0.1543  0.2989 -0.8865
13932TIP3    H263212   3.020   3.648  14.146 -0.4069 -1.2590  2.3351
13933TIP3   OH263213   3.394   0.325  12.112  0.2204 -0.1719 -0.2007
13933TIP3    H163214   3.411   0.246  12.060  0.2683  0.3633 -1.0249
13933TIP3    H263215   3.435   0.307  12.196  0.5519 -0.8827 -0.4992
13934TIP3   OH263216   3.567   0.289   5.676  0.0696  0.3267 -0.1301
13934TIP3    H163217   3.560   0.285   5.581  1.1051  0.8311 -0.2463
13934TIP3    H263218   3.509   0.220   5.708 -2.3717  1.8400 -1.0045
13935TIP3   OH263219   4.055   2.280   1.207  0.4305 -0.1260  0.3061
13935TIP3    H163220   4.000   2.239   1.140  0.9147 -1.0572  0.4573
13935TIP3    H263221   3.992   2.314   1.271  0.0056 -1.0614  0.4121
13936TIP3   OH263222   2.599   3.354   0.933 -0.1510  0.3327 -0.0336
13936TIP3    H163223   2.678   3.403   0.955 -0.1038 -0.1033  0.8085
13936TIP3    H263224   2.631   3.274   0.890 -0.0603 -0.3550  1.2745
13937TIP3   OH263225   0.828   4.012   0.526 -0.3488 -0.2845  0.2701
13937TIP3    H163226   0.867   4.001   0.439  1.8499 -1.3473  1.3090
13937TIP3    H263227   0.891   4.065   0.574 -1.9531  1.0326  1.0036
13938TIP3   OH263228   6.412   5.776   3.885  0.6748  0.6496  0.7228
13938TIP3    H163229   6.474   5.815   3.946  0.2993  2.1258  0.2128
13938TIP3    H263230   6.435   5.814   3.800  1.5100 -1.7496 -0.1937
13939TIP3   OH263231   0.271   1.855  14.472  0.5131 -0.0284  0.2671
13939TIP3    H163232   0.343   1.795  14.452  1.1921  0.6910  0.4965
13939TIP3    H263233   0.256   1.902  14.390  1.3997  0.9458  0.6448
13940TIP3   OH263234   3.351   5.045   2.465  0.5552 -0.0036  0.1027
13940TIP3    H163235   3.401   5.100   2.405 -0.1941 -0.5065 -1.0173
13940TIP3    H263236   3.376   5.076   2.552  1.3327  1.0453 -0.4684
13941TIP3   OH263237   5.559   4.391   1.332 -0.0854  0.5438 -0.0337
13941TIP3    H163238   5.550   4.310   1.381 -0.0589 -0.0728 -1.0045
13941TIP3    H263239   5.646   4.384   1.291 -0.5637  0.5069 -1.0694
13942TIP3   OH263240   0.702   4.775   4.146 -0.2064 -0.9134  0.5525
13942TIP3    H163241   0.784   4.743   4.108 -0.2759  0.1813 -0.5826
13942TIP3    H263242   0.657   4.696   4.177  1.1511 -1.5542  0.9837
13943TIP3   OH263243   5.134   2.531  12.519 -0.1632 -0.0520 -0.7419
13943TIP3    H163244   5.071   2.524  12.591  0.7755 -0.2684  0.0796
13943TIP3    H263245   5.205   2.585  12.554 -0.2902  0.9371 -1.9545
13944TIP3   OH263246   2.659   1.531   2.727 -0.0841 -0.2771  0.6546
13944TIP3    H163247   2.574   1.507   2.763 -0.0927 -0.2222  0.6708
13944TIP3    H263248   2.642   1.608   2.672 -0.3121 -1.2237 -0.6266
13945TIP3   OH263249   2.899   1.918   3.681 -0.3440 -0.5085  0.3076
13945TIP3    H163250   2.880   1.841   3.627 -1.3382 -0.7473  0.9885
13945TIP3    H263251   2.820   1.972   3.675 -0.4179 -0.4838  1.4406
13946TIP3   OH263252   1.397   5.330  12.461  0.2208 -0.2042  0.2374
13946TIP3    H163253   1.309   5.296  12.443  0.6610 -0.3170 -1.9412
13946TIP3    H263254   1.419   5.294  12.547 -2.1221  0.4320  1.1766
13947TIP3   OH263255   2.118   4.518   5.486 -0.0604  0.0496 -0.3380
13947TIP3    H163256   2.080   4.588   5.539 -1.1548  0.2828 -1.3882
13947TIP3    H263257   2.211   4.542   5.478 -0.1690  0.7265  0.3165
13948TIP3   OH263258   0.090   4.786  11.090  0.4061  0.3802  0.1289
13948TIP3    H163259   0.113   4.694  11.092  0.3072  0.2019 -2.8296
13948TIP3    H263260   0.032   4.798  11.166  1.4077 -1.6437  1.3011
13949TIP3   OH263261   3.843   6.667  11.335  0.3913 -0.2851 -0.0354
13949TIP3    H163262   3.820   6.656  11.427  0.9983  0.9105  0.2820
13949TIP3    H263263   3.769   6.715  11.298  0.3650 -0.3497 -0.0676
13950TIP3   OH263264   4.111   4.700  13.719 -0.1166  0.0537 -0.3443
13950TIP3    H163265   4.054   4.647  13.776  0.1058  1.0416  0.8489
13950TIP3    H263266   4.193   4.708  13.768 -0.1509  1.4913 -0.4783
13951TIP3   OH263267   0.948   3.128   4.055  0.1984  0.3821  0.4019
13951TIP3    H163268   0.995   3.204   4.090  0.5091 -0.2869  1.4848
13951TIP3    H263269   0.916   3.082   4.132 -0.8618 -0.0556 -0.2770
13952TIP3   OH263270   0.396   6.048  11.704  0.5110  0.0642  0.1509
13952TIP3    H163271   0.417   6.140  11.721 -1.7730  0.6467  0.0507
13952TIP3    H263272   0.307   6.049  11.670  0.4590 -2.1970  0.0778
13953TIP3   OH263273   0.372   2.149   3.850  0.0427 -0.2207  0.1663
13953TIP3    H163274   0.425   2.221   3.817  1.4203 -1.0258  0.5456
13953TIP3    H263275   0.433   2.075   3.858 -1.6081 -1.8693 -1.5764
13954TIP3   OH263276   5.605   6.251   2.325  0.5264 -0.1613  0.0839
13954TIP3    H163277   5.578   6.173   2.373 -1.5198 -1.4759 -2.9573
13954TIP3    H263278   5.526   6.305   2.320  1.2169  0.8636 -0.1509
13955TIP3   OH263279   0.152   4.133   4.704 -0.3398  0.5589  0.0987
13955TIP3    H163280   0.090   4.103   4.638  0.1615  0.0019 -0.1262
13955TIP3    H263281   0.208   4.196   4.659  0.6963 -0.6376 -0.3052
13956TIP3   OH263282   5.943   2.005  14.174  0.0147  0.1345 -0.6945
13956TIP3    H163283   6.013   2.016  14.110  0.9850 -0.4312  0.2325
13956TIP3    H263284   5.989   1.992  14.257 -1.1968  1.7630  0.3011
13957TIP3   OH263285   4.632   4.213  15.246  0.1266 -0.1033  0.0081
13957TIP3    H163286   4.546   4.178  15.224  0.2683 -0.3229 -0.2041
13957TIP3    H263287   4.687   4.136  15.260  0.1108  0.0366  0.8608
13958TIP3   OH263288   4.174   1.073  13.095 -0.0988  0.0362 -0.1258
13958TIP3    H163289   4.208   1.001  13.043  0.2604 -0.0586  0.2368
13958TIP3    H263290   4.248   1.134  13.103 -0.1828  0.0972  0.1864
13959TIP3   OH263291   0.778   2.696   1.138  0.1517  0.0103 -0.2867
13959TIP3    H163292   0.822   2.683   1.055  1.3160 -0.5886  0.4092
13959TIP3    H263293   0.688   2.667   1.122  0.5020 -0.6213 -1.1760
13960TIP3   OH263294   2.085   0.664   5.503  0.1504 -0.7264  0.1428
13960TIP3    H163295   2.060   0.712   5.424  1.1096 -1.8972 -0.9157
13960TIP3    H263296   2.004   0.659   5.554 -0.2202  1.0620 -0.1957
13961TIP3   OH263297   4.486   1.896   1.927 -0.5170  0.4232 -0.2551
13961TIP3    H163298   4.472   1.957   1.855 -0.4945 -0.6550 -1.2127
13961TIP3    H263299   4.406   1.842   1.928 -0.2876  0.0873  0.1808
13962TIP3   OH263300   5.594   3.068  13.765  0.3033  0.3235  0.4344
13962TIP3    H163301   5.543   3.016  13.703 -0.3220  0.2163  1.0163
13962TIP3    H263302   5.634   3.137  13.712 -1.1285  0.9101  0.0688
13963TIP3   OH263303   1.154   6.148  11.496  0.4704 -0.3609  0.3648
13963TIP3    H163304   1.063   6.123  11.511  0.5159  0.0259  1.3410
13963TIP3    H263305   1.165   6.141  11.401 -0.4832 -0.7093  0.2670
13964TIP3   OH263306   5.977   1.928   4.915 -0.2278 -0.0963 -0.1476
13964TIP3    H163307   5.953   1.857   4.855  1.5313 -0.1364 -0.8649
13964TIP3    H263308   6.071   1.941   4.900  0.9280 -1.7499  4.2945
13965TIP3   OH263309   0.767   4.300  12.114 -0.8579  0.1394 -0.0845
13965TIP3    H163310   0.778   4.215  12.070  1.1029 -0.4364  1.3733
13965TIP3    H263311   0.691   4.339  12.071 -0.9964 -1.7568 -1.7382
13966TIP3   OH263312   3.192   5.009   5.650 -0.2163  0.1988  0.6611
13966TIP3    H163313   3.265   5.068   5.672  0.3059 -1.0695  2.6412
13966TIP3    H263314   3.144   5.000   5.732 -1.0879 -1.0316  0.0358
13967TIP3   OH263315   4.469   5.926   3.748 -0.2504 -0.3143 -0.7598
13967TIP3    H163316   4.563   5.912   3.764  0.0548  1.2942 -1.0044
13967TIP3    H263317   4.427   5.902   3.830  0.1699 -2.6489 -1.1523
13968TIP3   OH263318   0.591   6.506   3.728 -0.1146  0.5941 -0.2293
13968TIP3    H163319   0.630   6.463   3.652  1.0120 -0.1727  0.7352
13968TIP3    H263320   0.648   6.581   3.745  1.9850 -1.3219  2.0481
13969TIP3   OH263321   0.250   1.138  16.696 -0.5826 -0.4455  0.4730
13969TIP3    H163322   0.292   1.213  16.737 -0.9240 -0.0034  0.0341
13969TIP3    H263323   0.163   1.169  16.673 -0.1947 -0.4536 -1.1576
13970TIP3   OH263324   2.168   5.886  15.818  0.2229 -0.4890 -0.1477
13970TIP3    H163325   2.237   5.919  15.761  0.3031 -0.5669 -0.0957
13970TIP3    H263326   2.143   5.801  15.780  1.1999 -1.1725  0.6923
13971TIP3   OH263327   0.872   1.210  12.862  0.0987 -0.1570  0.0919
13971TIP3    H163328   0.967   1.215  12.859  0.0604  1.6009  0.5083
13971TIP3    H263329   0.850   1.206  12.955 -0.2336 -0.9617 -0.0131
13972TIP3   OH263330   1.434   5.622  11.215  0.1071 -0.7478 -0.3246
13972TIP3    H163331   1.484   5.683  11.269 -0.3755 -0.4562 -0.1955
13972TIP3    H263332   1.394   5.678  11.148 -0.0743 -0.9727 -0.4024
13973TIP3   OH263333   1.698   2.788   1.255  0.2981  0.2117  0.2223
13973TIP3    H163334   1.648   2.850   1.202 -0.7312  0.0895  1.0266
13973TIP3    H263335   1.767   2.840   1.296  0.4203  0.5102 -0.3589
13974TIP3   OH263336   0.469   3.377   4.203 -0.4088  0.2710  0.3360
13974TIP3    H163337   0.441   3.341   4.119 -2.4965 -0.5847  1.3656
13974TIP3    H263338   0.464   3.472   4.190 -1.6945  0.1425 -0.1899
13975TIP3   OH263339   5.047   0.448   0.148 -0.0759 -0.0462 -0.1506
13975TIP3    H163340   5.133   0.419   0.178  1.2141  3.4799  0.1052
13975TIP3    H263341   5.038   0.411   0.060  2.6361  0.9759 -0.9632
13976TIP3   OH263342   6.073   0.994  13.672  0.7025 -0.0683  0.0598
13976TIP3    H163343   6.101   0.913  13.714  2.5528 -0.2026 -1.2828
13976TIP3    H263344   6.061   0.970  13.580  0.7483  1.0554 -0.2559
13977TIP3   OH263345   5.416   1.826   1.625  0.1363 -0.4440 -0.1895
13977TIP3    H163346   5.497   1.867   1.595 -0.0099  0.2595  0.3540
13977TIP3    H263347   5.410   1.745   1.575  0.2887  0.3266 -1.5056
13978TIP3   OH263348   1.759   0.875  15.454  0.2580  0.0341 -0.2643
13978TIP3    H163349   1.835   0.837  15.499  1.3730 -0.3351 -2.3123
13978TIP3    H263350   1.779   0.969  15.449  0.9387 -0.1471 -1.3574
13979TIP3   OH263351   6.468   6.551  13.052  0.3911  0.6615  0.0230
13979TIP3    H163352   6.444   6.620  13.114  1.3545  0.6723  0.3914
13979TIP3    H263353   6.558   6.570  13.028  0.9132 -0.8600  0.6590
13980TIP3   OH263354   1.513   1.502   6.476  0.3392 -0.0766  0.0953
13980TIP3    H163355   1.443   1.446   6.444  0.0105  0.6028 -0.3948
13980TIP3    H263356   1.553   1.453   6.548 -1.1380 -0.1398  0.9083
13981TIP3   OH263357   4.556   6.463   3.165 -0.3161 -0.3084  0.2578
13981TIP3    H163358   4.495   6.395   3.193 -1.5553  1.0164  0.9663
13981TIP3    H263359   4.519   6.544   3.202 -0.0215  1.0472 -2.2125
13982TIP3   OH263360   4.582   2.230   0.585 -0.3670  0.1501 -0.1308
13982TIP3    H163361   4.545   2.158   0.534  0.2111  0.8275 -1.5660
13982TIP3    H263362   4.663   2.253   0.539 -0.1144  1.1807  0.7795
13983TIP3   OH263363   4.436   3.792   2.675  0.2056  0.1311 -0.5310
13983TIP3    H163364   4.388   3.826   2.750  0.8636 -1.8897  0.8792
13983TIP3    H263365   4.371   3.742   2.625  0.5839 -1.9809  0.9786
13984TIP3   OH263366   4.056   1.832  11.984 -0.0093  0.0527 -0.2270
13984TIP3    H163367   4.061   1.737  11.970  0.3384  0.0462 -0.0665
13984TIP3    H263368   4.040   1.868  11.897 -0.1080 -0.1502 -0.2939
13985TIP3   OH263369   2.326   5.354   6.580  0.4372  0.0552  0.0326
13985TIP3    H163370   2.391   5.337   6.512  1.6473 -0.0628  1.1737
13985TIP3    H263371   2.242   5.352   6.534  1.0714 -1.6679 -1.1716
13986TIP3   OH263372   2.585   1.889   4.273 -0.1581 -0.2502  0.7387
13986TIP3    H163373   2.663   1.944   4.285 -0.8485  0.9011  0.1491
13986TIP3    H263374   2.515   1.937   4.317 -0.3480 -1.8074  2.2046
13987TIP3   OH263375   4.842   0.405   2.347  0.6847  0.4219 -0.1875
13987TIP3    H163376   4.910   0.454   2.394  0.5680  0.9983 -0.6067
13987TIP3    H263377   4.816   0.463   2.276  0.4813 -0.2249 -0.6501
13988TIP3   OH263378   6.074   6.271  15.492 -0.1431  0.6911  0.5268
13988TIP3    H163379   6.154   6.228  15.524  0.8623  2.1420  0.0551
13988TIP3    H263380   6.104   6.355  15.458 -1.9198  1.3657  0.5347
13989TIP3   OH263381   3.975   4.186   2.946  0.5661 -0.2688 -0.0779
13989TIP3    H163382   3.950   4.135   2.869 -0.5606 -0.8889  0.6691
13989TIP3    H263383   3.995   4.120   3.013 -2.0515  0.1702  1.2693
13990TIP3   OH263384   0.199   1.064  13.717  0.5449  0.2912 -0.1346
13990TIP3    H163385   0.245   1.018  13.788 -0.8910 -0.4629  0.3403
13990TIP3    H263386   0.212   1.009  13.640  2.3384  1.2478 -0.5799
13991TIP3   OH263387   0.046   6.310   3.982 -0.2672 -0.2352 -0.1276
13991TIP3    H163388   0.134   6.281   4.004 -0.4030 -0.8694 -0.4170
13991TIP3    H263389   0.002   6.318   4.066  0.3988  1.2277  0.1255
13992TIP3   OH263390   6.698   6.700   1.375 -0.0706 -0.1071  0.2745
13992TIP3    H163391   6.697   6.700   1.471 -3.2096 -1.8787  0.3548
13992TIP3    H263392   6.642   6.774   1.351 -1.8125 -1.4950 -0.0705
13993TIP3   OH263393   1.802   0.907   5.391  0.2132 -0.0851  0.0619
13993TIP3    H163394   1.716   0.945   5.373 -0.0137 -0.0739  1.0687
13993TIP3    H263395   1.783   0.821   5.429  0.6267  0.0785  0.6577
13994TIP3   OH263396   5.254   1.412  17.178  0.1316 -0.1985 -0.0194
13994TIP3    H163397   5.159   1.423  17.174  0.2866  1.3105 -0.0912
13994TIP3    H263398   5.287   1.499  17.200  1.2931 -1.3265  3.4139
13995TIP3   OH263399   3.910   2.434   4.895 -0.1113  0.0503  0.7738
13995TIP3    H163400   3.827   2.467   4.929 -0.7024  0.2350 -0.7699
13995TIP3    H263401   3.976   2.470   4.954 -1.0327  0.9519  1.2858
13996TIP3   OH263402   2.699   5.542  14.779 -0.4099 -0.1033 -0.3543
13996TIP3    H163403   2.786   5.501  14.777  0.5002  1.7276 -0.3924
13996TIP3    H263404   2.639   5.471  14.756  0.9674 -1.6363  0.5081
13997TIP3   OH263405   4.541   2.689   1.988 -0.0038  0.1098 -0.3653
13997TIP3    H163406   4.592   2.769   1.986 -0.9618  0.7272 -1.3652
13997TIP3    H263407   4.482   2.696   1.913 -1.5644 -0.5664  0.7313
13998TIP3   OH263408   2.269   0.005   4.148  0.4739 -0.6766  0.3533
13998TIP3    H163409   2.337   0.045   4.202  1.8553 -1.1657 -0.9453
13998TIP3    H263410   2.271  -0.088   4.172  0.1796 -0.6722  0.3969
13999TIP3   OH263411   4.092   0.163  11.909 -0.3797 -0.0574 -0.5245
13999TIP3    H163412   4.157   0.185  11.842  0.0998 -0.9735 -0.3801
13999TIP3    H263413   4.067   0.247  11.947 -0.1748  0.4114 -1.4051
14000TIP3   OH263414   1.842   1.605   2.263 -0.5443 -0.2559 -0.6024
14000TIP3    H163415   1.886   1.660   2.199 -1.7271 -0.6573 -1.7993
14000TIP3    H263416   1.816   1.665   2.332  0.6185  0.2059 -0.5439
14001TIP3   OH263417   1.553   5.626  12.455  0.7310  0.4132  0.0400
14001TIP3    H163418   1.507   5.543  12.445 -0.1082  0.7321  1.1169
14001TIP3    H263419   1.643   5.606  12.430 -0.1427  0.0490 -3.2481
14002TIP3   OH263420   6.539   0.153  12.597 -0.4248 -0.1754  0.7948
14002TIP3    H163421   6.559   0.219  12.664 -0.4458 -0.1126  0.7393
14002TIP3    H263422   6.523   0.204  12.517  1.1765 -0.3270  0.3499
14003TIP3   OH263423   2.260   2.191   4.656 -0.2999 -0.2806  0.2486
14003TIP3    H163424   2.305   2.137   4.721  1.2770 -0.6308 -1.0791
14003TIP3    H263425   2.317   2.268   4.646 -1.1639  0.3617  0.1824
14004TIP3   OH263426   0.102   4.602  13.090  0.5988 -0.1010  0.1318
14004TIP3    H163427   0.181   4.615  13.142 -1.6742  0.5611  3.7465
14004TIP3    H263428   0.084   4.509  13.096 -0.8440  0.2681  2.6218
14005TIP3   OH263429   2.000   0.102   6.141 -0.4617  0.2389  0.2775
14005TIP3    H163430   2.050   0.041   6.195 -1.1241  0.1552  0.8113
14005TIP3    H263431   2.060   0.174   6.124 -0.1903  0.1890  0.9941
14006TIP3   OH263432   0.709   6.109   3.643 -0.0179 -0.1557 -0.3513
14006TIP3    H163433   0.653   6.152   3.579 -1.1237  1.1221  1.3782
14006TIP3    H263434   0.796   6.147   3.628 -0.5627  1.2208 -0.1834
14007TIP3   OH263435   4.810   1.760  16.759  0.2302 -0.2424  0.0590
14007TIP3    H163436   4.868   1.685  16.750  0.3506 -0.3373  1.4886
14007TIP3    H263437   4.867   1.836  16.745  0.2728 -0.3822 -0.5637
14008TIP3   OH263438   6.019   2.160   0.317  0.0508  0.3284  0.1726
14008TIP3    H163439   6.074   2.235   0.298  0.7134 -0.2553 -0.2479
14008TIP3    H263440   6.068   2.110   0.383  0.1258 -0.2843 -0.3333
14009TIP3   OH263441   5.034   1.208   1.054  0.6643 -0.7181  0.2404
14009TIP3    H163442   5.037   1.147   0.980  1.6783 -1.1637  0.6300
14009TIP3    H263443   5.063   1.291   1.017  0.8769 -0.8651  0.0747
14010TIP3   OH263444   4.329   1.699  13.443 -0.8514 -0.9688  0.4384
14010TIP3    H163445   4.404   1.704  13.502 -0.8825  1.5532  0.4017
14010TIP3    H263446   4.260   1.747  13.489 -0.9904  0.7484 -1.4337
14011TIP3   OH263447   0.021   1.184   0.930  0.5400  0.0205 -0.1001
14011TIP3    H163448  -0.056   1.129   0.946  1.9496 -2.7236 -1.8232
14011TIP3    H263449  -0.001   1.233   0.851 -0.1893  0.8968  0.6242
14012TIP3   OH263450   5.029   2.875  15.824  0.4429  0.6024 -0.0792
14012TIP3    H163451   4.983   2.956  15.803 -0.2880  0.5687  1.3060
14012TIP3    H263452   4.987   2.842  15.903  1.3274 -0.6611 -0.0915
14013TIP3   OH263453   4.961   4.748  12.508  0.7820  0.1360  0.0754
14013TIP3    H163454   4.874   4.790  12.512  0.6757 -0.0689 -0.0893
14013TIP3    H263455   4.996   4.776  12.423  0.0667 -1.3657 -0.7532
14014TIP3   OH263456   1.654   1.827   1.568  0.0189 -0.0666 -0.0341
14014TIP3    H163457   1.584   1.779   1.613  0.0194  0.2283  0.2902
14014TIP3    H263458   1.651   1.914   1.608  0.3539  0.0449 -0.2563
14015TIP3   OH263459   3.135   2.041  14.333  0.0521  0.1596  0.1273
14015TIP3    H163460   3.062   1.988  14.302 -0.1229 -0.8556  2.1645
14015TIP3    H263461   3.103   2.083  14.412  1.2768  0.6997  0.3595
14016TIP3   OH263462   2.754   5.815  10.411  0.4705 -0.0805  0.1012
14016TIP3    H163463   2.834   5.867  10.418  0.5131 -0.2279  0.6971
14016TIP3    H263464   2.683   5.879  10.412  0.5624  0.0310 -0.1741
14017TIP3   OH263465   2.937   3.859  11.126 -0.3731  0.1130  0.0991
14017TIP3    H163466   2.895   3.836  11.042 -3.8710 -2.5527  2.2642
14017TIP3    H263467   3.001   3.790  11.140  0.1917  0.5426 -0.3609
14018TIP3   OH263468   3.156   4.292   1.557  0.6837 -0.2047 -0.6680
14018TIP3    H163469   3.243   4.263   1.582 -0.6104 -3.0337  1.1208
14018TIP3    H263470   3.103   4.281   1.636 -1.4261  0.9648 -1.8090
14019TIP3   OH263471   5.877   2.375   5.951 -0.8699 -0.3667  0.8022
14019TIP3    H163472   5.805   2.350   5.894  0.9290  0.2230 -1.9067
14019TIP3    H263473   5.866   2.469   5.965  0.4699  0.1933 -1.4552
14020TIP3   OH263474   3.933   5.990  15.944  0.3835 -0.6178 -0.1462
14020TIP3    H163475   4.004   6.015  16.003  1.7315 -1.1760 -1.4660
14020TIP3    H263476   3.875   5.936  15.998  1.0311 -0.2758  0.9232
14021TIP3   OH263477   2.845   4.337  13.237 -0.5250 -0.0585  0.0990
14021TIP3    H163478   2.753   4.360  13.247 -0.4765 -0.0012  0.4057
14021TIP3    H263479   2.890   4.421  13.230 -0.2340 -0.0035  2.1505
14022TIP3   OH263480   1.209   4.822  12.484  0.1794  0.3613 -0.2718
14022TIP3    H163481   1.173   4.735  12.469  1.3040  0.0427 -1.1694
14022TIP3    H263482   1.158   4.856  12.558 -1.0948 -0.5631 -0.6949
14023TIP3   OH263483   4.784   3.964  17.099  0.0810  0.1050  0.2483
14023TIP3    H163484   4.771   3.970  17.005  2.7846  0.4447 -0.1889
14023TIP3    H263485   4.764   4.052  17.132  2.4518  1.0231 -0.5734
14024TIP3   OH263486   1.322   4.609   2.142 -0.3525  0.2110 -0.5340
14024TIP3    H163487   1.378   4.623   2.066 -1.0299  0.3722 -1.0138
14024TIP3    H263488   1.351   4.673   2.206  1.3542 -1.0267  0.0063
14025TIP3   OH263489   0.505   0.055  13.739  0.3188 -0.6395 -0.1249
14025TIP3    H163490   0.491  -0.038  13.753 -0.9629 -0.3610  0.6296
14025TIP3    H263491   0.468   0.097  13.817  0.8994  0.5034 -0.4382
14026TIP3   OH263492   0.802   2.939   5.366 -0.1990  0.2138 -0.1969
14026TIP3    H163493   0.876   2.949   5.306 -0.1700  0.4160 -0.1265
14026TIP3    H263494   0.748   2.870   5.326 -0.0288  0.1409 -0.3023
14027TIP3   OH263495   5.411   1.356  10.344 -0.6284 -0.8655 -0.0164
14027TIP3    H163496   5.440   1.347  10.254 -0.6487 -1.1144  0.0021
14027TIP3    H263497   5.348   1.285  10.357 -1.5106 -0.1290 -0.1599
14028TIP3   OH263498   1.044   1.569  13.074 -0.3416  0.2585  0.2502
14028TIP3    H163499   1.064   1.525  13.157  0.0522  0.9981  0.5610
14028TIP3    H263500   1.130   1.591  13.038 -0.4661 -1.0932 -0.9511
14029TIP3   OH263501   4.943   3.040   2.822 -0.0028  0.0832  0.4238
14029TIP3    H163502   4.996   3.102   2.872 -1.2482  0.8237  0.8603
14029TIP3    H263503   4.889   3.095   2.765  0.7119 -0.7082 -1.0878
14030TIP3   OH263504   2.373   1.958   0.244 -0.9558 -0.3410  0.3868
14030TIP3    H163505   2.298   1.965   0.184 -0.5485 -0.6167 -0.1595
14030TIP3    H263506   2.409   1.871   0.226  0.9864  0.7220 -1.1078
14031TIP3   OH263507   3.107   2.895   4.734 -0.3267  0.5397  0.5540
14031TIP3    H163508   3.179   2.928   4.679 -1.6139  0.9759 -0.9401
14031TIP3    H263509   3.136   2.809   4.763  1.3103  1.2015  1.0155
14032TIP3   OH263510   0.645   4.899   0.013  0.0679 -0.2372  0.0668
14032TIP3    H163511   0.676   4.808   0.017 -0.6457 -0.5514 -1.1751
14032TIP3    H263512   0.696   4.939  -0.057  0.2512  0.2828  0.4897
14033TIP3   OH263513   6.640   4.723  11.873  0.0845  0.2898  0.3978
14033TIP3    H163514   6.589   4.780  11.931 -0.0095 -0.2753  0.8762
14033TIP3    H263515   6.615   4.751  11.785 -1.7596 -0.5631  0.6052
14034TIP3   OH263516   4.488   5.723  15.194 -0.1301  0.0301 -0.2122
14034TIP3    H163517   4.527   5.766  15.118 -0.3116  0.3485 -0.1292
14034TIP3    H263518   4.552   5.658  15.221 -0.5912 -0.9522 -1.3879
14035TIP3   OH263519   6.013   3.454   1.404 -0.4881 -0.3083 -0.3129
14035TIP3    H163520   6.033   3.383   1.466 -3.0055 -0.9639 -0.1554
14035TIP3    H263521   6.026   3.414   1.318  1.6521  0.1924 -0.2821
14036TIP3   OH263522   4.247   0.114   2.361 -0.1851  0.0145 -0.5701
14036TIP3    H163523   4.185   0.066   2.417 -1.4670 -0.9417 -2.6930
14036TIP3    H263524   4.305   0.046   2.325  3.1950  1.0057  2.4161
14037TIP3   OH263525   4.862   1.043   5.306 -0.2031  0.1395  0.2247
14037TIP3    H163526   4.881   0.954   5.336 -1.7687  0.5587  2.7754
14037TIP3    H263527   4.778   1.036   5.261 -0.0049  0.2399 -0.1664
14038TIP3   OH263528   4.700   5.201   4.591 -0.2719  0.0293 -0.0638
14038TIP3    H163529   4.731   5.187   4.502 -0.9911  1.6595 -0.5922
14038TIP3    H263530   4.616   5.245   4.582 -0.2136  0.5258  1.4220
14039TIP3   OH263531   4.410   6.368  11.968 -0.2313  0.6854  0.0317
14039TIP3    H163532   4.386   6.441  12.024  1.0420  0.6339  0.6840
14039TIP3    H263533   4.379   6.290  12.014 -0.9155  0.7496 -0.3006
14040TIP3   OH263534   4.334   2.777  10.723 -0.3639 -0.1227  0.0026
14040TIP3    H163535   4.376   2.691  10.715 -0.0793 -0.1298  1.4294
14040TIP3    H263536   4.284   2.773  10.804 -2.2707  0.2773 -1.1026
14041TIP3   OH263537   5.860   1.977  12.211  0.5239  0.0099  0.3866
14041TIP3    H163538   5.866   1.882  12.204  1.0891 -0.0136  1.0828
14041TIP3    H263539   5.780   1.993  12.261  0.1541 -0.0684 -0.1622
14042TIP3   OH263540   2.440   6.118  11.841 -0.3357 -0.3522  0.4923
14042TIP3    H163541   2.409   6.032  11.811 -0.1648 -0.6440  1.1357
14042TIP3    H263542   2.527   6.101  11.875 -0.0146  0.2137 -0.0176
14043TIP3   OH263543   2.799   0.578   1.331  0.7850  0.1458 -0.2522
14043TIP3    H163544   2.830   0.578   1.240  1.9387  2.1273  0.0830
14043TIP3    H263545   2.821   0.666   1.364 -0.3594 -0.2372  1.6973
14044TIP3   OH263546   4.534   5.842  15.995 -0.1902  0.0632  0.3117
14044TIP3    H163547   4.578   5.840  16.080  0.9284  0.6610 -0.2295
14044TIP3    H263548   4.556   5.758  15.954  0.5314  0.3934  0.0101
14045TIP3   OH263549   2.004   6.645  14.725 -0.3332 -0.6399  0.2936
14045TIP3    H163550   2.089   6.640  14.681  0.0373  0.3949  0.8527
14045TIP3    H263551   1.940   6.628  14.656  0.3409 -2.3533  0.0434
14046TIP3   OH263552   0.719   1.187  15.451  0.7870  0.3336  0.0270
14046TIP3    H163553   0.737   1.278  15.476  1.4574  0.0542  0.6247
14046TIP3    H263554   0.637   1.165  15.494  1.7651 -0.0361  1.8198
14047TIP3   OH263555   4.439   3.744   5.324 -0.1702 -0.4848  0.1416
14047TIP3    H163556   4.517   3.799   5.337 -0.0660 -0.5999  0.0064
14047TIP3    H263557   4.370   3.806   5.300 -0.2234 -0.3344  0.6635
14048TIP3   OH263558   6.349   2.911  14.916 -0.3656  0.1487  0.1152
14048TIP3    H163559   6.406   2.979  14.953 -2.7031  1.3740  1.7085
14048TIP3    H263560   6.369   2.832  14.966  0.7368  0.2339 -0.1654
14049TIP3   OH263561   0.367   0.441  16.248 -0.0919  0.0772  0.5205
14049TIP3    H163562   0.272   0.430  16.250 -0.2211  0.8118 -0.7844
14049TIP3    H263563   0.392   0.410  16.161  0.7848  0.4755  0.6280
14050TIP3   OH263564   1.168   2.423  13.323 -0.2805  0.0040 -0.4864
14050TIP3    H163565   1.160   2.378  13.407 -0.4355  0.2369 -0.3761
14050TIP3    H263566   1.080   2.421  13.285  0.0906 -1.4815 -1.3698
14051TIP3   OH263567   2.715   1.827   0.348 -0.1298 -0.1117  0.4059
14051TIP3    H163568   2.808   1.815   0.327 -0.3032 -0.4446 -0.2280
14051TIP3    H263569   2.700   1.770   0.423 -0.4166 -2.2652 -1.1787
14052TIP3   OH263570   4.742   0.553  16.433 -0.0331 -0.0173  0.2330
14052TIP3    H163571   4.762   0.646  16.425 -3.2165  0.9200  1.6867
14052TIP3    H263572   4.661   0.542  16.383 -0.2133 -1.7964  0.8497
14053TIP3   OH263573   2.671   2.633   4.816  0.5347  0.2670  0.4077
14053TIP3    H163574   2.605   2.693   4.780  1.0934  0.4226 -0.3901
14053TIP3    H263575   2.731   2.617   4.743 -0.1427 -2.0520  0.3065
14054TIP3   OH263576   1.779   4.504   3.790 -0.1137  0.3250 -0.3070
14054TIP3    H163577   1.855   4.527   3.844 -1.4528  2.9644  0.6739
14054TIP3    H263578   1.788   4.558   3.711 -1.1103  0.9863  0.0044
14055TIP3   OH263579   5.241   5.983  16.482  0.3081 -0.1349 -0.0753
14055TIP3    H163580   5.225   5.968  16.575  2.8086 -0.4434  0.3589
14055TIP3    H263581   5.240   5.895  16.444 -0.3184 -0.0419 -0.2805
14056TIP3   OH263582   5.099   5.433  12.633  0.2212  0.0292  0.0901
14056TIP3    H163583   5.107   5.529  12.635  0.5500  0.1582 -3.1321
14056TIP3    H263584   5.071   5.413  12.544  2.8311 -3.0360 -0.2176
14057TIP3   OH263585   0.448   1.545   5.876  0.0297 -0.3416 -0.0030
14057TIP3    H163586   0.361   1.558   5.914 -0.3135 -1.3191 -0.4095
14057TIP3    H263587   0.436   1.561   5.782  0.5610  0.6878  0.0947
14058TIP3   OH263588   5.671   6.636  11.445 -0.0978  0.5065  0.1927
14058TIP3    H163589   5.604   6.703  11.447  1.1743  1.8747 -0.6496
14058TIP3    H263590   5.653   6.587  11.365  0.2616  1.2799 -0.3742
14059TIP3   OH263591   3.871   5.853   4.425  0.3631 -0.0696  0.3713
14059TIP3    H163592   3.853   5.759   4.426  0.3990 -0.0757  1.1296
14059TIP3    H263593   3.794   5.891   4.382  0.3858 -0.4450 -0.0163
14060TIP3   OH263594   5.769   5.273  14.706 -0.7113  0.3292 -0.7566
14060TIP3    H163595   5.797   5.326  14.781 -0.7831 -0.1071 -0.4141
14060TIP3    H263596   5.706   5.211  14.743 -1.8348  1.0276 -1.4355
14061TIP3   OH263597   3.820   1.681  16.206 -0.8962 -0.5805  0.1530
14061TIP3    H163598   3.909   1.697  16.240 -1.3508 -0.3835  1.3015
14061TIP3    H263599   3.821   1.590  16.178 -0.2610 -0.5144 -0.0634
14062TIP3   OH263600   2.139   2.329  12.543 -0.0151 -0.2540  0.9569
14062TIP3    H163601   2.126   2.257  12.482 -2.2455  0.4980  0.4535
14062TIP3    H263602   2.203   2.386  12.499 -0.0264 -0.7412  0.2856
14063TIP3   OH263603   0.049   4.617  12.537 -0.1635 -0.1577 -1.0570
14063TIP3    H163604   0.073   4.602  12.629  1.7148 -1.0218 -1.6277
14063TIP3    H263605  -0.041   4.587  12.530  0.1280 -1.4374  0.2200
14064TIP3   OH263606   4.281   6.143  12.130 -0.2085  0.0770  0.1591
14064TIP3    H163607   4.227   6.078  12.085 -0.0065  0.9629 -1.4450
14064TIP3    H263608   4.225   6.177  12.200 -0.7395 -0.9584  0.2528
14065TIP3   OH263609   1.589   5.306  12.956 -0.0877  0.3124 -0.5959
14065TIP3    H163610   1.623   5.218  12.974 -1.9648 -0.5213 -0.8369
14065TIP3    H263611   1.563   5.340  13.041 -0.4789  0.1289 -0.6399
14066TIP3   OH263612   4.570   5.148  14.317 -0.3389 -0.3418  0.0231
14066TIP3    H163613   4.650   5.191  14.348 -0.9466 -0.7627  2.3811
14066TIP3    H263614   4.520   5.219  14.276  0.3541  0.3692  0.3672
14067TIP3   OH263615   4.727   5.512  13.598  1.2301  0.4074  0.2898
14067TIP3    H163616   4.805   5.525  13.544  1.7833 -1.2812  0.6147
14067TIP3    H263617   4.749   5.438  13.654 -1.2375 -1.3537 -0.8788
14068TIP3   OH263618   3.115   3.476  11.069  0.6555 -0.3094  0.3540
14068TIP3    H163619   3.094   3.393  11.113  1.1062 -1.2346 -1.0822
14068TIP3    H263620   3.191   3.455  11.015  0.3007  0.8482 -0.6323
14069TIP3   OH263621   5.655   1.642   1.274  1.0004  0.1262 -0.6104
14069TIP3    H163622   5.640   1.572   1.211 -2.9057  0.8974 -0.7790
14069TIP3    H263623   5.608   1.717   1.239 -0.8462  0.7980  2.8217
14070TIP3   OH263624   4.076   1.551  17.161  0.4816 -0.7036 -0.0782
14070TIP3    H163625   4.069   1.602  17.241  0.1799  0.6165 -0.9180
14070TIP3    H263626   4.078   1.460  17.191 -0.8460 -0.3042  1.3479
14071TIP3   OH263627   0.753   2.486   6.524 -0.3597  0.0162 -0.5516
14071TIP3    H163628   0.672   2.536   6.521 -1.0420 -1.0358 -0.4842
14071TIP3    H263629   0.821   2.547   6.497 -1.4451  0.3646 -2.6649
14072TIP3   OH263630   3.488   6.072  12.964 -0.5724  0.0260 -0.8059
14072TIP3    H163631   3.399   6.104  12.947 -0.7531 -1.1956 -2.4945
14072TIP3    H263632   3.481   5.977  12.957  0.9505 -0.0759 -1.5282
14073TIP3   OH263633   5.961   5.150  15.527  0.4053 -0.5868  0.3562
14073TIP3    H163634   5.972   5.160  15.622 -2.3389  0.8756  0.6252
14073TIP3    H263635   5.899   5.078  15.517 -0.3931  0.1520 -0.2107
14074TIP3   OH263636   2.840   6.017  17.011 -0.6685  0.4140 -0.2582
14074TIP3    H163637   2.766   5.998  17.068 -0.1075 -0.9297  0.0587
14074TIP3    H263638   2.911   6.042  17.071 -0.2035 -0.5877 -0.3582
14075TIP3   OH263639   2.917   4.293   1.785 -0.2844  0.3712  0.3014
14075TIP3    H163640   2.826   4.315   1.767 -0.2528 -0.6758 -1.3550
14075TIP3    H263641   2.947   4.361   1.845 -2.4489  0.1397  1.7907
14076TIP3   OH263642   6.727   6.413  10.862  0.1122  0.1716 -0.1652
14076TIP3    H163643   6.812   6.447  10.834 -0.2363 -0.6297 -2.3852
14076TIP3    H263644   6.690   6.373  10.784 -1.1210 -1.9883  1.4173
14077TIP3   OH263645   4.716   2.396  15.472  0.1696 -0.1181 -0.0061
14077TIP3    H163646   4.707   2.408  15.378 -3.2339 -0.9009  0.0862
14077TIP3    H263647   4.740   2.483  15.506 -0.0210  0.5115 -1.4369
14078TIP3   OH263648   0.369   1.646  12.835  0.0749 -0.9298  0.2689
14078TIP3    H163649   0.444   1.635  12.893  0.6423  0.3568 -0.1730
14078TIP3    H263650   0.387   1.589  12.761  0.2230 -1.2352  0.5394
14079TIP3   OH263651   1.778   5.742   5.254  0.0731  0.7062 -0.1722
14079TIP3    H163652   1.712   5.763   5.189  0.5410 -0.1385 -0.9419
14079TIP3    H263653   1.736   5.760   5.338 -1.2893 -0.2079 -0.6279
14080TIP3   OH263654   0.135   3.459   5.609 -0.0064  0.3659  0.3346
14080TIP3    H163655   0.198   3.387   5.615 -0.7632 -0.4363 -0.9832
14080TIP3    H263656   0.054   3.422   5.643 -0.4321  0.5554 -0.4669
14081TIP3   OH263657   1.340   5.495  15.702 -0.1518 -0.3127 -0.1738
14081TIP3    H163658   1.292   5.413  15.693 -2.2992  0.6574  1.5503
14081TIP3    H263659   1.332   5.537  15.616  0.5497 -1.6067 -0.9214
14082TIP3   OH263660   2.767   6.693   4.082  0.1839 -0.4026  0.3220
14082TIP3    H163661   2.758   6.787   4.095  0.6262 -0.1883 -0.7711
14082TIP3    H263662   2.684   6.665   4.043  0.2306 -0.3740  0.2011
14083TIP3   OH263663   3.419   6.341   3.673 -0.1862  0.0734 -0.5190
14083TIP3    H163664   3.359   6.359   3.600 -1.7319 -1.6888  0.2473
14083TIP3    H263665   3.488   6.287   3.634 -0.2574  0.2983 -0.9683
14084TIP3   OH263666   1.620   5.497   3.428 -0.1043  0.0006  0.3313
14084TIP3    H163667   1.607   5.545   3.347 -0.0590  1.5534  1.2031
14084TIP3    H263668   1.535   5.502   3.473 -0.2300 -1.1359  0.2459
14085TIP3   OH263669   5.704   2.352  12.113  0.0183 -0.6647  0.1935
14085TIP3    H163670   5.775   2.414  12.100 -0.4232 -0.3849 -1.0000
14085TIP3    H263671   5.670   2.335  12.026 -1.1967 -1.0163  0.7074
14086TIP3   OH263672   1.251   4.351  16.705 -0.3703 -0.1129 -0.4949
14086TIP3    H163673   1.315   4.287  16.736  0.7675 -0.2755 -2.9240
14086TIP3    H263674   1.173   4.300  16.686  0.1841 -0.6507 -1.4188
14087TIP3   OH263675   3.683   1.156  17.162  0.2568 -0.1139 -0.1890
14087TIP3    H163676   3.719   1.086  17.107  1.4829  2.2416 -2.5709
14087TIP3    H263677   3.748   1.166  17.232  0.1946 -1.1426  0.0415
14088TIP3   OH263678   4.818   3.854   0.518 -0.0678 -0.0612 -0.0386
14088TIP3    H163679   4.751   3.921   0.507  0.0219 -0.0544 -0.5823
14088TIP3    H263680   4.807   3.797   0.442 -1.7309 -2.0674  1.5685
14089TIP3   OH263681   1.390   4.252   2.245 -0.1874  0.2741  0.5661
14089TIP3    H163682   1.441   4.330   2.267  0.8241 -0.1087 -0.3532
14089TIP3    H263683   1.328   4.283   2.179 -1.7555  0.9241  2.2598
14090TIP3   OH263684   1.360   0.755  16.859 -0.0624  0.7749 -0.8208
14090TIP3    H163685   1.294   0.814  16.824  0.6721  1.3378 -1.2881
14090TIP3    H263686   1.430   0.813  16.890 -0.3044  0.2596  0.7938
14091TIP3   OH263687   0.225   5.055  12.030 -1.0379  0.3032  0.0183
14091TIP3    H163688   0.275   5.011  11.961 -0.6114 -1.6439  1.5068
14091TIP3    H263689   0.254   5.146  12.026  0.4852 -0.1981 -1.0377
14092TIP3   OH263690   0.905   5.745   0.508 -0.2297  0.1877  0.2998
14092TIP3    H163691   0.924   5.798   0.586 -0.5165  2.9167 -1.3750
14092TIP3    H263692   0.822   5.701   0.529 -0.6647  1.4103  1.2958
14093TIP3   OH263693   3.643   6.015   4.652  0.3257  0.0327 -0.9159
14093TIP3    H163694   3.567   5.970   4.615 -0.3959  0.8107 -0.4229
14093TIP3    H263695   3.607   6.066   4.724  1.3591  0.2655 -0.5545
14094TIP3   OH263696   0.169   2.432  17.153  0.6412 -0.2641  0.6004
14094TIP3    H163697   0.106   2.418  17.224 -0.3132 -0.7495 -0.3236
14094TIP3    H263698   0.150   2.520  17.121  0.1907 -0.5342  0.1038
14095TIP3   OH263699   3.218   0.091   1.996 -0.1189 -0.0695  0.1526
14095TIP3    H163700   3.149   0.150   2.025  0.3199  0.7333 -0.4016
14095TIP3    H263701   3.175   0.006   1.987 -0.7689  0.1667  0.9094
14096TIP3   OH263702   6.748   5.666  15.223 -0.7367  0.0693  1.1081
14096TIP3    H163703   6.762   5.709  15.307 -1.7269  0.7641  0.9314
14096TIP3    H263704   6.725   5.576  15.245 -0.2334  0.0434  1.5420
14097TIP3   OH263705   0.067   6.130  12.314  0.5081  0.4053 -0.2374
14097TIP3    H163706   0.002   6.071  12.277 -0.3658  0.3980  1.1954
14097TIP3    H263707   0.058   6.119  12.409  1.1932  1.8968  0.0378
14098TIP3   OH263708   6.183   0.876  11.745 -0.7135 -0.4842 -0.0872
14098TIP3    H163709   6.101   0.914  11.777  0.6263  0.8678  1.9618
14098TIP3    H263710   6.239   0.870  11.822  0.8294 -2.2433 -1.2565
14099TIP3   OH263711   4.957   1.304   5.389 -0.6198 -0.5102  0.9941
14099TIP3    H163712   5.047   1.311   5.420 -0.6037 -1.2467  1.1351
14099TIP3    H263713   4.948   1.213   5.361 -0.9413 -0.1312 -0.2163
14100TIP3   OH263714   6.373   1.586   1.247 -0.3274  0.2801 -0.2179
14100TIP3    H163715   6.407   1.501   1.276 -1.6041 -0.4104 -0.6831
14100TIP3    H263716   6.284   1.567   1.218 -0.5694  1.7612 -0.4769
14101TIP3   OH263717   1.000   2.931  14.724  0.3808 -0.8755 -0.0058
14101TIP3    H163718   0.940   2.869  14.765 -1.4024 -0.0849 -1.3002
14101TIP3    H263719   0.999   2.908  14.631  0.5522  0.3876 -0.3404
14102TIP3   OH263720   0.331   2.922  11.602  0.7630  0.5088  0.0179
14102TIP3    H163721   0.357   2.834  11.630  0.6837  0.8102  1.0449
14102TIP3    H263722   0.387   2.940  11.526 -0.7290 -1.3152 -1.6518
14103TIP3   OH263723   5.055   0.013   4.781  0.1583 -0.3626 -0.4098
14103TIP3    H163724   5.006  -0.066   4.759  0.1822 -0.7202  0.7749
14103TIP3    H263725   5.141  -0.019   4.808 -0.6699 -0.2123  2.7321
14104TIP3   OH263726   6.406   5.373   4.602  0.2049  0.0367  0.1386
14104TIP3    H163727   6.466   5.321   4.549  0.6831 -1.2595  1.8767
14104TIP3    H263728   6.380   5.446   4.545  0.0670 -1.6854 -2.1202
14105TIP3   OH263729   0.977   4.529   6.388  0.4319 -0.4833 -0.1377
14105TIP3    H163730   0.998   4.437   6.406 -1.9233 -1.1409 -0.5199
14105TIP3    H263731   0.989   4.538   6.293  0.5798 -0.4137 -0.1128
14106TIP3   OH263732   6.335   1.438   0.482 -0.1852  0.0438  0.1203
14106TIP3    H163733   6.287   1.520   0.473 -0.7591  0.0799  2.6756
14106TIP3    H263734   6.423   1.464   0.508  0.3000 -0.1223 -1.2850
14107TIP3   OH263735   2.842   6.328  13.635  0.1340  0.4191  0.6158
14107TIP3    H163736   2.858   6.406  13.688  1.9360  0.5312 -0.0067
14107TIP3    H263737   2.809   6.362  13.551 -1.0302  0.3581  1.0382
14108TIP3   OH263738   4.872   6.493   2.461 -0.6155  0.5683 -0.7045
14108TIP3    H163739   4.950   6.522   2.414  1.6881 -1.9215  1.2613
14108TIP3    H263740   4.867   6.551   2.537 -0.2972  0.3458 -0.5120
14109TIP3   OH263741   6.361   0.119   4.241  0.4983  0.4256 -0.4903
14109TIP3    H163742   6.318   0.186   4.294  0.1899 -0.0986 -0.0655
14109TIP3    H263743   6.434   0.089   4.294  1.4540  1.3568 -1.2364
14110TIP3   OH263744   1.752   0.567   2.403 -0.2300 -0.0506  0.2832
14110TIP3    H163745   1.710   0.597   2.483  0.3404  0.4845  0.3930
14110TIP3    H263746   1.841   0.604   2.407 -0.3248  0.3283 -0.7898
14111TIP3   OH263747   4.472   5.010  13.046 -0.0692  0.0592 -0.0533
14111TIP3    H163748   4.471   5.103  13.025  0.0143  0.6007  2.1479
14111TIP3    H263749   4.554   4.997  13.093 -1.1801 -0.5841  1.7905
14112TIP3   OH263750   5.729   3.614   5.088  0.2012  0.3552  0.1889
14112TIP3    H163751   5.720   3.578   5.177 -2.8261 -0.6922 -0.4139
14112TIP3    H263752   5.751   3.538   5.034  0.0144  0.6095 -0.2416
14113TIP3   OH263753   1.228   5.932   2.830 -0.9631  0.2995 -0.0333
14113TIP3    H163754   1.144   5.887   2.840  0.2248 -1.5558  3.0188
14113TIP3    H263755   1.261   5.902   2.746 -1.5192 -2.3497  0.6097
14114TIP3   OH263756   6.548   6.697  14.727 -0.1354  0.1726  0.7198
14114TIP3    H163757   6.461   6.658  14.738 -1.0803  1.1043 -2.3937
14114TIP3    H263758   6.605   6.647  14.785 -2.0775 -2.9198  0.1678
14115TIP3   OH263759   5.818   2.366   2.060  0.2856 -0.2844  0.1650
14115TIP3    H163760   5.760   2.303   2.104 -0.5341 -0.2189 -0.7913
14115TIP3    H263761   5.904   2.349   2.098 -0.2859 -0.6295  1.3634
14116TIP3   OH263762   5.575   5.368   3.062  0.2647 -0.7520  0.0249
14116TIP3    H163763   5.534   5.348   2.978  1.4011  1.5021 -1.1362
14116TIP3    H263764   5.659   5.322   3.059  0.0078 -1.2398  0.2364
14117TIP3   OH263765   2.838   3.703   2.557 -0.7334 -0.6720 -0.5615
14117TIP3    H163766   2.907   3.637   2.562 -1.1006 -1.0465 -0.4762
14117TIP3    H263767   2.757   3.654   2.558 -1.0085 -0.2221 -0.5438
14118TIP3   OH263768   5.215   0.603   2.838 -0.0410 -0.4769 -0.0417
14118TIP3    H163769   5.142   0.662   2.817  0.5087  0.4073  0.4757
14118TIP3    H263770   5.174   0.530   2.884 -0.8630 -0.9927 -1.5076
14119TIP3   OH263771   6.255   4.043  16.040 -0.0011 -0.6118  0.0771
14119TIP3    H163772   6.328   3.982  16.033  0.7658  0.4108 -1.3966
14119TIP3    H263773   6.192   4.013  15.976  0.8221  0.6507 -1.4035
14120TIP3   OH263774   3.878   0.777   5.111 -0.2631 -0.7649 -0.3491
14120TIP3    H163775   3.895   0.761   5.203  1.9332  2.3136 -0.0301
14120TIP3    H263776   3.907   0.698   5.066  0.6157 -1.5187  1.4786
14121TIP3   OH263777   2.724   2.097  12.657 -0.3054 -0.3452  0.5594
14121TIP3    H163778   2.754   2.057  12.575 -0.8946  0.4564 -0.0717
14121TIP3    H263779   2.704   2.023  12.714  0.8660 -0.9153  0.2729
14122TIP3   OH263780   5.807   2.793   6.706  0.4279 -0.3481 -0.8183
14122TIP3    H163781   5.785   2.833   6.622 -3.0490  2.1005  0.9803
14122TIP3    H263782   5.728   2.744   6.731  0.1252  1.3589  2.1364
14123TIP3   OH263783   6.596   4.215   1.601  0.0502 -0.2030  0.1671
14123TIP3    H163784   6.661   4.240   1.667 -0.2076 -1.1448  0.7989
14123TIP3    H263785   6.521   4.270   1.620  0.9155  1.4725 -1.0744
14124TIP3   OH263786   0.578   6.503  12.618 -0.1661  0.1788 -0.3266
14124TIP3    H163787   0.526   6.540  12.689  2.1125  2.5563  0.2693
14124TIP3    H263788   0.611   6.420  12.654 -0.6734  0.3707  0.6177
14125TIP3   OH263789   0.519   3.382  13.026 -0.2853  0.3180  0.2679
14125TIP3    H163790   0.437   3.408  13.068 -0.9574 -1.9238  0.4459
14125TIP3    H263791   0.495   3.369  12.934  0.0184  0.2535  0.1982
14126TIP3   OH263792   6.160   4.471   5.748  0.4007 -0.0911  0.7133
14126TIP3    H163793   6.215   4.493   5.823  0.3748  1.3318  0.3342
14126TIP3    H263794   6.108   4.396   5.778  2.8750 -1.8540  0.9127
14127TIP3   OH263795   1.901   2.103  14.203 -0.2344 -0.0378  0.3591
14127TIP3    H163796   1.823   2.093  14.257  0.0502  0.0868  0.7993
14127TIP3    H263797   1.904   2.024  14.150 -0.7505  0.0324  0.2185
14128TIP3   OH263798   6.319   0.108   0.408  0.0723  0.4625 -0.1002
14128TIP3    H163799   6.254   0.039   0.398 -0.6833  1.1653 -0.0902
14128TIP3    H263800   6.268   0.188   0.419  0.9336  1.0708 -0.4214
14129TIP3   OH263801   3.906   2.864  13.912  0.0530  0.0927 -0.0571
14129TIP3    H163802   3.944   2.779  13.934  0.4818  0.7622  2.0996
14129TIP3    H263803   3.813   2.847  13.901 -0.1013 -0.4876  1.7878
14130TIP3   OH263804   5.778   6.725  14.725 -0.1774 -0.0046 -0.2103
14130TIP3    H163805   5.822   6.719  14.810 -0.8664 -0.7068  0.1084
14130TIP3    H263806   5.830   6.788  14.675  1.2419 -0.8896  0.1118
14131TIP3   OH263807   6.464   2.389  12.591  0.8702  0.6191 -0.0914
14131TIP3    H163808   6.436   2.302  12.563  1.9201  0.3087 -0.2139
14131TIP3    H263809   6.447   2.390  12.686 -2.0432  1.4301 -0.5273
14132TIP3   OH263810   3.923   4.245  10.725  0.3884 -0.1412 -0.7612
14132TIP3    H163811   3.990   4.301  10.686  1.1475 -0.3748  0.1621
14132TIP3    H263812   3.908   4.282  10.812 -0.4651 -0.2766 -0.8471
14133TIP3   OH263813   2.499   3.315  14.432  0.1211 -0.0729  0.3170
14133TIP3    H163814   2.438   3.376  14.472 -1.6621 -1.0166 -0.8468
14133TIP3    H263815   2.463   3.228  14.453  0.8657 -0.6484 -0.7059
14134TIP3   OH263816   6.069   4.305  12.895  0.1138  0.2645 -0.4331
14134TIP3    H163817   6.140   4.367  12.883 -0.1713  1.1410  1.8593
14134TIP3    H263818   6.010   4.348  12.957 -0.6123 -1.8685  0.4520
14135TIP3   OH263819   4.096   2.139   5.803 -0.0128 -0.0741 -0.4647
14135TIP3    H163820   4.065   2.072   5.864 -1.5583  0.3414 -0.7571
14135TIP3    H263821   4.018   2.167   5.756  0.5778  1.9454 -0.3454
14136TIP3   OH263822   4.000   5.183  12.544 -1.0626  0.2231 -0.2151
14136TIP3    H163823   4.084   5.137  12.544 -0.3937  1.2319  2.7318
14136TIP3    H263824   4.000   5.231  12.461  0.7792 -0.5949 -0.7598
14137TIP3   OH263825   2.934   4.173   6.507  0.1825 -0.1654  0.5810
14137TIP3    H163826   2.843   4.166   6.535 -0.5677  0.5610 -1.4651
14137TIP3    H263827   2.954   4.266   6.515  0.1011 -0.0188 -0.7680
14138TIP3   OH263828   0.774   4.177   4.317 -0.1249  0.6949 -0.0349
14138TIP3    H163829   0.806   4.110   4.377 -2.9386  0.1066  0.9416
14138TIP3    H263830   0.806   4.150   4.231  0.9104 -0.4621  0.6913
14139TIP3   OH263831   6.150   0.453  16.314  0.0307 -0.2266  0.3470
14139TIP3    H163832   6.157   0.451  16.409 -0.2503  0.7934  0.3984
14139TIP3    H263833   6.158   0.545  16.291  0.9535 -0.5415 -0.6963
14140TIP3   OH263834   5.125   4.206  11.665 -0.0954 -0.1539 -0.0637
14140TIP3    H163835   5.073   4.127  11.651 -1.4893  0.3270  1.9575
14140TIP3    H263836   5.212   4.183  11.634 -0.2307 -2.8271  1.2615
14141TIP3   OH263837   4.384   0.226   6.657  0.0030 -0.0300  0.1858
14141TIP3    H163838   4.450   0.291   6.681 -0.5911  0.8106 -0.3802
14141TIP3    H263839   4.381   0.165   6.730  1.6512 -0.2895  0.0769
14142TIP3   OH263840   6.037   2.599   4.027  0.0174  0.2638  0.4724
14142TIP3    H163841   6.096   2.525   4.017 -1.6860 -0.8558 -2.2044
14142TIP3    H263842   5.950   2.560   4.031 -1.1137  2.0668 -2.9271
14143TIP3   OH263843   3.948   3.267  16.832  0.2759 -0.4274  0.3073
14143TIP3    H163844   3.877   3.296  16.888  0.2843  1.4071 -0.5588
14143TIP3    H263845   4.019   3.244  16.892  0.6009  2.3010  1.1039
14144TIP3   OH263846   4.094   3.523  16.707  0.1652  0.2743 -0.2369
14144TIP3    H163847   4.092   3.500  16.615  0.6313 -0.1767 -0.1421
14144TIP3    H263848   4.032   3.463  16.748  1.3432 -0.8299  0.0040
14145TIP3   OH263849   0.932   2.634   1.377  0.0722 -0.4702 -0.0641
14145TIP3    H163850   0.875   2.564   1.410 -1.0404  1.1686  1.6765
14145TIP3    H263851   0.907   2.643   1.285 -1.9938 -0.3075  0.4671
14146TIP3   OH263852   6.741   2.373  12.149 -0.0972  0.1384 -0.3196
14146TIP3    H163853   6.782   2.295  12.187  0.9466  0.9969  0.3984
14146TIP3    H263854   6.655   2.378  12.191  0.2312 -0.0805  0.4099
14147TIP3   OH263855   1.649   5.439   2.009  1.1190  0.2004  0.0385
14147TIP3    H163856   1.715   5.486   2.059  2.4436  0.2193 -1.6617
14147TIP3    H263857   1.599   5.508   1.965  0.7189  0.1354  0.3830
14148TIP3   OH263858   0.251   4.307  16.701 -0.0652  0.0880  0.6371
14148TIP3    H163859   0.207   4.222  16.701  0.5391 -0.2340  1.5550
14148TIP3    H263860   0.344   4.286  16.706  0.0409  0.8185  2.1053
14149TIP3   OH263861   1.639   4.828   4.810  0.2672  0.3936  0.0353
14149TIP3    H163862   1.581   4.868   4.745 -0.3032 -1.5385 -0.7517
14149TIP3    H263863   1.695   4.769   4.759  0.6171 -0.2882  1.1591
14150TIP3   OH263864   0.201   4.920  15.557  0.2193  0.4399 -0.2023
14150TIP3    H163865   0.190   4.958  15.470  0.9712 -1.0365 -0.9811
14150TIP3    H263866   0.158   4.982  15.616 -0.5617  1.3216 -1.6465
14151TIP3   OH263867   1.864   1.120  13.420 -0.0196  0.3627  0.5523
14151TIP3    H163868   1.817   1.154  13.497 -0.2073 -1.1619  1.1490
14151TIP3    H263869   1.832   1.030  13.410  0.4274  0.3482 -0.9801
14152TIP3   OH263870   6.642   4.379   0.652 -0.1013  0.1837 -0.4720
14152TIP3    H163871   6.615   4.290   0.678 -0.6637  0.5013  0.0684
14152TIP3    H263872   6.728   4.390   0.691 -0.2762  0.0811 -0.0486
14153TIP3   OH263873   2.142   1.313  15.559  0.2589 -0.4831 -0.4120
14153TIP3    H163874   2.196   1.235  15.576 -1.4181 -1.1154  2.7881
14153TIP3    H263875   2.194   1.386  15.593 -0.9574 -1.1935  3.5989
14154TIP3   OH263876   0.573   3.047   0.038  0.5690 -0.6521  0.8394
14154TIP3    H163877   0.575   2.952   0.043  0.4562 -0.7492 -0.6627
14154TIP3    H263878   0.652   3.071  -0.009 -0.1362 -0.1163 -0.1162
14155TIP3   OH263879   5.235   5.247  13.551 -0.4451 -0.0992  0.3437
14155TIP3    H163880   5.147   5.253  13.515  1.7059 -0.3971 -6.2822
14155TIP3    H263881   5.243   5.156  13.579 -1.5541 -0.8645 -1.6043
14156TIP3   OH263882   3.639   0.239   0.738  0.1370  0.0487  0.2509
14156TIP3    H163883   3.693   0.167   0.773  0.3306  0.2602  0.3886
14156TIP3    H263884   3.691   0.275   0.666 -0.1827 -0.2708 -0.1407
14157TIP3   OH263885   4.817   3.605   4.085  0.0725  0.2382 -0.1825
14157TIP3    H163886   4.823   3.513   4.112  0.5534  0.6099  1.0575
14157TIP3    H263887   4.789   3.651   4.163  0.8255  1.2836 -0.5061
14158TIP3   OH263888   0.664   5.762  16.373  0.0552 -0.1894  0.5232
14158TIP3    H163889   0.623   5.765  16.287  1.5408  1.3846 -0.1547
14158TIP3    H263890   0.628   5.682  16.413 -0.8094 -0.8377 -1.4432
14159TIP3   OH263891   6.553   4.453  13.794  0.4256  0.3741  0.3233
14159TIP3    H163892   6.481   4.442  13.732  0.7337 -0.2385  0.0689
14159TIP3    H263893   6.621   4.498  13.743  0.9902 -0.8393 -0.0473
14160TIP3   OH263894   1.642   4.974   5.034  0.8566 -0.0659 -0.2021
14160TIP3    H163895   1.653   4.912   4.961  1.0856 -0.5851  0.2724
14160TIP3    H263896   1.700   5.047   5.012 -0.9266  0.9793 -1.8156
14161TIP3   OH263897   2.848   1.562  13.003  0.5684  0.1343 -0.1315
14161TIP3    H163898   2.834   1.628  12.935  0.0212 -0.4381 -0.5856
14161TIP3    H263899   2.878   1.612  13.079  3.8357  0.5706 -1.5361
14162TIP3   OH263900   4.048   6.067   0.030  0.6009 -0.2178 -0.1715
14162TIP3    H163901   3.953   6.078   0.017  0.3550 -2.5052 -0.8467
14162TIP3    H263902   4.065   6.104   0.116 -1.0303 -0.2009  0.1779
14163TIP3   OH263903   2.315   5.435  13.106 -0.2736 -0.0560 -0.1238
14163TIP3    H163904   2.393   5.470  13.063  0.4131  0.1067  1.2055
14163TIP3    H263905   2.324   5.462  13.197 -1.7775 -0.2387  0.0932
14164TIP3   OH263906   0.135   5.765   6.828 -0.4987  0.0887  0.7180
14164TIP3    H163907   0.083   5.738   6.904 -0.5343 -0.7076  0.4213
14164TIP3    H263908   0.113   5.701   6.760  0.1315  0.3236  0.2837
14165TIP3   OH263909   0.335   3.217  17.176 -0.1212  0.0299  0.3027
14165TIP3    H163910   0.426   3.247  17.185  0.0541 -0.2980 -0.2694
14165TIP3    H263911   0.343   3.123  17.159 -0.4681  0.2902 -1.4724
14166TIP3   OH263912   5.733   2.500  13.603 -0.1301  0.1496 -0.3221
14166TIP3    H163913   5.732   2.595  13.614  0.9561  0.2231 -0.7025
14166TIP3    H263914   5.661   2.469  13.658  0.6197  1.0471  1.2321
14167TIP3   OH263915   1.151   6.430   5.985 -0.4267  0.5426  0.1124
14167TIP3    H163916   1.103   6.477   6.053 -0.7847 -1.4144  1.2959
14167TIP3    H263917   1.167   6.495   5.917 -1.7304  2.0922  1.2240
14168TIP3   OH263918   1.878   1.500  12.652 -0.2220 -0.3534  0.5931
14168TIP3    H163919   1.804   1.557  12.630 -0.5399 -0.6669  0.8397
14168TIP3    H263920   1.840   1.430  12.705  0.2994 -0.3607  0.9680
14169TIP3   OH263921   3.243   4.578   5.557  0.5025 -0.2885  0.3803
14169TIP3    H163922   3.220   4.637   5.486  0.6841 -2.0806 -1.2462
14169TIP3    H263923   3.183   4.504   5.548  3.5373 -2.8391 -1.0474
14170TIP3   OH263924   5.430   0.265   4.895  0.2406 -0.0850  0.7136
14170TIP3    H163925   5.410   0.287   4.804  1.6755  0.7957  0.5675
14170TIP3    H263926   5.502   0.323   4.918  1.2476 -1.6653  1.7811
14171TIP3   OH263927   1.415   3.165   1.123  0.5234 -0.8371  0.0666
14171TIP3    H163928   1.441   3.083   1.081 -0.1284 -1.3079  0.5742
14171TIP3    H263929   1.322   3.172   1.106  0.1797 -1.1677  1.6297
14172TIP3   OH263930   5.798   0.889  15.626 -0.8286  0.0313  0.4513
14172TIP3    H163931   5.775   0.951  15.695  1.3228  0.9718  0.4202
14172TIP3    H263932   5.803   0.804  15.669 -0.7139  0.4161  1.2063
14173TIP3   OH263933   5.585   0.676   4.940  0.1530 -0.1632  0.3359
14173TIP3    H163934   5.661   0.727   4.913  1.6683 -1.2235  2.3221
14173TIP3    H263935   5.584   0.601   4.880  1.2820 -0.6382  0.8870
14174TIP3   OH263936   5.740   3.250  13.594  0.0532  0.2942  0.6377
14174TIP3    H163937   5.808   3.262  13.527  1.4081 -1.4306  1.6194
14174TIP3    H263938   5.659   3.276  13.550  0.5266 -2.6034 -2.4612
14175TIP3   OH263939   6.175   3.990  11.855  0.1157 -0.0571 -0.4326
14175TIP3    H163940   6.246   3.928  11.872 -0.5952 -0.2775  2.1818
14175TIP3    H263941   6.191   4.021  11.766  1.1480 -3.0905 -1.4183
14176TIP3   OH263942   4.117   0.798  17.283  0.0105  0.2530  0.3165
14176TIP3    H163943   4.195   0.850  17.263 -0.1472  0.5307  0.4097
14176TIP3    H263944   4.045   0.860  17.275 -0.4926 -0.5444 -2.3174
14177TIP3   OH263945   0.782   6.454   5.552  0.1008 -0.1337  0.6675
14177TIP3    H163946   0.795   6.419   5.640 -0.3238 -2.4495 -0.1174
14177TIP3    H263947   0.718   6.395   5.513 -1.4076  2.1472 -0.4964
14178TIP3   OH263948   0.665   4.920  14.693  0.0402  0.3238 -0.2931
14178TIP3    H163949   0.600   4.990  14.690  0.8643  1.0981 -0.5768
14178TIP3    H263950   0.738   4.958  14.742 -0.2098 -0.9736  1.1579
14179TIP3   OH263951   4.212   3.739  15.390 -0.4048  0.0611  0.2675
14179TIP3    H163952   4.120   3.736  15.419 -1.0675 -0.3041 -1.7637
14179TIP3    H263953   4.241   3.648  15.394  0.3570  0.3433  2.2471
14180TIP3   OH263954   1.476   1.793  10.987 -0.3933 -0.1982 -0.5141
14180TIP3    H163955   1.479   1.843  11.068 -0.8640 -0.0001 -0.6151
14180TIP3    H263956   1.534   1.841  10.927  0.9057 -1.0039  0.0520
14181TIP3   OH263957   5.013   0.646   5.069  0.0520  0.3633  0.1910
14181TIP3    H163958   4.999   0.729   5.116 -0.7346  1.0447 -1.1854
14181TIP3    H263959   5.055   0.672   4.988  1.5923 -0.8267  0.5758
14182TIP3   OH263960   5.374   5.498  13.684 -0.2584 -0.3490 -0.2274
14182TIP3    H163961   5.437   5.428  13.702 -1.4720 -1.8227 -1.4458
14182TIP3    H263962   5.418   5.553  13.620  0.4943 -0.2830  0.3249
14183TIP3   OH263963   5.487   0.296   2.064  0.1914  0.2543  0.1968
14183TIP3    H163964   5.535   0.219   2.096  0.5670 -0.3792 -1.7544
14183TIP3    H263965   5.556   0.359   2.042 -0.0736  0.7838  0.8347
14184TIP3   OH263966   2.128   3.249  10.931  0.2263 -0.1823 -0.1979
14184TIP3    H163967   2.063   3.303  10.886  1.2251  0.5614 -0.7947
14184TIP3    H263968   2.177   3.207  10.860  1.7407  0.9026  0.1640
14185TIP3   OH263969   0.101   2.425  11.537 -0.0556  0.4276 -0.3183
14185TIP3    H163970   0.023   2.374  11.561  1.4319 -1.6122  0.4667
14185TIP3    H263971   0.109   2.412  11.442  1.0244 -2.0584  0.0233
14186TIP3   OH263972   3.888   6.062  13.223 -0.0165  0.2793 -0.3123
14186TIP3    H163973   3.894   5.987  13.282 -0.8957  1.0594  0.8063
14186TIP3    H263974   3.970   6.060  13.173 -0.0061 -1.3745 -0.2724
14187TIP3   OH263975   0.603   1.424  13.117  0.3194  0.0100  0.2082
14187TIP3    H163976   0.636   1.508  13.086  0.2208  0.2860  0.8448
14187TIP3    H263977   0.524   1.408  13.065  0.7969 -0.0985 -0.5026
14188TIP3   OH263978   5.849   5.253   2.996  0.2817  0.6355 -0.1686
14188TIP3    H163979   5.910   5.180   3.008  2.2245  2.0211 -1.1216
14188TIP3    H263980   5.874   5.291   2.912 -1.3893  1.7794 -0.1896
14189TIP3   OH263981   0.209   6.599   5.777 -0.1480 -0.0443  0.5914
14189TIP3    H163982   0.287   6.654   5.781 -0.6960  0.7271  0.8591
14189TIP3    H263983   0.241   6.515   5.743  0.2039  1.4107 -3.1929
14190TIP3   OH263984   3.778   5.095   4.321 -0.7353 -0.4356 -0.1470
14190TIP3    H163985   3.709   5.134   4.373  0.0973 -2.4636  2.7123
14190TIP3    H263986   3.859   5.114   4.368  0.2207 -1.3620 -1.3148
14191TIP3   OH263987   4.234   1.173   0.261 -0.1916 -0.4073 -0.0199
14191TIP3    H163988   4.295   1.099   0.263 -0.0104 -0.2528  1.0222
14191TIP3    H263989   4.285   1.246   0.296 -1.3260 -0.5847  2.1809
14192TIP3   OH263990   0.610   2.621   2.443  0.2147 -0.2601  0.2907
14192TIP3    H163991   0.544   2.573   2.394  1.6391 -2.3853  0.2946
14192TIP3    H263992   0.649   2.681   2.379 -0.7539  0.0188 -0.0536
14193TIP3   OH263993   1.394   4.574  12.884 -0.2956  0.1961  0.4212
14193TIP3    H163994   1.348   4.569  12.800 -0.7389 -3.3611  0.7306
14193TIP3    H263995   1.485   4.556  12.863 -0.0670  1.1369  0.5418
14194TIP3   OH263996   2.249   6.327  11.257 -0.0229  0.3097 -0.0254
14194TIP3    H163997   2.218   6.280  11.334 -1.4765 -0.1203 -0.8336
14194TIP3    H263998   2.290   6.260  11.202  0.9970  0.6120  0.3271
14195TIP3   OH263999   6.306   4.441   2.592 -0.0475  0.3054 -0.3695
14195TIP3    H164000   6.369   4.477   2.529 -0.5213  0.9906 -0.4732
14195TIP3    H264001   6.326   4.485   2.674 -1.2305  1.5682 -0.7118
14196TIP3   OH264002   6.227   0.575   0.857 -0.1054 -0.3099  0.7588
14196TIP3    H164003   6.152   0.623   0.822 -0.1632  0.2641  1.6472
14196TIP3    H264004   6.285   0.642   0.892 -0.1712 -0.8621  1.9933
14197TIP3   OH264005   5.832   6.687  16.862  0.5243 -0.3324  0.4336
14197TIP3    H164006   5.811   6.663  16.772 -0.7834 -1.1120  0.9176
14197TIP3    H264007   5.918   6.649  16.877  0.7891 -0.1361 -0.4959
14198TIP3   OH264008   2.761   5.356   4.466 -0.5214 -0.0906 -0.6846
14198TIP3    H164009   2.791   5.285   4.523 -0.4336 -0.1821 -0.8440
14198TIP3    H264010   2.728   5.312   4.388  0.1942  0.0735 -1.0928
14199TIP3   OH264011   2.603   2.453   5.941 -0.2204  0.0448 -0.0084
14199TIP3    H164012   2.689   2.441   5.982 -0.0897  1.7937  0.3364
14199TIP3    H264013   2.622   2.461   5.847 -0.1397 -0.7043 -0.0564
14200TIP3   OH264014   2.401   6.269  12.079 -0.4167 -0.1054 -0.5693
14200TIP3    H164015   2.418   6.209  12.007 -0.6404  0.9595 -1.5295
14200TIP3    H264016   2.483   6.319  12.089  0.3356 -1.5411  1.2452
14201TIP3   OH264017   3.874   1.337   0.668 -0.1610 -0.0602 -0.1920
14201TIP3    H164018   3.867   1.246   0.639 -1.0081  0.4371 -1.6489
14201TIP3    H264019   3.795   1.352   0.720  0.0116 -0.1686  0.1043
14202TIP3   OH264020   1.226   6.075  14.750 -0.0332 -0.1527 -0.4390
14202TIP3    H164021   1.271   6.000  14.790 -0.5044 -0.1809  0.0416
14202TIP3    H264022   1.288   6.147  14.759 -0.4219  0.0401  1.0767
14203TIP3   OH264023   1.928   3.898  16.002 -0.4505 -0.0118 -0.1451
14203TIP3    H164024   1.928   3.809  16.038  0.5794 -0.3365 -0.9138
14203TIP3    H264025   1.972   3.890  15.918 -0.0293  1.2900 -0.0701
14204TIP3   OH264026   4.808   4.868  14.550  0.3694 -0.0997  0.5283
14204TIP3    H164027   4.863   4.824  14.485  1.2799 -0.7895  1.7128
14204TIP3    H264028   4.719   4.861  14.515  1.0102  1.4699 -1.6820
14205TIP3   OH264029   2.156   4.484  12.522 -0.1074 -0.3177  0.2970
14205TIP3    H164030   2.183   4.395  12.498  0.9518 -0.2662  1.2039
14205TIP3    H264031   2.094   4.472  12.593 -0.4494 -0.3503 -0.0061
14206TIP3   OH264032   2.287   0.002   3.489 -0.2358 -0.2740  0.2560
14206TIP3    H164033   2.313   0.062   3.558  1.0392 -1.0789  0.4950
14206TIP3    H264034   2.368  -0.020   3.444 -0.7129 -1.5918 -0.0054
14207TIP3   OH264035   5.990   0.570  16.856 -0.3341  0.0947 -0.1309
14207TIP3    H164036   5.896   0.563  16.870  0.0268 -2.1656  1.8456
14207TIP3    H264037   6.021   0.479  16.860  1.9296  0.7697 -0.8017
14208TIP3   OH264038   4.690   2.604  14.126 -0.6451 -0.6901  0.1406
14208TIP3    H164039   4.626   2.600  14.055  0.9712 -2.2239 -1.3224
14208TIP3    H264040   4.684   2.518  14.169  0.2775 -0.7897  0.0969
14209TIP3   OH264041   0.301   5.480  15.247 -0.2745 -0.0289  0.7747
14209TIP3    H164042   0.359   5.419  15.293  0.6523  0.6112  0.5013
14209TIP3    H264043   0.257   5.530  15.316  0.1047  0.0212  0.9826
14210TIP3   OH264044   5.376   6.561   3.971 -0.1198  0.7877 -0.4251
14210TIP3    H164045   5.427   6.643   3.966  3.2051 -1.1586 -3.1651
14210TIP3    H264046   5.428   6.503   4.026  0.3197 -1.0001 -2.5734
14211TIP3   OH264047   3.592   5.242   1.006  0.1749 -0.2049  0.9532
14211TIP3    H164048   3.626   5.167   1.054 -0.8519 -1.5131 -0.2540
14211TIP3    H264049   3.650   5.250   0.930  1.7165  1.7695  2.2434
14212TIP3   OH264050   0.688   2.937  14.115 -0.3198  0.5087  0.4049
14212TIP3    H164051   0.609   2.959  14.163  0.9583  1.6864  2.0904
14212TIP3    H264052   0.712   2.850  14.146  0.4167  1.2035  1.8879
14213TIP3   OH264053   2.899   6.625   0.720  0.2383  0.1409 -0.2886
14213TIP3    H164054   2.901   6.718   0.742 -0.3714  0.0685  0.0973
14213TIP3    H264055   2.981   6.591   0.755  0.8558  0.6874 -1.1754
14214TIP3   OH264056   2.132   5.736   2.255  0.2635 -0.4478  0.4301
14214TIP3    H164057   2.104   5.757   2.344 -1.2578  0.4688 -0.2263
14214TIP3    H264058   2.072   5.785   2.198  1.8734 -0.1569 -1.1047
14215TIP3   OH264059   1.017   4.174   1.265  0.1195 -0.3004  1.2021
14215TIP3    H164060   1.006   4.111   1.194 -1.7091 -1.6553  2.5875
14215TIP3    H264061   0.937   4.227   1.263  0.7336  0.6593  1.3322
14216TIP3   OH264062   5.724   0.673  11.289  0.3007  0.2265 -0.5435
14216TIP3    H164063   5.633   0.700  11.277  0.6921  1.7444 -0.3816
14216TIP3    H264064   5.758   0.663  11.200 -0.0382 -0.4180 -0.6033
14217TIP3   OH264065   2.925   4.400  16.253 -0.1938 -0.0447 -0.0939
14217TIP3    H164066   2.889   4.318  16.218 -0.2545  0.6662 -1.8079
14217TIP3    H264067   3.017   4.381  16.271 -0.1608 -0.4576 -0.6683
14218TIP3   OH264068   5.483   3.176   4.485  0.2142  0.1898 -0.2426
14218TIP3    H164069   5.422   3.189   4.412 -2.2979 -2.8963  1.0261
14218TIP3    H264070   5.451   3.234   4.554 -1.1500 -1.0964  0.2657
14219TIP3   OH264071   5.019   0.471   3.989  0.2482  0.0640  0.1160
14219TIP3    H164072   5.110   0.477   3.962  0.6917 -0.8694  1.2749
14219TIP3    H264073   5.023   0.443   4.081 -1.1927 -1.8433 -0.3296
14220TIP3   OH264074   5.795   3.199   0.498  0.2542 -0.0652 -0.1483
14220TIP3    H164075   5.881   3.220   0.464  0.8031  0.2510  1.3281
14220TIP3    H264076   5.790   3.103   0.495  0.7866 -0.1007  0.0324
14221TIP3   OH264077   5.168   4.403  10.810  0.3455  0.7565  0.2581
14221TIP3    H164078   5.190   4.331  10.870 -0.2907 -0.4103 -0.8604
14221TIP3    H264079   5.193   4.371  10.723  0.1186  1.9296 -0.2622
14222TIP3   OH264080   1.010   5.756  15.620  0.1944 -0.1455 -0.5380
14222TIP3    H164081   0.971   5.834  15.658 -0.1842 -1.5129  2.1507
14222TIP3    H264082   1.102   5.778  15.608  0.1395  0.6490  0.3905
14223TIP3   OH264083   2.130   3.935  16.414 -0.0622 -0.1789  0.5460
14223TIP3    H164084   2.123   3.842  16.433 -0.3502  0.0432  1.6230
14223TIP3    H264085   2.193   3.968  16.478 -0.4911  0.4851  0.6412
14224TIP3   OH264086   3.098   4.865  17.038  0.0054  0.2111  0.7872
14224TIP3    H164087   3.122   4.793  16.979  0.8665  0.8249  0.3732
14224TIP3    H264088   3.028   4.911  16.991 -1.0421 -0.7430  1.3627
14225TIP3   OH264089   3.024   6.082   3.548 -0.0380 -0.2998  0.1680
14225TIP3    H164090   3.051   6.101   3.458  1.1190  0.3797  0.6398
14225TIP3    H264091   2.945   6.135   3.561  0.3819  0.4058 -0.1192
14226TIP3   OH264092   1.387   3.023   3.468  0.0032 -0.0796 -0.0405
14226TIP3    H164093   1.410   2.988   3.382 -0.7177 -2.5365  0.6791
14226TIP3    H264094   1.468   3.014   3.519 -0.0646 -0.3715  0.0221
14227TIP3   OH264095   3.327   2.566   5.384  0.1706 -0.0745 -0.0228
14227TIP3    H164096   3.279   2.539   5.462 -0.8314  0.1374 -0.5481
14227TIP3    H264097   3.410   2.601   5.417 -0.4393  0.4524  0.9909
14228TIP3   OH264098   2.138   2.891   2.926  0.5283 -0.1071  0.1774
14228TIP3    H164099   2.224   2.910   2.964 -0.3427 -0.0192  2.2258
14228TIP3    H264100   2.119   2.967   2.871  2.8679 -1.3095 -2.5405
14229TIP3   OH264101   3.700   1.929   4.560  0.0648 -0.2178  0.0759
14229TIP3    H164102   3.647   1.985   4.503  2.8019  1.7679 -0.7195
14229TIP3    H264103   3.717   1.851   4.508 -1.3623 -0.5542  0.0631
14230TIP3   OH264104   2.081   0.820  17.277  0.5107  0.2463 -0.3478
14230TIP3    H164105   2.030   0.740  17.296  1.2211  0.3973  2.7779
14230TIP3    H264106   2.022   0.891  17.300  1.0684  0.5040  0.3066
14231TIP3   OH264107   2.312   4.318   5.741 -0.3074 -0.2990  0.3591
14231TIP3    H164108   2.285   4.408   5.754  0.0501 -0.2524  0.7795
14231TIP3    H264109   2.408   4.320   5.743 -0.1600 -0.2635 -2.3458
14232TIP3   OH264110   6.493   0.810  11.612 -0.4077 -0.2570  0.8922
14232TIP3    H164111   6.484   0.795  11.706  0.6813  0.1205  1.0777
14232TIP3    H264112   6.495   0.723  11.574  3.1628 -0.6506  1.6672
14233TIP3   OH264113   3.230   5.595  14.395 -0.4712  0.3759  0.4763
14233TIP3    H164114   3.224   5.612  14.489  0.0480  0.5688  0.4768
14233TIP3    H264115   3.260   5.504  14.389  0.4451  0.6680  0.5115
14234TIP3   OH264116   0.093   3.626   2.479 -0.3489  0.1095  0.0703
14234TIP3    H164117   0.181   3.603   2.450  0.2914  1.1405  1.1349
14234TIP3    H264118   0.046   3.542   2.481  0.7339 -0.5193 -0.0412
14235TIP3   OH264119   1.063   2.180   4.548  0.3803 -0.0193  0.2963
14235TIP3    H164120   1.023   2.107   4.596 -1.4322  1.0762  0.5083
14235TIP3    H264121   1.015   2.257   4.576  1.1956  1.0581 -1.1362
14236TIP3   OH264122   1.287   3.789  11.312  0.1020 -0.1840 -0.1705
14236TIP3    H164123   1.328   3.862  11.266  0.2832  0.2455  0.6533
14236TIP3    H264124   1.196   3.816  11.325 -0.5572 -1.2179 -2.1716
14237TIP3   OH264125   5.421   3.099  16.840 -0.4076  0.1728 -0.2805
14237TIP3    H164126   5.332   3.124  16.817 -0.4811  1.0353  0.8602
14237TIP3    H264127   5.464   3.181  16.865  0.1493 -0.4554  0.9543
14238TIP3   OH264128   0.950   4.859   2.856  0.1312 -0.1055  0.0141
14238TIP3    H164129   0.989   4.783   2.900  2.3803 -0.4759 -2.3654
14238TIP3    H264130   0.941   4.832   2.765  0.8658  2.4089 -0.8820
14239TIP3   OH264131   4.026   3.958   1.909 -0.1179 -0.2969 -0.3872
14239TIP3    H164132   3.949   3.943   1.964 -2.7611  0.4317 -3.5798
14239TIP3    H264133   4.076   3.876   1.914 -0.3064 -0.3314  2.7724
14240TIP3   OH264134   1.720   2.953  15.627 -0.0742 -0.4237 -0.1873
14240TIP3    H164135   1.645   2.914  15.671 -0.4648  0.5761  0.0435
14240TIP3    H264136   1.724   3.043  15.659  0.1495  0.0702 -1.5342
14241TIP3   OH264137   5.518   6.338  12.203 -0.0671  0.1822  0.2250
14241TIP3    H164138   5.516   6.423  12.158 -0.1656 -0.0910 -0.3010
14241TIP3    H264139   5.600   6.339  12.253 -0.3500  0.8192  0.6964
14242TIP3   OH264140   2.716   4.740  13.466  0.1553  0.7308 -0.3206
14242TIP3    H164141   2.804   4.703  13.463  0.7746  2.1054 -2.7974
14242TIP3    H264142   2.661   4.676  13.421 -0.1649 -0.1476  1.2641
14243TIP3   OH264143   0.674   3.350  17.251 -0.2729 -0.3080 -0.1077
14243TIP3    H164144   0.722   3.287  17.197 -1.0849  0.3608 -1.6793
14243TIP3    H264145   0.695   3.326  17.341  3.2513  0.1418 -0.6860
14244TIP3   OH264146   1.617   5.253  16.134  0.0552  0.0726  0.5836
14244TIP3    H164147   1.527   5.221  16.141 -0.1256  0.5237  0.3678
14244TIP3    H264148   1.622   5.327  16.194 -0.6291  2.0100 -1.5745
14245TIP3   OH264149   6.575   4.918  12.810 -0.0491 -0.4753 -1.0380
14245TIP3    H164150   6.544   4.834  12.843 -2.7323 -0.1194 -2.3643
14245TIP3    H264151   6.623   4.896  12.730  1.4763 -0.8760 -0.0594
14246TIP3   OH264152   2.906   4.001  11.631 -0.1122 -0.3606  0.1967
14246TIP3    H164153   2.876   3.981  11.542  0.8910  1.5249 -0.6075
14246TIP3    H264154   2.992   3.960  11.637  0.2493  0.3561 -0.0597
14247TIP3   OH264155   3.147   3.565  15.827 -0.4584 -0.0565  0.0519
14247TIP3    H164156   3.055   3.578  15.806 -0.4923  2.5053  1.4791
14247TIP3    H264157   3.178   3.504  15.760 -3.2978 -1.5191 -0.0623
14248TIP3   OH264158   1.503   2.609   0.428 -0.5509 -0.1910  0.6229
14248TIP3    H164159   1.583   2.561   0.448  0.0917  0.9025  0.7425
14248TIP3    H264160   1.462   2.560   0.357  0.9553  0.0338 -0.4257
14249TIP3   OH264161   0.972   2.865   1.542  0.0515  0.6610  0.1396
14249TIP3    H164162   0.941   2.945   1.498 -1.2809 -0.6594 -1.4613
14249TIP3    H264163   0.964   2.797   1.476  0.2356 -0.9989  1.7499
14250TIP3   OH264164   1.773   0.324  16.044 -0.0944  0.5119  0.1107
14250TIP3    H164165   1.751   0.415  16.062  0.2777  0.4290  1.0635
14250TIP3    H264166   1.839   0.328  15.974 -0.1838  0.9655  0.0533
14251TIP3   OH264167   2.583   0.777  11.521  0.1811  0.6009 -0.5128
14251TIP3    H164168   2.563   0.822  11.603  2.5658  1.4869 -0.3277
14251TIP3    H264169   2.619   0.846  11.464 -0.0512 -0.2837 -1.7606
14252TIP3   OH264170   1.150   5.728  11.990 -0.3406 -0.3859 -0.1121
14252TIP3    H164171   1.130   5.762  11.903  0.7558 -0.1405 -0.2789
14252TIP3    H264172   1.206   5.652  11.974  0.3499  0.0087  0.3938
14253TIP3   OH264173   3.369   5.933   4.220  0.3496  0.1254 -0.1436
14253TIP3    H164174   3.340   6.024   4.214  0.3604  0.3092  2.0164
14253TIP3    H264175   3.330   5.890   4.144 -3.6594  0.8975  1.2478
14254TIP3   OH264176   3.721   2.624   4.259  0.1844 -0.4972  0.2819
14254TIP3    H164177   3.730   2.549   4.201  1.9880 -1.0499  1.2025
14254TIP3    H264178   3.778   2.691   4.221 -0.3614 -0.0790  0.1981
14255TIP3   OH264179   4.704   4.299   1.600 -0.1376 -0.2401 -0.5463
14255TIP3    H164180   4.734   4.246   1.526 -0.1141 -0.3198 -0.4798
14255TIP3    H264181   4.751   4.264   1.675  0.2292  0.1749 -0.5737
14256TIP3   OH264182   5.069   5.373   1.281  0.0666 -1.0780  0.1703
14256TIP3    H164183   5.157   5.339   1.295  1.8662  1.9420 -2.2972
14256TIP3    H264184   5.063   5.384   1.186 -1.2545  2.6270  0.5252
14257TIP3   OH264185   3.154   4.107  16.200 -0.0308  0.1688 -0.7192
14257TIP3    H164186   3.060   4.088  16.196 -0.1101 -0.0083  1.2420
14257TIP3    H264187   3.195   4.029  16.162 -0.5758 -1.6139  2.1006
14258TIP3   OH264188   0.665   6.468  16.978 -0.5712  0.1145  0.4485
14258TIP3    H164189   0.729   6.528  16.939 -1.3913  0.4381 -0.4466
14258TIP3    H264190   0.662   6.492  17.070  0.3420  0.3151  0.4383
14259TIP3   OH264191   5.302   0.862   3.919 -0.8693  0.5776  0.1992
14259TIP3    H164192   5.295   0.939   3.862  0.6983 -0.4759 -1.5391
14259TIP3    H264193   5.220   0.860   3.967 -1.4958  2.5714 -0.6777
14260TIP3   OH264194   4.473   1.655   1.213 -0.2760  0.2328  0.0718
14260TIP3    H164195   4.465   1.560   1.203  0.8226  0.1813 -0.4559
14260TIP3    H264196   4.529   1.682   1.141  0.5045  1.1018  0.9804
14261TIP3   OH264197   2.060   6.077  12.618  0.6355 -0.5222  0.2908
14261TIP3    H164198   2.154   6.065  12.608  0.9401 -0.7688  2.7519
14261TIP3    H264199   2.049   6.171  12.633  0.6121 -0.6211  0.9170
14262TIP3   OH264200   6.181   0.495  14.586 -0.1734 -0.4049  0.2792
14262TIP3    H164201   6.137   0.530  14.663 -1.1225 -1.2146  0.1252
14262TIP3    H264202   6.111   0.478  14.523  0.7273  2.0933 -1.5868
14263TIP3   OH264203   5.795   0.356   1.284  0.6127 -0.4877 -0.5484
14263TIP3    H164204   5.785   0.271   1.327  2.5697 -1.5186 -1.9726
14263TIP3    H264205   5.752   0.417   1.342 -0.0499 -2.3209  1.0036
14264TIP3   OH264206   5.806   3.073  14.411 -0.4229  0.2605 -0.3471
14264TIP3    H164207   5.730   3.021  14.384 -1.0781  1.0831 -0.1164
14264TIP3    H264208   5.770   3.141  14.468  0.7363 -0.5500  1.4450
14265TIP3   OH264209   3.103   5.801   4.139  0.2211 -0.6895 -0.1898
14265TIP3    H164210   3.026   5.807   4.083 -0.3857  1.6223  0.7739
14265TIP3    H264211   3.176   5.788   4.078 -0.8147 -2.1376 -1.1731
14266TIP3   OH264212   1.819   0.679  12.598  0.6973 -0.1334 -0.7482
14266TIP3    H164213   1.843   0.615  12.531  1.2740 -0.5255 -0.1741
14266TIP3    H264214   1.886   0.670  12.666 -2.0001 -2.6615  1.8876
14267TIP3   OH264215   6.006   1.616  13.858  0.2243  0.1913  0.0713
14267TIP3    H164216   5.988   1.682  13.792 -0.1381  1.1282  1.0816
14267TIP3    H264217   5.939   1.549  13.844 -1.4943  1.6238  1.1201
14268TIP3   OH264218   0.834   0.350   4.714 -0.3855 -0.7487  0.0297
14268TIP3    H164219   0.754   0.399   4.695 -0.8309 -0.8588  1.5274
14268TIP3    H264220   0.903   0.399   4.668 -1.0293  0.4550  0.2952
14269TIP3   OH264221   5.572   4.221   5.670  0.3173 -0.4698 -0.1994
14269TIP3    H164222   5.667   4.211   5.675  0.7231  2.1193 -1.2383
14269TIP3    H264223   5.558   4.277   5.594 -2.0862 -1.0051 -0.2231
14270TIP3   OH264224   5.808   4.513   5.707  0.0725 -0.0101 -0.6242
14270TIP3    H164225   5.845   4.426   5.721 -0.6052 -0.0645  0.9956
14270TIP3    H264226   5.787   4.516   5.614 -0.6382 -1.8693 -0.5491
14271TIP3   OH264227   0.858   2.336   0.639 -0.8067  0.1063  0.6391
14271TIP3    H164228   0.939   2.360   0.685  0.0699  0.9116 -1.2277
14271TIP3    H264229   0.789   2.382   0.687 -0.1299 -0.2725  2.0217
14272TIP3   OH264230   3.063   0.827   0.988 -0.3660 -0.1298  0.0734
14272TIP3    H164231   3.078   0.920   1.006 -0.8604 -0.2736  1.3649
14272TIP3    H264232   3.109   0.783   1.060  0.1077 -0.9077 -0.6899
14273TIP3   OH264233   0.071   5.889   5.009 -0.1940  0.1846  0.2679
14273TIP3    H164234  -0.022   5.891   5.032 -0.7627 -1.7828 -1.4905
14273TIP3    H264235   0.111   5.835   5.078 -0.9877 -1.6122 -0.5968
14274TIP3   OH264236   2.774   2.529   5.040 -0.0976  0.4669 -0.0272
14274TIP3    H164237   2.730   2.600   4.994  0.4311  1.3839  0.8474
14274TIP3    H264238   2.864   2.530   5.007  0.0728  0.6151  0.4196
14275TIP3   OH264239   6.595   4.284  12.649 -0.1459 -0.2210  0.0819
14275TIP3    H164240   6.507   4.248  12.657 -0.2300 -0.2453 -0.8511
14275TIP3    H264241   6.583   4.368  12.606  0.1714  0.3883  1.1446
14276TIP3   OH264242   5.109   0.412  16.392  0.2502  0.2269  0.2398
14276TIP3    H164243   5.101   0.318  16.410 -1.4120  0.3573  0.3117
14276TIP3    H264244   5.074   0.455  16.470  0.3821  0.9031 -0.0647
14277TIP3   OH264245   4.647   4.261   0.710 -0.3447  0.1845  0.0033
14277TIP3    H164246   4.650   4.351   0.678 -1.8412  0.1189 -0.4344
14277TIP3    H264247   4.725   4.251   0.763  0.9914  1.0548 -1.6888
14278TIP3   OH264248   6.225   0.264   5.551  0.5454 -0.1542  0.2377
14278TIP3    H164249   6.320   0.261   5.535  0.5819  0.9484  0.1925
14278TIP3    H264250   6.216   0.253   5.645  0.8428  1.4372  0.4779
14279TIP3   OH264251   1.220   6.533  13.115  0.7142  0.2677 -0.0259
14279TIP3    H164252   1.128   6.530  13.090  0.5472 -0.3360  0.6601
14279TIP3    H264253   1.248   6.442  13.118  1.7223  0.4856 -1.6058
14280TIP3   OH264254   0.985   2.624   5.737 -0.1131  0.0173  0.5826
14280TIP3    H164255   0.944   2.626   5.824 -1.7146 -1.1695 -0.0734
14280TIP3    H264256   1.022   2.536   5.731  0.7006  0.3722  0.3590
14281TIP3   OH264257   5.215   2.540  17.047 -1.0085 -0.4477 -0.1867
14281TIP3    H164258   5.136   2.580  17.083 -1.1904  0.2485 -1.3275
14281TIP3    H264259   5.273   2.530  17.123 -2.0146 -0.5763  0.5931
14282TIP3   OH264260   4.879   4.522   2.102  0.8281  0.7312  0.5655
14282TIP3    H164261   4.793   4.511   2.062 -0.6662  3.2943  2.7919
14282TIP3    H264262   4.920   4.436   2.092 -2.5442 -1.0898  0.6771
14283TIP3   OH264263   4.290   2.027  11.526 -0.1424  0.5769 -0.3003
14283TIP3    H164264   4.334   1.987  11.601 -0.1402  0.8973 -0.1262
14283TIP3    H264265   4.198   2.030  11.551 -0.3271 -0.4414 -0.8200
14284TIP3   OH264266   0.377   3.820   6.528 -0.4001 -0.6676  0.5619
14284TIP3    H164267   0.322   3.894   6.551 -0.3907 -0.7888  0.9806
14284TIP3    H264268   0.419   3.846   6.445  0.5907  0.3352  1.3383
14285TIP3   OH264269   2.999   5.319  14.445 -0.4634  0.4507  0.0694
14285TIP3    H164270   2.984   5.382  14.516  0.4771 -0.2214  0.8824
14285TIP3    H264271   2.925   5.258  14.451 -0.3480  0.3522  0.5209
14286TIP3   OH264272   5.723   3.422   0.389  0.5997  0.2167  0.3630
14286TIP3    H164273   5.754   3.335   0.415 -0.8382  0.1758  2.2088
14286TIP3    H264274   5.793   3.458   0.335  1.2142 -2.0863 -0.4894
14287TIP3   OH264275   2.657   5.222  14.105 -0.2331  0.0598  0.2193
14287TIP3    H164276   2.574   5.203  14.061 -0.1511 -0.5463  0.3126
14287TIP3    H264277   2.717   5.154  14.074  0.6768  1.3588 -1.0215
14288TIP3   OH264278   2.517   1.618  14.854  0.1656 -0.9188  0.1674
14288TIP3    H164279   2.503   1.578  14.940  0.5326 -2.6221 -0.5346
14288TIP3    H264280   2.612   1.628  14.848  0.2752 -2.2470 -0.6376
14289TIP3   OH264281   5.602   1.721  12.554 -0.3077  0.0823 -1.1005
14289TIP3    H164282   5.603   1.633  12.592 -0.9643  0.8703  0.8486
14289TIP3    H264283   5.691   1.733  12.520  0.8870 -0.0732  1.7308
14290TIP3   OH264284   2.596   0.404  11.111  0.0525 -0.3617 -0.2385
14290TIP3    H164285   2.685   0.393  11.144 -0.1663 -0.4581  0.3237
14290TIP3    H264286   2.604   0.472  11.044  0.1329  1.6140  1.6473
14291TIP3   OH264287   0.047   5.051   0.254  0.0735  0.4571  0.3998
14291TIP3    H164288   0.029   4.961   0.228  1.4047  0.1318  0.5566
14291TIP3    H264289  -0.036   5.097   0.239 -0.7127 -0.8420  0.6082
14292TIP3   OH264290   6.690   1.265  13.068  0.3933 -0.4286 -0.5575
14292TIP3    H164291   6.618   1.212  13.103  1.0618 -0.6796  0.4699
14292TIP3    H264292   6.766   1.240  13.121  1.1113  0.2661 -1.2383
14293TIP3   OH264293   3.333   0.667  17.053 -0.2014  0.1434  0.1160
14293TIP3    H164294   3.244   0.660  17.088 -1.1841 -0.7587 -2.3170
14293TIP3    H264295   3.323   0.721  16.974  0.8759 -1.9777 -1.5825
14294TIP3   OH264296   5.572   3.288  11.678 -0.4588  0.4068 -0.0914
14294TIP3    H164297   5.600   3.213  11.626  0.8557  1.2105 -0.5841
14294TIP3    H264298   5.630   3.287  11.755 -1.3054  0.1729  0.5557
14295TIP3   OH264299   5.396   0.611   0.119  0.1087  0.1459 -0.0832
14295TIP3    H164300   5.410   0.645   0.207 -0.8992 -2.3653  1.1421
14295TIP3    H264301   5.301   0.609   0.108  0.1824 -0.7696 -0.7118
14296TIP3   OH264302   4.037   3.797  13.965  0.0300  0.5002  0.4113
14296TIP3    H164303   4.070   3.814  13.877  0.6351  1.5131  0.8184
14296TIP3    H264304   4.114   3.768  14.014 -0.6897 -2.1761  0.1110
14297TIP3   OH264305   4.072   0.560   3.534  0.0050  0.1558 -0.4828
14297TIP3    H164306   4.014   0.542   3.608 -0.8775 -0.7394 -1.3650
14297TIP3    H264307   4.156   0.523   3.560  0.0767  1.0121  0.5996
14298TIP3   OH264308   2.717   6.261  12.816  0.5599  0.2271 -0.2479
14298TIP3    H164309   2.644   6.322  12.805  0.9965  0.9643  0.8715
14298TIP3    H264310   2.730   6.224  12.728 -2.2066 -1.1613 -0.1771
14299TIP3   OH264311   2.137   6.370  14.556  0.3053 -0.0114 -0.0938
14299TIP3    H164312   2.176   6.292  14.595  0.3037  0.3463  0.6430
14299TIP3    H264313   2.045   6.368  14.585  0.5077  0.6961  0.6281
14300TIP3   OH264314   3.022   4.938   4.240 -0.3313  0.4349 -0.3445
14300TIP3    H164315   3.106   4.983   4.239  0.1322 -0.3827  0.2382
14300TIP3    H264316   3.030   4.870   4.174  0.6605 -1.6637  1.7944
14301TIP3   OH264317   0.176   6.151   0.315  0.4835  0.3366  0.1069
14301TIP3    H164318   0.152   6.239   0.289 -1.0027  0.3564  1.3990
14301TIP3    H264319   0.191   6.104   0.233 -0.4152  1.3343 -0.6476
14302TIP3   OH264320   5.080   0.464   5.723 -0.6717 -0.6745 -0.3620
14302TIP3    H164321   5.020   0.416   5.780 -0.2076 -1.7638 -0.7660
14302TIP3    H264322   5.065   0.556   5.745  2.1317 -0.9864  4.3447
14303TIP3   OH264323   4.729   2.943  14.832  0.0617 -0.6930  0.6198
14303TIP3    H164324   4.783   2.864  14.820  0.2642 -0.3041 -1.3867
14303TIP3    H264325   4.670   2.942  14.757 -1.9433 -0.4518  2.1307
14304TIP3   OH264326   3.277   3.040   5.597 -0.1135 -0.7095 -0.3827
14304TIP3    H164327   3.366   3.029   5.565  0.1054 -0.5070  0.1484
14304TIP3    H264328   3.273   2.987   5.677 -0.1794  0.0160  0.1082
14305TIP3   OH264329   6.188   4.619  11.240 -0.5918  0.2724  0.0445
14305TIP3    H164330   6.142   4.661  11.167  1.0307  0.5338 -0.8861
14305TIP3    H264331   6.195   4.688  11.306  0.2963  0.9008 -0.6717
14306TIP3   OH264332   5.695   0.943  17.254  0.3118 -0.0004 -0.4956
14306TIP3    H164333   5.638   0.911  17.324  0.2560  0.0294 -0.5279
14306TIP3    H264334   5.766   0.879  17.250 -0.0534 -0.3899 -0.8857
14307TIP3   OH264335   5.638   0.138  15.190 -0.1060 -0.0849  0.2307
14307TIP3    H164336   5.574   0.077  15.228  0.0920 -2.2921 -2.6214
14307TIP3    H264337   5.652   0.204  15.258 -2.9043 -1.3461  2.2198
14308TIP3   OH264338   4.562   2.901   3.780  0.2887 -0.1184 -1.1333
14308TIP3    H164339   4.537   2.818   3.738  0.6762 -1.3743  0.9867
14308TIP3    H264340   4.489   2.921   3.838 -0.4904  1.8848 -2.6901
14309TIP3   OH264341   1.513   3.516  16.229  0.3263 -0.4045 -0.0491
14309TIP3    H164342   1.442   3.533  16.290 -0.0306 -1.6462 -0.0798
14309TIP3    H264343   1.583   3.577  16.254 -0.5940  0.5591  0.2302
14310TIP3   OH264344   5.758   5.924  12.958  0.4217  0.4807  0.0885
14310TIP3    H164345   5.786   5.852  12.900 -0.6551  0.3093 -0.2491
14310TIP3    H264346   5.838   5.971  12.979  1.0113 -0.2478 -0.4857
14311TIP3   OH264347   0.882   4.162   3.674  0.0971  0.2964  0.1902
14311TIP3    H164348   0.821   4.220   3.628  0.9924  1.0086 -0.1264
14311TIP3    H264349   0.956   4.218   3.698  2.1065 -1.1014 -2.2067
14312TIP3   OH264350   1.428   3.464  13.202  0.1233 -0.2919  0.4999
14312TIP3    H164351   1.513   3.450  13.243 -0.0296  0.0591  0.9405
14312TIP3    H264352   1.413   3.385  13.149  2.1086  0.9021 -2.0248
14313TIP3   OH264353   5.587   5.824  16.101 -0.4586 -0.5299  0.4569
14313TIP3    H164354   5.661   5.858  16.150  1.4188  0.9981 -3.0844
14313TIP3    H264355   5.537   5.902  16.075 -0.7763 -1.1527 -0.8907
14314TIP3   OH264356   4.892   3.285  14.100  0.3921  0.1127  0.1951
14314TIP3    H164357   4.922   3.342  14.170  2.4732  1.0889 -1.4145
14314TIP3    H264358   4.798   3.302  14.094  0.5564  1.5825  1.3298
14315TIP3   OH264359   6.038   5.630  13.897  0.1672  0.7377  0.1911
14315TIP3    H164360   6.035   5.634  13.801  0.3842 -0.3077  0.1316
14315TIP3    H264361   5.981   5.701  13.926 -1.6174 -0.2697 -0.7289
14316TIP3   OH264362   5.086   1.882   3.029  0.5888 -0.5302  0.6650
14316TIP3    H164363   5.124   1.795   3.017 -0.6190 -1.1514  1.1635
14316TIP3    H264364   5.078   1.917   2.940 -0.5853 -1.6944  0.2808
14317TIP3   OH264365   0.663   4.941   3.369  0.2076 -0.0476 -0.2579
14317TIP3    H164366   0.651   5.025   3.325 -1.3693 -0.2568 -0.2517
14317TIP3    H264367   0.744   4.906   3.331  0.1071  0.8138 -1.3113
14318TIP3   OH264368   4.598   1.690   4.832 -0.6271 -0.6854 -0.8883
14318TIP3    H164369   4.677   1.674   4.884 -1.7132  0.0615  1.0404
14318TIP3    H264370   4.598   1.784   4.816 -2.9978  0.0609  2.4479
14319TIP3   OH264371   1.842   6.351  13.425  0.9382  0.3239  0.0191
14319TIP3    H164372   1.799   6.295  13.491  1.7842  0.9742  1.1569
14319TIP3    H264373   1.915   6.391  13.472  2.0243  0.2351 -1.5436
14320TIP3   OH264374   2.457   0.425   2.711  0.2158  0.0753  0.6914
14320TIP3    H164375   2.548   0.450   2.700  0.2473 -0.6835 -1.1462
14320TIP3    H264376   2.460   0.340   2.756  0.2735  1.1170  2.7818
14321TIP3   OH264377   4.218   4.099   3.740  0.1143 -0.0589  0.1939
14321TIP3    H164378   4.161   4.103   3.664 -0.4877  0.2349  0.6492
14321TIP3    H264379   4.167   4.051   3.806  0.4044  0.1717  0.5949
14322TIP3   OH264380   2.759   5.488   0.951  0.0617  0.6426 -0.4598
14322TIP3    H164381   2.737   5.539   1.028 -0.5974  1.1258 -0.9593
14322TIP3    H264382   2.848   5.516   0.928  0.6005 -0.1145  0.5924
14323TIP3   OH264383   5.144   5.547   1.516  0.0103  0.0236  0.7195
14323TIP3    H164384   5.106   5.485   1.454  2.5439 -0.3938 -0.5710
14323TIP3    H264385   5.100   5.630   1.496  0.7877 -0.0777 -1.7811
14324TIP3   OH264386   4.362   1.109  13.736 -0.1985 -0.1034 -0.2802
14324TIP3    H164387   4.289   1.136  13.681 -1.1606 -2.5455 -0.3516
14324TIP3    H264388   4.353   1.014  13.743  0.6006 -0.0781  3.0525
14325TIP3   OH264389   2.866   2.407  13.098 -0.0190 -1.2470 -0.2404
14325TIP3    H164390   2.821   2.339  13.149 -0.8972  0.2571  1.1130
14325TIP3    H264391   2.801   2.477  13.091 -0.0251 -1.4251 -3.7117
14326TIP3   OH264392   1.318   1.859   6.276 -0.1236  0.1316 -0.2077
14326TIP3    H164393   1.306   1.954   6.268 -1.1727  0.1771  1.3952
14326TIP3    H264394   1.233   1.822   6.253 -0.5771 -0.2026  1.7832
14327TIP3   OH264395   3.594   2.334   4.164 -0.1091 -0.1604 -0.0163
14327TIP3    H164396   3.555   2.280   4.233  0.6142 -1.1576 -0.3529
14327TIP3    H264397   3.678   2.292   4.146 -0.7048 -0.5273 -2.1967
14328TIP3   OH264398   1.213   2.543   1.428 -0.1160 -0.4779 -0.2877
14328TIP3    H164399   1.192   2.583   1.343 -1.1355 -2.0319 -0.8186
14328TIP3    H264400   1.146   2.577   1.487 -0.1829 -0.3935 -0.4106
14329TIP3   OH264401   4.682   0.750  15.701  0.4270 -0.0459  0.1020
14329TIP3    H164402   4.736   0.716  15.773  1.3338  0.0204 -0.5261
14329TIP3    H264403   4.717   0.837  15.684 -0.0522  0.0991 -0.1448
14330TIP3   OH264404   1.539   5.670  15.795  0.2138 -0.1686  0.1761
14330TIP3    H164405   1.617   5.634  15.753 -0.8939 -1.0744 -1.2528
14330TIP3    H264406   1.466   5.624  15.752 -1.0943  0.3426  1.7279
14331TIP3   OH264407   4.236   3.434   5.536  0.1166  0.6805  0.5956
14331TIP3    H164408   4.141   3.443   5.539 -0.2311 -2.0133  3.0820
14331TIP3    H264409   4.265   3.463   5.623  1.0252 -1.8667  1.2537
14332TIP3   OH264410   2.606   4.774  14.045  0.8050  0.1950  0.4296
14332TIP3    H164411   2.635   4.739  13.960  1.6655 -4.7133  2.4216
14332TIP3    H264412   2.683   4.818  14.080  0.8557  1.0818 -0.7411
14333TIP3   OH264413   4.984   0.825   4.699 -0.5163  0.0608  0.2857
14333TIP3    H164414   5.066   0.859   4.663 -0.3480  0.2196  0.8058
14333TIP3    H264415   4.939   0.903   4.733  0.0389 -0.2527  1.8246
14334TIP3   OH264416   4.153   1.273   5.485  0.4478  0.4949 -0.4195
14334TIP3    H164417   4.066   1.290   5.521  0.4028  0.6020 -0.5772
14334TIP3    H264418   4.143   1.193   5.434  0.9445 -0.7640  1.3362
14335TIP3   OH264419   4.566   1.065  13.260  0.5198  0.3135 -0.5151
14335TIP3    H164420   4.489   1.026  13.303  1.1420  1.6126  1.9690
14335TIP3    H264421   4.639   1.011  13.289  0.8753  0.7451 -0.6098
14336TIP3   OH264422   4.202   3.368   1.792  0.0278  0.8394  0.0911
14336TIP3    H164423   4.257   3.440   1.761  0.6443  0.2830 -0.1272
14336TIP3    H264424   4.253   3.290   1.774  0.3434  0.4749  2.3450
14337TIP3   OH264425   3.859   0.552  13.720 -0.3453  0.2219 -0.3251
14337TIP3    H164426   3.825   0.464  13.700 -1.8610  0.7198 -0.0826
14337TIP3    H264427   3.837   0.605  13.644 -0.9008  0.7627  0.2033
14338TIP3   OH264428   0.841   1.230  14.843  0.2615 -0.3775 -0.2105
14338TIP3    H164429   0.902   1.281  14.789  1.2357  0.2960  1.4338
14338TIP3    H264430   0.883   1.144  14.851  0.1427 -0.4607 -0.4906
14339TIP3   OH264431   3.660   4.317  15.911 -0.6731 -0.4255  0.2009
14339TIP3    H164432   3.579   4.328  15.961 -0.2896  1.6327  0.4290
14339TIP3    H264433   3.632   4.271  15.831 -2.0726  0.2206  0.2923
14340TIP3   OH264434   6.728   1.885  13.557  0.0094  0.2909  0.3121
14340TIP3    H164435   6.675   1.900  13.478 -0.2166 -1.1272  0.1772
14340TIP3    H264436   6.669   1.906  13.629  0.2553  1.7178  0.1253
14341TIP3   OH264437   1.704   0.358   2.646 -0.4413 -0.3850 -0.5447
14341TIP3    H164438   1.654   0.320   2.574 -0.2616 -0.6893 -0.5076
14341TIP3    H264439   1.643   0.358   2.720  0.5005 -3.5947  0.3765
14342TIP3   OH264440   6.036   3.110  16.718  0.0366  0.5484 -0.4169
14342TIP3    H164441   5.948   3.122  16.683  0.0959  0.5417 -0.5718
14342TIP3    H264442   6.024   3.102  16.813  0.0460  2.5896 -0.1986
14343TIP3   OH264443   0.557   6.382  14.270 -0.2562  0.3675 -0.6721
14343TIP3    H164444   0.573   6.437  14.193  0.3076  0.2763 -0.6308
14343TIP3    H264445   0.517   6.440  14.334 -0.1792  0.5921 -0.8265
14344TIP3   OH264446   4.413   3.422  13.937  0.6115  0.2246  0.0788
14344TIP3    H164447   4.398   3.347  13.879  0.6006  0.1581  0.1666
14344TIP3    H264448   4.435   3.494  13.878  1.2418 -0.0020  0.0380
14345TIP3   OH264449   2.390   0.057   1.220 -0.7396  0.7437  0.3822
14345TIP3    H164450   2.441   0.039   1.141 -0.9239  0.5358  0.3102
14345TIP3    H264451   2.339   0.135   1.198 -1.6196  0.0492 -0.1000
14346TIP3   OH264452   1.021   4.843   6.263 -0.0807  0.3348 -0.0136
14346TIP3    H164453   1.111   4.824   6.237  0.2995 -1.1647  2.1165
14346TIP3    H264454   0.976   4.758   6.257 -0.9298  0.7370  0.4970
14347TIP3   OH264455   5.794   0.157   4.607 -0.0020 -0.0489  0.4232
14347TIP3    H164456   5.704   0.135   4.585  0.0120 -0.4001  0.7046
14347TIP3    H264457   5.844   0.137   4.528 -0.1462  0.0048  0.3171
14348TIP3   OH264458   2.602   5.177   0.547 -0.0301  0.0381  0.1255
14348TIP3    H164459   2.584   5.268   0.521  2.3772 -0.2414 -3.1795
14348TIP3    H264460   2.575   5.125   0.471  0.1079 -1.8728  1.3166
14349TIP3   OH264461   2.466   6.462   2.325 -0.1727 -0.5166 -0.1573
14349TIP3    H164462   2.410   6.523   2.277 -0.3603  0.4841  1.2705
14349TIP3    H264463   2.406   6.417   2.385  0.2934 -0.6294  0.2308
14350TIP3   OH264464   1.099   2.194   3.740  0.2012  0.3631  0.3061
14350TIP3    H164465   1.023   2.178   3.795  0.0231  0.7312  0.1725
14350TIP3    H264466   1.064   2.196   3.651 -0.2396  3.7889  0.4111
14351TIP3   OH264467   5.303   2.560  15.740 -0.4813 -0.8439 -0.1665
14351TIP3    H164468   5.343   2.607  15.813 -1.3012  2.5457 -1.6705
14351TIP3    H264469   5.373   2.505  15.705  1.4595  1.2019  0.2544
14352TIP3   OH264470   0.378   0.851   4.436 -1.0272  0.7993 -0.1632
14352TIP3    H164471   0.431   0.853   4.516 -1.3405  1.1806  0.0353
14352TIP3    H264472   0.441   0.868   4.366 -0.7242  0.3073 -0.0152
14353TIP3   OH264473   4.709   3.069  11.583  0.0050 -0.2008  0.0938
14353TIP3    H164474   4.686   3.161  11.567  0.8234 -0.4135 -2.8700
14353TIP3    H264475   4.785   3.074  11.641  1.3502  1.1673 -1.6652
14354TIP3   OH264476   6.131   5.700  13.613  0.7394 -0.1325 -0.5650
14354TIP3    H164477   6.083   5.745  13.543  1.1198  0.2336 -0.5984
14354TIP3    H264478   6.125   5.607  13.592 -2.9280 -0.4981  1.2539
14355TIP3   OH264479   5.767   1.908   1.834 -0.6066  0.5865  0.0161
14355TIP3    H164480   5.771   1.851   1.757  0.2612 -0.0337  0.5055
14355TIP3    H264481   5.805   1.991   1.804 -0.7524  0.5156 -0.3645
14356TIP3   OH264482   1.420   4.733  13.129  0.3383 -0.0616  0.3833
14356TIP3    H164483   1.381   4.706  13.046  2.2340 -0.7922 -0.3117
14356TIP3    H264484   1.484   4.665  13.149  2.3623  1.8211  0.6710
14357TIP3   OH264485   6.756   6.657  15.631  0.4312 -0.3794  0.1590
14357TIP3    H164486   6.713   6.584  15.674  1.6894 -1.7300 -0.7993
14357TIP3    H264487   6.843   6.624  15.608  2.1410  2.2888  2.2104
14358TIP3   OH264488   6.456   4.128  17.245 -0.6164  0.6171 -0.1929
14358TIP3    H164489   6.453   4.130  17.340 -0.9212  0.0326 -0.1834
14358TIP3    H264490   6.542   4.093  17.224 -0.5717  0.6898 -0.1290
14359TIP3   OH264491   1.253   5.415   2.821  0.1036 -0.2159  0.2762
14359TIP3    H164492   1.265   5.348   2.753 -0.0830 -1.5134  1.4880
14359TIP3    H264493   1.160   5.409   2.845 -0.0950  0.9976 -0.0943
14360TIP3   OH264494   5.377   3.448   2.078 -0.2151 -0.0282 -0.1159
14360TIP3    H164495   5.340   3.397   2.005 -1.2976  1.0458 -0.3643
14360TIP3    H264496   5.470   3.454   2.058 -0.3125 -0.7106 -0.8252
14361TIP3   OH264497   2.415   0.690   2.514 -0.5394  0.1454 -0.6123
14361TIP3    H164498   2.397   0.724   2.602 -1.4366  0.4678 -0.9029
14361TIP3    H264499   2.380   0.757   2.455  2.8389  1.4862 -1.3166
14362TIP3   OH264500   0.341   2.382   1.745 -0.2789  0.3082 -0.4292
14362TIP3    H164501   0.287   2.367   1.668 -0.6882 -0.0163 -0.0891
14362TIP3    H264502   0.430   2.361   1.717  0.0206  2.7656 -1.5746
14363TIP3   OH264503   1.731   1.725   3.865 -0.3385 -0.1809  0.6262
14363TIP3    H164504   1.779   1.803   3.891 -1.9819  0.7501  0.9921
14363TIP3    H264505   1.785   1.685   3.797  0.3122  1.5195  0.1079
14364TIP3   OH264506   1.440   4.960  10.917  0.0647  0.1362 -0.2083
14364TIP3    H164507   1.378   5.007  10.861 -0.2491  0.3530  0.3235
14364TIP3    H264508   1.456   5.018  10.991 -1.2830 -1.0629  1.0945
14365TIP3   OH264509   5.169   6.591  12.164  0.6785  0.1935  0.0308
14365TIP3    H164510   5.242   6.653  12.159 -1.4192  2.8791  0.6447
14365TIP3    H264511   5.099   6.640  12.206 -0.8086 -3.0142  1.6015
14366TIP3   OH264512   6.399   1.975  16.827 -0.1897  0.0483  0.4792
14366TIP3    H164513   6.464   1.946  16.763 -0.3978  0.1692  0.2063
14366TIP3    H264514   6.367   1.895  16.867  0.0575 -0.0173  0.5417
14367TIP3   OH264515   2.205   4.302  14.363  0.2646  0.3793  0.2516
14367TIP3    H164516   2.154   4.236  14.409 -1.4050  1.9975  0.8578
14367TIP3    H264517   2.205   4.274  14.272 -2.2923  0.5802  0.1039
14368TIP3   OH264518   4.763   6.312   1.362 -0.1997  0.2097 -0.0848
14368TIP3    H164519   4.716   6.279   1.438  0.2295  0.6695  0.3961
14368TIP3    H264520   4.798   6.234   1.319 -0.0593 -0.0313  0.4559
14369TIP3   OH264521   0.542   2.632   0.974  0.0554 -0.0081  0.4090
14369TIP3    H164522   0.473   2.566   0.979  1.0699 -1.1942 -0.7454
14369TIP3    H264523   0.501   2.705   0.927 -1.1432  0.3329  1.9016
14370TIP3   OH264524   3.578   4.587   2.228  0.3290 -0.6617  0.4777
14370TIP3    H164525   3.623   4.503   2.229  1.5064 -0.1585 -2.3972
14370TIP3    H264526   3.487   4.566   2.250  1.0185 -2.3258  1.9819
14371TIP3   OH264527   3.492   0.389  14.683 -0.4662  0.5302 -0.5210
14371TIP3    H164528   3.408   0.398  14.727  0.0483  1.1682  0.3657
14371TIP3    H264529   3.541   0.467  14.708  1.7401 -1.4341  1.9710
14372TIP3   OH264530   5.403   5.257  11.457  0.0715 -0.7505 -0.2900
14372TIP3    H164531   5.353   5.184  11.494 -0.2792 -0.3416  0.0392
14372TIP3    H264532   5.339   5.327  11.447  1.0650  0.6989  2.5925
14373TIP3   OH264533   5.591   4.077   2.997 -0.7182  0.2753  0.7031
14373TIP3    H164534   5.547   3.993   2.993 -1.1429  0.5255 -0.2533
14373TIP3    H264535   5.638   4.076   3.080  0.5054 -1.5042  0.0448
14374TIP3   OH264536   5.118   1.613  13.905  0.3558  0.3618 -0.4506
14374TIP3    H164537   5.162   1.534  13.873 -1.1504 -0.4315 -0.6698
14374TIP3    H264538   5.178   1.650  13.969  0.8877 -1.2516  0.0326
14375TIP3   OH264539   1.497   0.881  13.971 -0.4857  0.5196  0.0585
14375TIP3    H164540   1.488   0.973  13.997 -0.5213 -0.0513  2.1745
14375TIP3    H264541   1.588   0.859  13.992 -0.7381 -0.1924  0.4123
14376TIP3   OH264542   2.095   2.054  15.020  0.4398  0.3006  0.1510
14376TIP3    H164543   2.183   2.018  15.006  0.4960  0.5846 -0.2396
14376TIP3    H264544   2.091   2.070  15.114  0.9445  0.6323  0.1217
14377TIP3   OH264545   4.922   0.646  15.133  0.1977 -0.0807 -0.4933
14377TIP3    H164546   4.958   0.571  15.181 -0.1334  0.6430  0.9381
14377TIP3    H264547   4.998   0.700  15.113  0.0828  1.2084  2.1103
14378TIP3   OH264548   5.646   0.057   4.855 -0.0995  0.1244  0.4922
14378TIP3    H164549   5.654   0.070   4.761  3.1880  0.7434  0.7244
14378TIP3    H264550   5.616   0.141   4.889 -1.8375 -0.2652  0.0133
14379TIP3   OH264551   5.377   0.798   2.942 -0.1167 -0.0350 -0.1514
14379TIP3    H164552   5.431   0.805   2.863 -0.7486 -0.5101 -0.6288
14379TIP3    H264553   5.318   0.725   2.925 -0.6708  0.2441  0.5216
14380TIP3   OH264554   6.266   5.338   2.572  0.6044  0.0584  0.5171
14380TIP3    H164555   6.259   5.244   2.589  1.0188  0.1183  1.0130
14380TIP3    H264556   6.297   5.343   2.481 -1.6020 -0.2527 -0.3043
14381TIP3   OH264557   4.797   2.287  15.925 -0.3198  0.6550 -0.5067
14381TIP3    H164558   4.725   2.244  15.881 -2.2427  1.2422  1.8548
14381TIP3    H264559   4.779   2.380  15.917  0.7693  0.8580 -0.8014
14382TIP3   OH264560   5.139   2.160   3.100  0.0481 -0.0204 -0.1142
14382TIP3    H164561   5.053   2.127   3.075 -0.0522  0.0714  0.1169
14382TIP3    H264562   5.136   2.253   3.078 -0.8692  0.6054  2.4147
14383TIP3   OH264563   4.963   0.680  13.891  0.4123 -0.9744 -0.0200
14383TIP3    H164564   4.921   0.615  13.947 -0.2024 -1.1937 -0.7101
14383TIP3    H264565   5.041   0.636  13.857  0.0392 -1.3390 -0.4253
14384TIP3   OH264566   0.496   5.341   4.438  0.4622 -0.1435 -0.2964
14384TIP3    H164567   0.421   5.398   4.449 -0.3124 -1.1326 -0.3210
14384TIP3    H264568   0.498   5.289   4.518  0.8393 -0.4490 -0.5014
14385TIP3   OH264569   0.626   3.894  17.224 -0.0823  0.3698 -0.2937
14385TIP3    H164570   0.546   3.935  17.189 -1.1842  0.8464  2.5121
14385TIP3    H264571   0.613   3.801  17.209 -1.3693  0.4125  0.3970
14386TIP3   OH264572   2.994   3.111   1.981  0.1697 -0.0124  0.0369
14386TIP3    H164573   2.986   3.035   1.923  0.2898 -0.5412  0.6872
14386TIP3    H264574   3.084   3.108   2.012 -0.0163 -0.0162  0.5973
14387TIP3   OH264575   3.899   5.559  13.206 -0.2124  0.4362  0.1524
14387TIP3    H164576   3.855   5.475  13.223 -1.4037  1.1449  0.7509
14387TIP3    H264577   3.948   5.577  13.286  0.4827  0.0675 -0.1814
14388TIP3   OH264578   2.469   3.147   2.400  0.0437 -0.3172  0.5073
14388TIP3    H164579   2.439   3.072   2.349 -1.0364  1.3716 -1.5237
14388TIP3    H264580   2.391   3.178   2.445 -0.1190  0.9638 -0.5947
14389TIP3   OH264581   0.495   0.775   0.930 -0.0355  0.1003  0.5262
14389TIP3    H164582   0.532   0.862   0.916  1.3959 -0.6663 -0.8032
14389TIP3    H264583   0.405   0.782   0.901 -0.1784  1.3373  1.2184
14390TIP3   OH264584   1.466   1.794  16.373 -0.2302  0.2775  0.1064
14390TIP3    H164585   1.483   1.888  16.366  3.5761 -0.3027 -0.4424
14390TIP3    H264586   1.499   1.758  16.291  0.3847 -1.7543  1.1896
14391TIP3   OH264587   4.508   0.803  12.751  0.1561  0.6156 -0.2879
14391TIP3    H164588   4.523   0.730  12.691 -1.2130  1.0285 -1.1959
14391TIP3    H264589   4.595   0.838  12.770  0.7828 -0.9120 -0.2535
14392TIP3   OH264590   4.648   4.941   5.511  0.4171  0.2504  0.4179
14392TIP3    H164591   4.620   4.854   5.539 -1.2679  0.4370 -0.5042
14392TIP3    H264592   4.605   5.001   5.572 -0.6700  0.5198 -0.5754
14393TIP3   OH264593   1.686   4.233  14.789 -0.0606 -0.3806  0.2722
14393TIP3    H164594   1.745   4.206  14.859  0.9373  0.6606 -0.1328
14393TIP3    H264595   1.702   4.171  14.718 -0.4645 -0.9273  0.6496
14394TIP3   OH264596   3.705   4.408  13.937  0.0656  0.2268 -0.9002
14394TIP3    H164597   3.774   4.454  13.890  1.1240 -2.3288 -2.0334
14394TIP3    H264598   3.747   4.376  14.017 -0.3707  0.3818 -0.6050
14395TIP3   OH264599   3.534   4.831   0.661 -0.4261 -0.1619  0.1145
14395TIP3    H164600   3.515   4.871   0.576 -1.0123 -0.2091  0.2168
14395TIP3    H264601   3.626   4.851   0.677  0.0152 -1.1413 -1.0573
14396TIP3   OH264602   6.071   5.968   3.776  0.3718  0.0181  0.1101
14396TIP3    H164603   5.989   6.004   3.810  0.2409 -0.0633 -0.1160
14396TIP3    H264604   6.083   5.886   3.824 -0.4282 -0.6966 -0.8662
14397TIP3   OH264605   0.503   0.392   5.044 -0.3311 -0.4244  0.3744
14397TIP3    H164606   0.505   0.457   5.114  0.3072 -0.7878  0.7009
14397TIP3    H264607   0.435   0.330   5.070  1.6417 -2.0301  2.0401
14398TIP3   OH264608   6.388   5.836   0.480  0.7538  0.4607  0.6724
14398TIP3    H164609   6.304   5.873   0.454  0.9822 -0.3622 -1.4382
14398TIP3    H264610   6.446   5.912   0.490  0.1094  0.9392  0.7809
14399TIP3   OH264611   3.671   1.618  13.551  0.2851 -0.2985 -0.3092
14399TIP3    H164612   3.587   1.589  13.514 -0.2490 -0.5506  1.0525
14399TIP3    H264613   3.725   1.636  13.474 -1.1582  0.3183 -1.2366
14400TIP3   OH264614   4.635   1.147   0.937  0.5277 -0.4158  0.1346
14400TIP3    H164615   4.574   1.207   0.893  0.6208  0.3556  1.0317
14400TIP3    H264616   4.583   1.107   1.007  0.4075 -1.5692 -0.5850
14401TIP3   OH264617   6.343   0.654   3.052 -0.0830  0.1564  0.1086
14401TIP3    H164618   6.385   0.615   2.976  0.7333  0.4203  0.4106
14401TIP3    H264619   6.414   0.665   3.116 -0.3310  1.8313  0.1504
14402TIP3   OH264620   6.309   0.069   3.537  0.1625 -0.2012  0.4092
14402TIP3    H164621   6.366   0.130   3.490 -2.0471 -0.5849 -3.1810
14402TIP3    H264622   6.224   0.111   3.538  0.1361  0.1894  5.2901
14403TIP3   OH264623   0.087   5.692  12.296  0.1852  0.0199  0.8513
14403TIP3    H164624   0.170   5.660  12.260 -0.0466  0.0796  0.2587
14403TIP3    H264625   0.028   5.696  12.221 -0.0954  0.8294  1.1007
14404TIP3   OH264626   3.884   3.519   4.415 -0.3464 -0.6897  0.3952
14404TIP3    H164627   3.803   3.521   4.466 -1.3481  2.7598 -1.0826
14404TIP3    H264628   3.860   3.558   4.331  2.5261 -1.0601 -0.6828
14405TIP3   OH264629   4.302   4.755   4.989 -0.1358 -0.0211  0.5839
14405TIP3    H164630   4.383   4.763   4.938 -0.9038  1.9643 -0.4259
14405TIP3    H264631   4.293   4.840   5.032 -1.3468 -0.4575  1.2209
14406TIP3   OH264632   2.986   1.972   2.150 -0.4273 -0.0646 -0.0237
14406TIP3    H164633   2.975   1.900   2.213 -0.1759  1.4217  1.8118
14406TIP3    H264634   2.902   2.017   2.150 -0.0263  0.7029  0.2561
14407TIP3   OH264635   2.503   2.048   3.126 -0.1249 -0.2518  0.6354
14407TIP3    H164636   2.479   2.091   3.044 -1.3608  1.1535  1.6600
14407TIP3    H264637   2.420   2.039   3.173  0.4518 -1.7061  1.4261
14408TIP3   OH264638   0.708   4.890   5.309 -0.1562  0.3206 -0.3434
14408TIP3    H164639   0.719   4.840   5.390 -1.0456  0.6420 -0.0014
14408TIP3    H264640   0.624   4.936   5.321 -1.1625 -0.9385 -2.1594
14409TIP3   OH264641   1.465   4.912   4.601  0.1799  0.2736  0.4578
14409TIP3    H164642   1.464   4.892   4.507 -0.1317  1.0131  0.2925
14409TIP3    H264643   1.512   4.995   4.606 -1.2966  1.1242  0.7625
14410TIP3   OH264644   3.012   2.182  15.530 -0.1120 -0.6859 -0.3147
14410TIP3    H164645   2.974   2.270  15.525  0.2046 -0.4658  0.7878
14410TIP3    H264646   3.073   2.187  15.604 -0.3428 -1.9300 -0.0246
14411TIP3   OH264647   5.089   5.069   5.007 -0.5579  0.6725 -1.0052
14411TIP3    H164648   5.055   5.150   4.969  0.3886  0.5699 -2.1199
14411TIP3    H264649   5.080   5.081   5.102 -1.1161  1.7663 -1.1817
14412TIP3   OH264650   4.577   2.875  13.291  0.0943  0.2522  0.5482
14412TIP3    H164651   4.525   2.805  13.330 -1.4537  1.0936  0.0986
14412TIP3    H264652   4.658   2.833  13.263 -1.0253 -1.4670 -0.2149
14413TIP3   OH264653   1.314   5.066  10.706  0.8977 -0.4611  0.2734
14413TIP3    H164654   1.218   5.070  10.707  0.9029 -0.3088  1.5165
14413TIP3    H264655   1.334   4.979  10.672  0.2991 -0.8364  0.8747
14414TIP3   OH264656   3.489   3.450  12.096  0.4431 -0.1539  0.4768
14414TIP3    H164657   3.440   3.452  12.013  0.1892  1.9524  0.6077
14414TIP3    H264658   3.427   3.485  12.160  1.9097  2.2347  0.7212
14415TIP3   OH264659   6.629   0.806  16.539 -0.2960  0.6123 -0.1967
14415TIP3    H164660   6.650   0.809  16.446 -1.1944  2.5591 -0.3944
14415TIP3    H264661   6.675   0.729  16.572  0.0327 -0.1304 -2.2376
14416TIP3   OH264662   5.196   0.011  15.031 -0.4339  0.5442 -0.1035
14416TIP3    H164663   5.261  -0.056  15.009  0.6991  1.5426  0.1198
14416TIP3    H264664   5.210   0.081  14.967 -1.0686  0.9216  0.1556
14417TIP3   OH264665   6.105   5.446  13.471 -0.1770 -0.6738  0.5397
14417TIP3    H164666   6.179   5.390  13.447  0.3278 -0.8957  2.4070
14417TIP3    H264667   6.058   5.461  13.389  2.9476  1.0206 -1.1411
14418TIP3   OH264668   6.667   0.174   4.949 -0.2566  0.2527  0.2628
14418TIP3    H164669   6.656   0.244   5.013  0.0000  2.7120 -2.2061
14418TIP3    H264670   6.759   0.150   4.955  0.2005  1.7575 -0.3768
14419TIP3   OH264671   5.105   0.611  12.180  0.0256  0.0876  0.5376
14419TIP3    H164672   5.092   0.532  12.233  0.4634 -0.2977  0.0851
14419TIP3    H264673   5.018   0.636  12.151 -0.0704 -0.5220  0.2815
14420TIP3   OH264674   2.455   3.697   5.298  0.1594  0.5097 -0.3077
14420TIP3    H164675   2.458   3.727   5.389 -2.1080  0.2875 -0.0938
14420TIP3    H264676   2.399   3.760   5.253  1.0825  0.4994 -1.5305
14421TIP3   OH264677   3.143   4.337   2.179 -0.4507 -0.4694 -0.5242
14421TIP3    H164678   3.073   4.274   2.168  0.1418 -1.1446 -0.4930
14421TIP3    H264679   3.182   4.346   2.092  2.0997 -3.3047  0.1552
14422TIP3   OH264680   4.076   1.061  15.046  0.0630  0.9181 -0.2965
14422TIP3    H164681   3.990   1.102  15.039 -0.8871 -0.7112  1.1570
14422TIP3    H264682   4.104   1.049  14.955 -1.1612  1.6336 -0.7903
14423TIP3   OH264683   4.447   5.674   5.373  0.4381  0.3812  0.0689
14423TIP3    H164684   4.367   5.650   5.328  1.0191 -0.4214 -0.5692
14423TIP3    H264685   4.418   5.709   5.458 -0.5468 -0.5377  0.1238
14424TIP3   OH264686   4.559   3.177  10.829  0.4683  0.0176  0.2284
14424TIP3    H164687   4.636   3.233  10.833  0.8108 -0.4647  0.7150
14424TIP3    H264688   4.507   3.203  10.904 -0.1399  0.7431 -0.4309
14425TIP3   OH264689   1.527   2.867  10.632  0.0369 -0.0834 -0.3161
14425TIP3    H164690   1.471   2.905  10.699 -0.7462  0.0787 -1.0414
14425TIP3    H264691   1.469   2.857  10.556  1.5592  2.4122 -1.9190
14426TIP3   OH264692   3.302   4.807   2.309 -0.1470 -0.0280 -0.0176
14426TIP3    H164693   3.327   4.884   2.360  1.2160  0.8953 -1.9583
14426TIP3    H264694   3.326   4.733   2.365  3.4448  0.8827 -0.0552
14427TIP3   OH264695   6.398   5.711   5.946  0.0496  0.1475  0.4145
14427TIP3    H164696   6.368   5.801   5.932  1.9489  0.6827 -0.5266
14427TIP3    H264697   6.357   5.685   6.029 -1.3467  1.4881  0.2033
14428TIP3   OH264698   5.316   1.077   3.403  0.4644  0.0558 -0.1860
14428TIP3    H164699   5.299   1.031   3.320  1.3826 -1.2171  0.3058
14428TIP3    H264700   5.399   1.042   3.433 -0.2831 -0.1599  1.7446
14429TIP3   OH264701   5.580   4.338  12.941  0.1613  0.1298  0.4972
14429TIP3    H164702   5.664   4.384  12.944  0.0961  0.1966  1.9509
14429TIP3    H264703   5.547   4.342  13.031  0.5190 -3.4919  0.9320
14430TIP3   OH264704   3.682   2.519   3.758  0.3544 -0.3677  0.0606
14430TIP3    H164705   3.740   2.571   3.814  0.0125 -1.7817  1.8110
14430TIP3    H264706   3.740   2.461   3.709  0.5054 -0.8975  0.8631
14431TIP3   OH264707   0.464   6.705   1.208 -0.3233 -0.2598 -0.0529
14431TIP3    H164708   0.381   6.745   1.186 -0.4470 -0.4391  0.0852
14431TIP3    H264709   0.448   6.611   1.200 -0.6704 -0.3831  1.8382
14432TIP3   OH264710   2.607   4.765   4.936  0.2379 -0.6711  0.0256
14432TIP3    H164711   2.669   4.827   4.974 -2.2867  0.5182  2.6079
14432TIP3    H264712   2.614   4.778   4.842  1.7242  1.5811  0.3736
14433TIP3   OH264713   5.847   6.440   6.500 -0.3415 -0.3517 -0.2390
14433TIP3    H164714   5.820   6.387   6.426 -0.7714 -0.5055  0.0222
14433TIP3    H264715   5.783   6.419   6.569  0.3066 -0.5483  0.3180
14434TIP3   OH264716   6.650   6.145  16.292 -0.3871 -0.2269 -0.2411
14434TIP3    H164717   6.558   6.132  16.315 -0.7261 -0.4132 -1.6550
14434TIP3    H264718   6.667   6.083  16.222  1.7202 -2.5050  2.0571
14435TIP3   OH264719   4.939   4.605   1.807 -0.3782 -0.0797  0.5331
14435TIP3    H164720   4.874   4.669   1.837 -1.2765  0.7942 -2.7899
14435TIP3    H264721   5.006   4.658   1.762  1.0708 -1.2068  1.2605
14436TIP3   OH264722   2.335   2.578  12.761  0.1084  0.3134  0.3733
14436TIP3    H164723   2.345   2.565  12.666  2.4143 -1.9934  0.7903
14436TIP3    H264724   2.275   2.509  12.788 -0.9635  1.2964  0.5792
14437TIP3   OH264725   5.983   5.799  14.556  0.3608 -0.5630  0.5282
14437TIP3    H164726   5.997   5.804  14.651  2.5962 -1.8930  0.3355
14437TIP3    H264727   6.054   5.850  14.519  0.3066 -1.1834 -0.4592
14438TIP3   OH264728   4.950   4.241   2.054 -0.7552 -0.5373  0.5258
14438TIP3    H164729   5.007   4.275   1.985 -1.0757 -0.1251  0.4639
14438TIP3    H264730   4.961   4.146   2.049 -0.1384 -0.4700  0.4571
14439TIP3   OH264731   6.559   0.672  17.052 -0.2059 -0.1937 -0.4181
14439TIP3    H164732   6.512   0.590  17.067 -1.1171  0.3051 -0.5069
14439TIP3    H264733   6.571   0.676  16.957  0.0524 -0.3256 -0.3948
14440TIP3   OH264734   3.238   4.894  12.435  0.0723  0.3547  0.3120
14440TIP3    H164735   3.144   4.912  12.429 -0.2305 -1.3880 -1.2322
14440TIP3    H264736   3.278   4.959  12.378 -0.4287 -0.1642 -0.6648
14441TIP3   OH264737   2.263   3.547   3.956  0.1501  0.1642  0.6888
14441TIP3    H164738   2.350   3.525   3.989 -0.3638 -0.9557  1.3861
14441TIP3    H264739   2.264   3.641   3.944  1.1889  0.2711  1.5059
14442TIP3   OH264740   1.786   3.825   2.778 -0.2082 -0.4585  0.1381
14442TIP3    H164741   1.837   3.783   2.846  0.1077  1.1260  0.9333
14442TIP3    H264742   1.839   3.900   2.751  0.1127 -1.5341 -2.5437
14443TIP3   OH264743   3.881   5.998   3.793  0.2157 -0.2238  0.1271
14443TIP3    H164744   3.834   5.928   3.747 -0.0404  0.6039 -0.9122
14443TIP3    H264745   3.957   6.016   3.738 -0.0030  0.6654  0.1103
14444TIP3   OH264746   4.863   3.935   4.206 -0.1238  0.2976  0.0593
14444TIP3    H164747   4.827   4.023   4.194  0.3765  0.3583 -1.2549
14444TIP3    H264748   4.911   3.918   4.124  2.4259  0.0641  1.4942
14445TIP3   OH264749   3.975   4.033  15.391  0.2427  0.2061 -0.1963
14445TIP3    H164750   3.919   3.980  15.447 -0.6433  0.1658 -1.0946
14445TIP3    H264751   3.942   4.122  15.402  2.5617  0.8894  2.3459
14446TIP3   OH264752   5.683   0.283  12.668 -0.3401 -0.0153  0.0656
14446TIP3    H164753   5.704   0.373  12.693  0.7841 -0.0494 -0.6780
14446TIP3    H264754   5.590   0.284  12.647 -0.9941  0.3475  2.6914
14447TIP3   OH264755   1.933   0.780   0.912 -0.8422 -0.3302  0.0965
14447TIP3    H164756   1.859   0.725   0.888 -0.2385 -1.0634 -0.1014
14447TIP3    H264757   1.926   0.790   1.007 -0.5176 -1.4097  0.2488
14448TIP3   OH264758   1.102   4.744   1.027  0.1750  0.3462  0.1859
14448TIP3    H164759   1.175   4.713   1.081  1.6118  0.8415 -1.3535
14448TIP3    H264760   1.087   4.674   0.964  0.3097  0.8267 -0.3987
14449TIP3   OH264761   2.362   4.588  15.197  0.0402  0.4322 -0.0240
14449TIP3    H164762   2.320   4.528  15.135  0.1862  1.2431 -0.9298
14449TIP3    H264763   2.456   4.572  15.185  0.0611 -0.7619  1.3814
14450TIP3   OH264764   5.684   6.389   3.811 -0.1680 -0.2467  0.0941
14450TIP3    H164765   5.664   6.345   3.728 -1.1814  0.2675  0.0464
14450TIP3    H264766   5.778   6.407   3.806  0.8042 -4.0821  0.9637
14451TIP3   OH264767   3.274   2.089  16.348  0.6873  0.5404  0.0266
14451TIP3    H164768   3.233   2.160  16.398  0.7419 -1.0225  2.4035
14451TIP3    H264769   3.211   2.017  16.352  0.3283  0.5660 -2.9390
14452TIP3   OH264770   3.381   3.770  11.999 -0.5052  0.6193  1.0735
14452TIP3    H164771   3.424   3.722  11.927 -0.8724  2.0472 -0.1465
14452TIP3    H264772   3.377   3.860  11.968 -0.9291  1.2251  2.8063
14453TIP3   OH264773   4.940   6.158  17.218 -0.4186 -0.2133  0.2585
14453TIP3    H164774   4.901   6.127  17.136  0.6738 -0.2611 -0.2727
14453TIP3    H264775   4.910   6.097  17.285 -2.3038  0.5200  0.1282
14454TIP3   OH264776   3.297   0.028   4.280  0.7481  0.0540 -0.4337
14454TIP3    H164777   3.216   0.017   4.330  1.2215  0.3577  0.4169
14454TIP3    H264778   3.268   0.058   4.194 -0.1730 -1.7260 -0.7872
14455TIP3   OH264779   2.617   6.169   3.774 -0.4682  0.1559 -0.3459
14455TIP3    H164780   2.524   6.192   3.776 -1.1692 -1.7343 -3.6778
14455TIP3    H264781   2.623   6.086   3.822 -0.5422  0.1527 -0.3433
14456TIP3   OH264782   2.620   3.314  14.858  0.4549  0.4681 -0.2465
14456TIP3    H164783   2.606   3.320  14.953 -0.1716  1.1975 -0.3776
14456TIP3    H264784   2.532   3.304  14.821  0.8167 -2.2579 -0.6215
14457TIP3   OH264785   6.155   6.522   2.749 -0.0872  0.0509  0.0556
14457TIP3    H164786   6.144   6.553   2.839 -0.2959 -3.8549  1.5879
14457TIP3    H264787   6.248   6.532   2.731 -0.0220  0.7764  0.7660
14458TIP3   OH264788   2.125   1.608  14.509 -0.2330  0.9080  0.2288
14458TIP3    H164789   2.052   1.630  14.567  1.0349  1.8593  1.5308
14458TIP3    H264790   2.192   1.571  14.567  0.2024 -0.3171 -0.9854
14459TIP3   OH264791   5.096   0.424   4.648 -0.0555 -0.7811 -0.1539
14459TIP3    H164792   5.062   0.379   4.571  0.6339 -0.2290 -0.7906
14459TIP3    H264793   5.111   0.514   4.619 -1.6725 -0.0418  1.1676
14460TIP3   OH264794   5.903   3.310   0.150  0.0830  0.0977  0.0266
14460TIP3    H164795   5.850   3.331   0.073  0.3752  0.4886 -0.0719
14460TIP3    H264796   5.860   3.234   0.189 -0.3724  0.2245 -0.2248
14461TIP3   OH264797   5.623   3.933  13.707 -0.4558 -0.1782  0.4126
14461TIP3    H164798   5.626   3.940  13.612 -1.2095 -0.8682  0.3238
14461TIP3    H264799   5.531   3.947  13.729 -0.2217  0.3564  1.0807
14462TIP3   OH264800   0.371   6.082   3.023 -0.4424  0.4132  0.2980
14462TIP3    H164801   0.344   6.137   3.096 -0.3241  1.7836 -0.6390
14462TIP3    H264802   0.311   6.008   3.025 -1.6488  1.3624  0.6787
14463TIP3   OH264803   5.677   3.263  14.532  0.4313 -0.0443 -0.8335
14463TIP3    H164804   5.629   3.255  14.450  0.1577  0.8571 -0.7657
14463TIP3    H264805   5.613   3.295  14.595  0.6558 -0.6722 -0.2724
14464TIP3   OH264806   2.217   5.400  16.068 -0.7451 -0.2779 -0.2539
14464TIP3    H164807   2.213   5.425  15.976 -0.0770  0.3210 -0.1232
14464TIP3    H264808   2.305   5.424  16.097 -0.7311 -1.0474  0.3766
14465TIP3   OH264809   3.000   2.519  11.222  0.3665 -0.4232 -0.3290
14465TIP3    H164810   2.905   2.504  11.222  0.5257 -1.6368 -1.8765
14465TIP3    H264811   3.023   2.528  11.130  1.6081  1.1126  0.0892
14466TIP3   OH264812   4.914   2.093  16.088 -0.3028 -0.0704  0.3781
14466TIP3    H164813   4.912   2.186  16.111  0.8830  0.0635  0.0090
14466TIP3    H264814   4.831   2.078  16.043  0.0182  1.1080 -0.6637
14467TIP3   OH264815   4.946   1.967   4.516 -0.0546  0.0107  0.2672
14467TIP3    H164816   4.900   2.049   4.536 -0.4204  0.1146 -0.9190
14467TIP3    H264817   4.982   1.939   4.600 -2.4657 -0.1912  1.3071
14468TIP3   OH264818   6.050   3.032   1.632  0.1701 -0.5262 -0.9709
14468TIP3    H164819   5.967   3.066   1.665  0.5842  0.9985 -1.4583
14468TIP3    H264820   6.026   2.952   1.585 -0.9658 -0.2976 -0.8068
14469TIP3   OH264821   5.732   3.691  16.543  0.5311  0.4056  0.4988
14469TIP3    H164822   5.825   3.693  16.519  0.0029  1.3755 -1.7070
14469TIP3    H264823   5.709   3.783  16.556 -0.2058  0.1952  0.6887
14470TIP3   OH264824   0.583   5.181   5.551 -0.4784 -0.2076 -0.8169
14470TIP3    H164825   0.672   5.214   5.534  0.0361 -2.1977 -2.4052
14470TIP3    H264826   0.590   5.135   5.635  0.1232 -0.6769 -1.1119
14471TIP3   OH264827   5.715   3.885  16.792  0.0746  0.3846 -0.3548
14471TIP3    H164828   5.656   3.906  16.719 -0.6208 -0.1682  0.0362
14471TIP3    H264829   5.717   3.964  16.845 -1.1372  0.0884  0.1709
14472TIP3   OH264830   0.647   3.288   4.571 -0.4114  0.4844 -0.7314
14472TIP3    H164831   0.713   3.290   4.502 -0.2852  0.8049 -0.6040
14472TIP3    H264832   0.619   3.379   4.580 -2.4245  0.0861 -2.2602
14473TIP3   OH264833   1.035   1.524   1.609 -0.0406 -0.4273 -0.2407
14473TIP3    H164834   1.118   1.486   1.635  0.4754  0.6584 -0.2368
14473TIP3    H264835   0.986   1.534   1.691  0.5330  0.5452  0.0009
14474TIP3   OH264836   3.932   0.330   0.932 -1.0508 -0.1178  0.3408
14474TIP3    H164837   4.027   0.326   0.942 -0.9125  3.0203  1.2466
14474TIP3    H264838   3.917   0.313   0.839  0.5637  0.8953 -0.1478
14475TIP3   OH264839   6.262   6.357   4.786 -0.1410 -0.0103  0.7550
14475TIP3    H164840   6.327   6.321   4.847  0.4412  0.2348  0.2799
14475TIP3    H264841   6.236   6.283   4.732  0.4826  0.1048  0.2906
14476TIP3   OH264842   3.093   6.121  11.483  0.4537 -0.4266  0.3910
14476TIP3    H164843   3.009   6.167  11.491  0.6047 -0.3811  2.2187
14476TIP3    H264844   3.079   6.038  11.528  1.5551 -0.1565  1.2801
14477TIP3   OH264845   3.045   3.498   2.515 -0.3643 -0.5557  0.2067
14477TIP3    H164846   3.108   3.514   2.586 -2.7169  1.2505  2.0437
14477TIP3    H264847   3.083   3.543   2.440  2.4336 -2.9291  0.0120
14478TIP3   OH264848   1.609   0.989  11.923 -0.2227 -0.6281  0.5516
14478TIP3    H164849   1.669   0.992  11.997  0.6092  0.1932 -0.1281
14478TIP3    H264850   1.665   1.005  11.847 -0.9737 -1.9735 -0.3086
14479TIP3   OH264851   2.127   3.396   6.190 -0.2888 -0.1140  0.1857
14479TIP3    H164852   2.048   3.435   6.152 -0.1467  0.1150  0.1269
14479TIP3    H264853   2.112   3.399   6.284 -0.4269 -0.2335  0.1688
14480TIP3   OH264854   6.202   4.604   0.028  0.4122  0.3250  0.2723
14480TIP3    H164855   6.189   4.525   0.080 -0.2170 -0.9781 -1.7536
14480TIP3    H264856   6.241   4.574  -0.054 -0.6046  1.9934 -0.8986
14481TIP3   OH264857   0.810   0.884   5.942 -0.3038  0.5018 -0.3302
14481TIP3    H164858   0.818   0.917   6.031 -1.7405  0.3291 -0.1156
14481TIP3    H264859   0.838   0.957   5.887 -1.6804  1.4938  0.2057
14482TIP3   OH264860   5.593   2.101  11.640 -0.5289  0.0043 -0.4383
14482TIP3    H164861   5.663   2.155  11.678 -0.1792 -1.0351  0.4493
14482TIP3    H264862   5.517   2.159  11.637 -0.6562  0.1016  2.1697
14483TIP3   OH264863   6.287   4.878  17.183  0.7637 -0.1824 -0.4889
14483TIP3    H164864   6.225   4.949  17.166  1.0430  0.4338  0.9154
14483TIP3    H264865   6.299   4.837  17.097 -1.4567 -0.2526 -0.8412
14484TIP3   OH264866   1.928   1.114   3.684  0.2021  0.0237 -0.6868
14484TIP3    H164867   1.951   1.205   3.702 -2.0905  0.5744 -0.1775
14484TIP3    H264868   2.006   1.077   3.642  1.1009  2.2770 -1.1549
14485TIP3   OH264869   4.724   4.687   0.649  0.5830  0.3300 -0.0859
14485TIP3    H164870   4.745   4.603   0.608 -0.1693 -0.2969  0.7579
14485TIP3    H264871   4.763   4.752   0.591  0.5420 -0.5616 -1.1629
14486TIP3   OH264872   0.116   6.094  11.742  0.2124 -0.5773 -0.1871
14486TIP3    H164873   0.030   6.136  11.745 -0.1613 -1.3374  3.1759
14486TIP3    H264874   0.136   6.089  11.648 -3.4155 -0.4465 -1.1316
14487TIP3   OH264875   2.210   3.056  16.082 -0.6216 -0.2893 -0.5375
14487TIP3    H164876   2.183   3.144  16.057 -1.4084 -0.8377 -1.7262
14487TIP3    H264877   2.281   3.070  16.145 -1.0680  1.1817 -0.3102
14488TIP3   OH264878   5.253   2.698   5.696  0.2986 -0.3758  0.0755
14488TIP3    H164879   5.280   2.606   5.693 -0.2595 -0.5765  0.8083
14488TIP3    H264880   5.220   2.710   5.785 -2.4222 -0.2698 -0.8691
14489TIP3   OH264881   4.549   6.503   4.497  0.2109  0.0926 -0.0160
14489TIP3    H164882   4.514   6.585   4.532  0.0846 -0.2350  0.6447
14489TIP3    H264883   4.614   6.530   4.432 -0.0710  0.7113 -0.0430
14490TIP3   OH264884   2.351   1.278  13.040 -0.3482 -0.2671  0.0322
14490TIP3    H164885   2.422   1.217  13.062  1.6405  0.6488 -3.1471
14490TIP3    H264886   2.391   1.365  13.047 -1.1919  0.2910 -1.5261
14491TIP3   OH264887   4.900   5.785  13.621 -0.1748  0.3238  0.4171
14491TIP3    H164888   4.822   5.838  13.604 -1.4109 -1.4955  0.0948
14491TIP3    H264889   4.961   5.810  13.552 -0.8374  1.0950  0.0918
14492TIP3   OH264890   0.810   1.159  11.726  0.0736 -0.6379  0.2176
14492TIP3    H164891   0.780   1.245  11.756  0.5543  0.0323 -1.1349
14492TIP3    H264892   0.732   1.118  11.690  0.3400  0.3660 -1.6250
14493TIP3   OH264893   2.475   6.533   0.236 -0.1977 -0.5232 -0.0620
14493TIP3    H164894   2.465   6.565   0.146 -1.7767 -0.7952  0.0016
14493TIP3    H264895   2.456   6.609   0.290  0.1433 -0.5223  0.0610
14494TIP3   OH264896   0.775   2.887  14.915  0.1517  0.2879 -0.4091
14494TIP3    H164897   0.688   2.891  14.875  0.1390 -1.7529 -0.7155
14494TIP3    H264898   0.826   2.831  14.857  1.7287  1.5474 -0.2904
14495TIP3   OH264899   1.132   1.871  11.268  0.2880  0.2445  0.3383
14495TIP3    H164900   1.181   1.951  11.284 -0.5101  0.6419  0.8219
14495TIP3    H264901   1.043   1.900  11.249 -0.5260 -0.6013  2.5808
14496TIP3   OH264902   4.453   3.517  15.045 -0.0540  0.4265 -0.7938
14496TIP3    H164903   4.534   3.479  15.011  0.1191 -0.6690  0.7270
14496TIP3    H264904   4.477   3.548  15.133 -1.6681 -1.5985  0.4550
14497TIP3   OH264905   1.307   5.006   1.869  0.9031  0.2894  0.1532
14497TIP3    H164906   1.360   4.951   1.927  1.3561  2.3342  1.7895
14497TIP3    H264907   1.343   5.094   1.880 -0.6130  1.1481 -1.3841
14498TIP3   OH264908   1.541   4.233  16.529  0.1094 -0.5741 -0.0888
14498TIP3    H164909   1.589   4.230  16.447 -0.0001 -0.4339 -0.1589
14498TIP3    H264910   1.548   4.324  16.558 -2.4370  0.1900 -1.5211
14499TIP3   OH264911   4.523   4.836  12.780  0.4328  0.0555  0.0452
14499TIP3    H164912   4.442   4.879  12.811 -0.8197 -2.4368  0.5018
14499TIP3    H264913   4.566   4.807  12.861  0.9523 -0.0442 -0.2671
14500TIP3   OH264914   4.969   3.172  12.816  0.6427  0.2107 -0.1311
14500TIP3    H164915   4.878   3.200  12.829  0.9958  1.5524 -0.3640
14500TIP3    H264916   5.019   3.221  12.882  1.4256  1.0309 -1.2841
14501TIP3   OH264917   0.016   1.670   0.700  0.6441  0.1452 -0.0576
14501TIP3    H164918  -0.036   1.751   0.708  0.9123  0.5071 -1.6623
14501TIP3    H264919   0.075   1.687   0.627  3.2591 -0.1522  1.8525
14502TIP3   OH264920   1.352   3.921   5.507  0.4264  0.0153 -0.6384
14502TIP3    H164921   1.348   4.013   5.536 -1.1396  0.2454 -1.4584
14502TIP3    H264922   1.422   3.883   5.559 -1.5443  0.6408  2.8334
14503TIP3   OH264923   3.134   5.420  13.151  0.0490 -0.1192  0.8187
14503TIP3    H164924   3.201   5.469  13.199 -0.3360 -0.0332  1.2766
14503TIP3    H264925   3.080   5.381  13.219 -0.2878 -0.2980  0.4490
14504TIP3   OH264926   0.679   2.586   1.572 -0.3502 -0.0802  0.3103
14504TIP3    H164927   0.738   2.660   1.557 -0.3464 -0.0356  0.5395
14504TIP3    H264928   0.655   2.593   1.664 -0.6031 -0.1805  0.2517
14505TIP3   OH264929   3.124   3.274  16.565  0.0938 -0.1701  0.3380
14505TIP3    H164930   3.203   3.221  16.553  0.0337 -0.5087  1.3459
14505TIP3    H264931   3.124   3.297  16.658 -2.2125 -2.2289  0.9705
14506TIP3   OH264932   3.243   1.195   5.739  0.4674 -0.1743  0.3647
14506TIP3    H164933   3.248   1.167   5.648 -1.6106 -0.1940  0.2013
14506TIP3    H264934   3.331   1.183   5.773  0.8024 -2.2360 -1.0454
14507TIP3   OH264935   0.407   2.147  14.335  0.3412  0.0376 -0.0756
14507TIP3    H164936   0.448   2.140  14.421  0.5645 -1.4185 -0.2595
14507TIP3    H264937   0.365   2.062  14.322 -1.7462  1.0547 -0.4139
14508TIP3   OH264938   6.225   3.897  11.203  0.1052 -0.9889 -0.1084
14508TIP3    H164939   6.250   3.979  11.247 -0.2956 -0.3401 -1.0559
14508TIP3    H264940   6.307   3.862  11.169  0.0587 -0.0366 -1.2538
14509TIP3   OH264941   4.622   0.425  13.247 -0.2981 -0.2547  0.4048
14509TIP3    H164942   4.618   0.505  13.300 -0.8896  0.1958 -0.2990
14509TIP3    H264943   4.689   0.444  13.181  0.3651 -0.7758  0.9128
14510TIP3   OH264944   2.774   1.745  12.025 -0.3294  0.9674  0.5688
14510TIP3    H164945   2.844   1.750  12.090  0.7867  2.0623 -0.6484
14510TIP3    H264946   2.698   1.716  12.075  1.0375 -0.6039  1.8752
14511TIP3   OH264947   5.356   1.869   0.588  1.0660  0.2127  0.5263
14511TIP3    H164948   5.407   1.860   0.507  1.2848 -0.5501  0.7397
14511TIP3    H264949   5.265   1.854   0.561  1.0809  0.4562  0.3388
14512TIP3   OH264950   1.695   4.189   6.438  0.3397 -0.3660  0.1401
14512TIP3    H164951   1.650   4.112   6.404  1.7128 -1.7768  1.3859
14512TIP3    H264952   1.694   4.251   6.365 -1.0355 -1.4338 -0.8035
14513TIP3   OH264953   4.670   4.250  16.120 -0.1050  0.0876 -0.3727
14513TIP3    H164954   4.595   4.205  16.080  0.6125 -0.5133 -1.0967
14513TIP3    H264955   4.722   4.179  16.158 -0.0564  0.5308  0.3901
14514TIP3   OH264956   3.862   5.902   5.529 -0.1590  0.4624 -0.0660
14514TIP3    H164957   3.808   5.979   5.510  1.0437  1.3145 -0.1390
14514TIP3    H264958   3.814   5.829   5.491 -1.3188  1.1729 -0.0129
14515TIP3   OH264959   4.658   6.502   3.475 -0.1290 -0.0936  0.7271
14515TIP3    H164960   4.645   6.544   3.560  1.5021  2.3795 -0.1402
14515TIP3    H264961   4.585   6.534   3.421  0.3766  0.5935  0.4392
14516TIP3   OH264962   4.035   4.984   0.809 -0.2965 -0.4991  0.1631
14516TIP3    H164963   3.993   5.058   0.852  1.2721  0.3830  0.2428
14516TIP3    H264964   4.037   5.007   0.716  0.2813 -0.3882  0.2002
14517TIP3   OH264965   0.178   4.736  13.631 -0.3372 -0.0445  0.4085
14517TIP3    H164966   0.240   4.671  13.599  0.9033 -0.0809  2.6596
14517TIP3    H264967   0.209   4.819  13.596 -0.5619 -0.3592 -0.5711
14518TIP3   OH264968   1.133   0.136  11.309 -0.3823  0.0187  0.1871
14518TIP3    H164969   1.066   0.177  11.255 -1.1102 -0.9526  0.3327
14518TIP3    H264970   1.207   0.124  11.249  0.0005  1.8189  0.2224
14519TIP3   OH264971   1.307   5.189   5.314 -0.1660 -0.7079  0.2383
14519TIP3    H164972   1.298   5.247   5.238  2.0365  2.1361  1.9360
14519TIP3    H264973   1.221   5.193   5.357 -0.8620 -0.8924 -1.0748
14520TIP3   OH264974   3.202   5.357   3.422  0.0553  0.3840 -0.3654
14520TIP3    H164975   3.257   5.415   3.475  0.8826 -1.4863  0.9328
14520TIP3    H264976   3.223   5.380   3.332  0.7200  1.7512  0.1062
14521TIP3   OH264977   2.680   4.607   0.965  0.5032 -0.2416 -0.4663
14521TIP3    H164978   2.755   4.595   0.906  0.9925 -0.2504  0.1423
14521TIP3    H264979   2.663   4.519   0.999  1.8310  0.1067  1.2943
14522TIP3   OH264980   0.488   0.949   2.386 -0.1197  0.0555  0.6487
14522TIP3    H164981   0.425   0.880   2.363  0.6671 -0.5716  0.3494
14522TIP3    H264982   0.511   0.989   2.302  1.2508 -0.9328  0.5076
14523TIP3   OH264983   6.667   5.407  15.297  0.8064  0.2497  0.0234
14523TIP3    H164984   6.665   5.336  15.361 -0.7023  0.6594  0.4803
14523TIP3    H264985   6.578   5.410  15.262 -0.1718  3.8799  2.2824
14524TIP3   OH264986   0.044   0.690  11.219 -0.1258  0.5240 -0.2859
14524TIP3    H164987   0.018   0.631  11.148  0.8958  0.4289 -0.5985
14524TIP3    H264988   0.113   0.744  11.182 -0.5925  1.4777  0.2064
14525TIP3   OH264989   4.673   4.818   5.021  0.4325 -0.6101  0.3986
14525TIP3    H164990   4.663   4.854   5.110 -0.2433  1.2548 -0.3896
14525TIP3    H264991   4.643   4.727   5.029  0.9758 -0.6689  2.2071
14526TIP3   OH264992   4.577   3.417  15.790  0.3539 -0.2314 -0.2061
14526TIP3    H164993   4.518   3.448  15.859  0.2323 -1.2919  0.1875
14526TIP3    H264994   4.528   3.430  15.709  2.1814  5.4883 -0.8425
14527TIP3   OH264995   1.390   0.550  13.333  0.0426  0.1698  0.9724
14527TIP3    H164996   1.428   0.634  13.305 -0.2074  0.1522  0.5781
14527TIP3    H264997   1.465   0.500  13.365  0.2598  0.3783  0.7959
14528TIP3   OH264998   6.304   1.347  15.649 -0.3200 -0.7524 -0.3950
14528TIP3    H164999   6.395   1.363  15.626 -0.3386  0.3404  0.2554
14528TIP3    H265000   6.266   1.307  15.570  0.1448  0.9190 -1.4995
14529TIP3   OH265001   3.205   2.556  13.456  0.1902 -0.1583  0.5442
14529TIP3    H165002   3.253   2.501  13.517 -0.7323  0.3589  1.7707
14529TIP3    H265003   3.274   2.604  13.409  0.9277 -0.9147  0.8112
14530TIP3   OH265004   5.989   3.355  17.151 -0.0309 -0.6248  0.6028
14530TIP3    H165005   6.064   3.410  17.128 -0.2458  0.2484  1.8610
14530TIP3    H265006   5.913   3.402  17.116 -0.0225 -1.4461 -0.5623
14531TIP3   OH265007   3.213   0.183  11.869 -0.1925  0.2517 -0.0065
14531TIP3    H165008   3.298   0.183  11.914 -0.9638 -0.2274  1.5097
14531TIP3    H265009   3.233   0.218  11.782  1.2474  1.8134  0.8745
14532TIP3   OH265010   5.630   0.624  12.961 -0.5557 -0.1957  0.0581
14532TIP3    H165011   5.667   0.570  13.030 -1.6219  1.8802  2.4267
14532TIP3    H265012   5.705   0.652  12.908  0.6129 -0.1646  1.6665
14533TIP3   OH265013   2.566   4.776  14.401 -0.0410  0.0750  0.1623
14533TIP3    H165014   2.613   4.815  14.328  1.3629 -1.7518  0.0113
14533TIP3    H265015   2.512   4.846  14.435  0.1511  1.2916 -1.8917
14534TIP3   OH265016   5.832   5.937  14.189  0.2350  0.3882  0.2272
14534TIP3    H165017   5.830   5.995  14.265 -1.9626 -0.6957  1.1032
14534TIP3    H265018   5.754   5.960  14.139 -0.8533 -1.9267  0.7482
14535TIP3   OH265019   0.987   5.663   2.531  0.0901 -0.1650  0.1694
14535TIP3    H165020   1.022   5.675   2.619  2.3202  1.9800 -0.8959
14535TIP3    H265021   1.004   5.746   2.487 -3.6753 -0.0586 -1.4877
14536TIP3   OH265022   5.963   4.325  15.558 -0.1842 -0.2469  0.2079
14536TIP3    H165023   5.952   4.408  15.510 -1.4800 -0.3374  0.3175
14536TIP3    H265024   5.921   4.260  15.503  2.3117 -1.1975 -0.7201
14537TIP3   OH265025   6.325   3.678   3.799 -0.4866  0.1594  0.8716
14537TIP3    H165026   6.264   3.618   3.841  1.2284  0.4161  4.0040
14537TIP3    H265027   6.390   3.698   3.866  2.5207  0.6913 -1.9303
14538TIP3   OH265028   0.941   2.044  11.605 -0.3243  0.1139  0.4185
14538TIP3    H165029   0.875   1.975  11.604  1.3400 -1.5996 -2.1519
14538TIP3    H265030   0.933   2.087  11.520  1.7470 -0.0955  0.0544
14539TIP3   OH265031   2.990   4.890  16.770 -0.0173  0.1474 -0.3250
14539TIP3    H165032   2.935   4.812  16.766  0.1648  0.0193 -0.3457
14539TIP3    H265033   2.947   4.952  16.712 -0.4800  0.2666  0.1352
14540TIP3   OH265034   3.293   4.867   4.576  0.1177  0.3004  0.0691
14540TIP3    H165035   3.210   4.842   4.616 -1.1399  2.3565 -1.0545
14540TIP3    H265036   3.326   4.786   4.538 -1.2349 -0.6337  0.7704
14541TIP3   OH265037   3.985   0.590   4.889 -0.1754  0.1188 -0.2577
14541TIP3    H165038   3.921   0.521   4.902 -0.1681 -0.1306 -1.4370
14541TIP3    H265039   4.070   0.547   4.897 -0.1707  0.0046 -0.8763
14542TIP3   OH265040   0.174   5.792  16.647  0.6872 -0.2188 -0.4369
14542TIP3    H165041   0.226   5.860  16.604 -0.1311  0.2935 -0.6485
14542TIP3    H265042   0.083   5.816  16.628  0.3631 -0.9571  0.1218
14543TIP3   OH265043   4.222   5.592  10.983  0.6191 -0.7703 -0.3212
14543TIP3    H165044   4.191   5.569  10.895  0.0834  0.2141 -0.4138
14543TIP3    H265045   4.164   5.544  11.042  3.1772 -4.3128 -0.4058
14544TIP3   OH265046   4.889   3.067   2.258  0.1270 -0.0449 -0.1861
14544TIP3    H165047   4.934   2.984   2.243  0.4466  0.0426  0.2821
14544TIP3    H265048   4.871   3.068   2.352  1.5864  1.1436  0.1200
14545TIP3   OH265049   2.933   2.455   1.918  0.0083 -0.3046 -0.6177
14545TIP3    H165050   2.980   2.511   1.856  0.6000  2.2635  1.9763
14545TIP3    H265051   2.995   2.385   1.938 -0.1366 -1.0948 -2.7006
14546TIP3   OH265052   2.078   4.639  12.837  0.2398  0.1917 -0.2400
14546TIP3    H165053   2.049   4.548  12.829  1.0122  0.0186 -1.2886
14546TIP3    H265054   2.008   4.682  12.885 -1.2121 -0.4797 -1.6651
14547TIP3   OH265055   4.267   5.257   5.794  0.2458 -0.1578  0.0654
14547TIP3    H165056   4.225   5.171   5.781 -1.5328  0.6165  0.3776
14547TIP3    H265057   4.213   5.300   5.860  1.3078  1.0861  0.1559
14548TIP3   OH265058   2.748   2.900  14.861  0.2980 -0.0852 -0.2351
14548TIP3    H165059   2.699   2.938  14.788 -1.1628 -2.5809 -0.6658
14548TIP3    H265060   2.839   2.905  14.834 -0.0495  0.9142 -1.2811
14549TIP3   OH265061   0.027   3.016   4.171  0.2644  0.5172 -0.0073
14549TIP3    H165062   0.103   2.987   4.222  0.0829  1.9400  1.1269
14549TIP3    H265063   0.045   3.108   4.151  0.4554 -0.0569 -2.8202
14550TIP3   OH265064   4.246   6.594   5.094  0.1454  0.2519 -0.0556
14550TIP3    H165065   4.209   6.682   5.083 -2.4482 -0.6514  0.5956
14550TIP3    H265066   4.239   6.554   5.007 -0.2251  0.1551  0.0176
14551TIP3   OH265067   1.503   1.277   5.892  0.2950  0.0368  0.0400
14551TIP3    H165068   1.443   1.332   5.942 -1.2566 -0.9063 -0.7090
14551TIP3    H265069   1.466   1.189   5.896  1.8050 -0.6550 -0.2015
14552TIP3   OH265070   3.701   5.925  14.396  0.0230 -0.4360  0.1643
14552TIP3    H165071   3.796   5.925  14.413  0.5677 -0.9444 -2.5022
14552TIP3    H265072   3.670   6.005  14.439  1.3279 -1.0300  2.4256
14553TIP3   OH265073   0.132   1.646  15.897 -0.2534  0.5136 -0.3518
14553TIP3    H165074   0.151   1.717  15.836 -2.1455 -0.2001 -1.8460
14553TIP3    H265075   0.190   1.574  15.869  1.1935  1.1991  0.7588
14554TIP3   OH265076   3.282   2.396  16.699 -0.1183  0.1509  0.1493
14554TIP3    H165077   3.339   2.441  16.761  1.7163  0.1836 -1.4507
14554TIP3    H265078   3.342   2.359  16.634 -1.7896 -1.8371 -0.3776
14555TIP3   OH265079   2.713   1.952   3.295 -0.0148  0.3123  0.2725
14555TIP3    H165080   2.679   2.021   3.238 -0.5948 -0.0741  0.1387
14555TIP3    H265081   2.667   1.873   3.266  1.4438 -0.3558 -0.3264
14556TIP3   OH265082   1.053   2.155  15.549  0.2323  0.1174  0.3456
14556TIP3    H165083   0.962   2.173  15.573  1.1011  5.3816  0.9609
14556TIP3    H265084   1.056   2.169  15.455  0.2361 -1.6351  0.0487
14557TIP3   OH265085   5.547   3.377  10.305  0.3154 -0.0535  0.0307
14557TIP3    H165086   5.479   3.315  10.279 -0.7896  0.9314  0.4596
14557TIP3    H265087   5.603   3.329  10.364 -1.5877 -0.1779  1.8467
14558TIP3   OH265088   3.642   4.697  12.047 -0.7021  0.2642 -0.0738
14558TIP3    H165089   3.582   4.622  12.050  0.1391 -0.5085 -1.3476
14558TIP3    H265090   3.652   4.715  11.954  3.4535 -1.6877 -0.1939
14559TIP3   OH265091   5.915   1.212  15.528 -0.5868  0.0429 -0.2125
14559TIP3    H165092   5.850   1.279  15.506 -0.0354  0.3798 -0.8481
14559TIP3    H265093   5.872   1.129  15.506 -0.4645  0.3099 -1.5581
14560TIP3   OH265094   4.485   0.946  12.292 -0.1802  0.1865 -0.5057
14560TIP3    H165095   4.573   0.967  12.261  0.2128  1.0168  1.0872
14560TIP3    H265096   4.440   1.030  12.297 -0.2064  0.1009  1.1690
14561TIP3   OH265097   6.135   0.276   3.812  0.2598 -0.2361  0.3120
14561TIP3    H165098   6.139   0.250   3.720 -1.0222 -0.4655  0.3027
14561TIP3    H265099   6.109   0.197   3.859 -0.3965  0.1973  0.7017
14562TIP3   OH265100   1.188   4.924   0.422  0.3264  0.2644 -0.2527
14562TIP3    H165101   1.175   4.934   0.328  1.2592  1.4670 -0.2863
14562TIP3    H265102   1.206   4.831   0.435  0.0499  0.0644 -1.2288
14563TIP3   OH265103   4.730   2.362  14.688 -0.3098 -0.3471 -0.2783
14563TIP3    H165104   4.811   2.412  14.673  0.7592 -1.8453  0.2808
14563TIP3    H265105   4.732   2.293  14.621 -0.6956 -0.8979  0.2732
14564TIP3   OH265106   2.333   2.453  11.691  0.2107 -0.8609 -0.2690
14564TIP3    H165107   2.244   2.437  11.722  0.1888  1.3475  0.9901
14564TIP3    H265108   2.386   2.459  11.770  1.0971 -0.1067 -0.8870
14565TIP3   OH265109   1.938   5.234   0.478  0.2854 -0.3978 -0.5116
14565TIP3    H165110   1.977   5.161   0.526  1.3550 -0.1659 -1.0025
14565TIP3    H265111   1.906   5.195   0.396  1.1936 -0.2609 -0.9400
14566TIP3   OH265112   2.948   4.067  13.577  0.0456  0.3730  0.2046
14566TIP3    H165113   2.920   4.062  13.668 -0.4543  2.2676  0.2091
14566TIP3    H265114   2.871   4.098  13.530  0.1366 -1.1115 -0.9720
14567TIP3   OH265115   5.172   4.572  12.295 -0.7886  0.1078  0.3277
14567TIP3    H165116   5.095   4.515  12.288 -1.1145  0.2329  2.3380
14567TIP3    H265117   5.208   4.575  12.206 -2.7353 -0.4594 -0.5282
14568TIP3   OH265118   2.611   4.927  11.139  0.3802  0.4598 -0.5805
14568TIP3    H165119   2.581   4.840  11.113 -0.9533 -0.8394  4.1942
14568TIP3    H265120   2.532   4.980  11.144  0.2567  0.1856  1.7836
14569TIP3   OH265121   5.237   1.211   2.546 -0.6023 -0.1824 -0.5789
14569TIP3    H165122   5.182   1.226   2.623 -0.2020  2.0298 -0.6381
14569TIP3    H265123   5.299   1.143   2.572 -1.9959 -1.1863  0.2019
14570TIP3   OH265124   1.780   5.187   4.127  0.3351 -0.1175  0.2142
14570TIP3    H165125   1.725   5.138   4.188  0.7744  0.8435  1.4264
14570TIP3    H265126   1.737   5.176   4.042 -0.9035 -0.5932  0.8761
14571TIP3   OH265127   4.861   5.446   2.331 -0.0709 -0.1534 -0.4122
14571TIP3    H165128   4.869   5.352   2.313  1.2998 -0.5878  1.9611
14571TIP3    H265129   4.939   5.466   2.383 -1.9220  1.5673  1.8976
14572TIP3   OH265130   4.823   2.643  11.356  0.2679  0.1555 -0.3566
14572TIP3    H165131   4.906   2.681  11.327  0.7974 -2.0328 -2.0209
14572TIP3    H265132   4.800   2.691  11.436  2.8144  1.2111 -0.1820
14573TIP3   OH265133   1.245   5.916   5.113  0.0335 -0.6349  0.6074
14573TIP3    H165134   1.168   5.913   5.170 -2.1831  0.3415 -2.1029
14573TIP3    H265135   1.278   6.006   5.122 -0.2682 -0.5045  0.4319
14574TIP3   OH265136   0.267   2.736   4.990  0.3845 -0.2848  0.1492
14574TIP3    H165137   0.311   2.711   5.071  0.6055 -1.5356 -0.3481
14574TIP3    H265138   0.338   2.750   4.927  0.2409  1.0939  0.2571
14575TIP3   OH265139   1.533   3.602   1.034  0.4512 -0.1537  0.0845
14575TIP3    H165140   1.584   3.527   1.065  1.7365  1.1054  1.1948
14575TIP3    H265141   1.567   3.619   0.946  1.1136 -0.0742  0.3456
14576TIP3   OH265142   5.576   5.618  16.358 -1.0179 -0.1984  0.2384
14576TIP3    H165143   5.614   5.698  16.321 -0.3800  1.0455  3.3238
14576TIP3    H265144   5.497   5.648  16.403 -1.5442 -1.5620  0.2530
14577TIP3   OH265145   6.484   1.091  13.068 -0.5287  0.3791  0.3917
14577TIP3    H165146   6.390   1.100  13.054 -0.6970 -0.0491  1.1613
14577TIP3    H265147   6.506   1.008  13.025 -0.9036 -0.5558  1.9299
14578TIP3   OH265148   1.960   2.620   0.182  0.6601 -0.6186 -0.7703
14578TIP3    H165149   2.031   2.669   0.223  1.5470 -2.3067 -0.1759
14578TIP3    H265150   1.881   2.667   0.207  1.2067 -1.1250  2.3685
14579TIP3   OH265151   6.530   3.500   3.337  0.3368  0.2484  0.4658
14579TIP3    H165152   6.523   3.404   3.338  0.8018  0.2152  1.0872
14579TIP3    H265153   6.494   3.525   3.252 -2.0908 -0.2987  1.2679
14580TIP3   OH265154   0.715   1.638  16.375  0.5470 -0.0530  0.1739
14580TIP3    H165155   0.774   1.660  16.302  0.4066  0.0646  0.0956
14580TIP3    H265156   0.755   1.561  16.415  2.1013  1.4395  1.6524
14581TIP3   OH265157   3.614   0.034  16.542  0.3272  0.0667  0.7178
14581TIP3    H165158   3.653   0.024  16.455 -1.2368 -1.1461  0.0978
14581TIP3    H265159   3.522   0.009  16.529 -1.0897  4.0395  1.7879
14582TIP3   OH265160   6.277   1.818  15.644  0.1588 -0.3563  0.0189
14582TIP3    H165161   6.216   1.890  15.661 -1.4733 -1.7437  0.2798
14582TIP3    H265162   6.243   1.777  15.565  1.4605 -0.4690 -0.5068
14583TIP3   OH265163   2.412   1.302  16.435 -0.0001  0.3393 -0.0806
14583TIP3    H165164   2.380   1.276  16.349  0.6305  0.2645 -0.2943
14583TIP3    H265165   2.420   1.397  16.430  2.4667  0.1545 -0.9822
14584TIP3   OH265166   4.266   2.992   3.743 -0.1698 -0.0351 -0.2672
14584TIP3    H165167   4.202   2.938   3.698  0.6181 -0.6458 -0.6794
14584TIP3    H265168   4.308   2.934   3.806 -1.8007  0.9816  1.9257
14585TIP3   OH265169   0.547   5.273   0.638 -0.4093 -0.3230  0.1672
14585TIP3    H165170   0.514   5.276   0.548 -2.1729  0.3186  0.8161
14585TIP3    H265171   0.504   5.196   0.677 -1.1543  0.5022  1.0128
14586TIP3   OH265172   1.874   2.197  15.272  0.0349 -0.7020  0.2961
14586TIP3    H165173   1.882   2.209  15.366 -0.9056  0.2159  0.2786
14586TIP3    H265174   1.910   2.276  15.234 -2.1638  0.2562  0.0203
14587TIP3   OH265175   4.558   2.110  12.217 -0.6072 -0.6086  0.9405
14587TIP3    H165176   4.530   2.043  12.278 -2.6576 -0.7690 -0.0784
14587TIP3    H265177   4.583   2.062  12.138 -0.7603 -0.2715  0.6795
14588TIP3   OH265178   6.650   6.486   1.204 -0.2535  0.3776 -0.2998
14588TIP3    H165179   6.642   6.558   1.266  0.8376 -0.2540  0.6054
14588TIP3    H265180   6.616   6.521   1.122 -0.3883  1.6944  0.3004
14589TIP3   OH265181   0.798   5.091   4.426 -0.6933  0.1400  0.2535
14589TIP3    H165182   0.757   5.017   4.471  1.4975 -1.3653 -0.0443
14589TIP3    H265183   0.777   5.167   4.480 -1.3475 -1.0073  1.6854
14590TIP3   OH265184   6.363   3.245  12.938 -0.3449 -1.0199  0.4095
14590TIP3    H165185   6.289   3.185  12.951 -1.2452  0.0999  0.5239
14590TIP3    H265186   6.365   3.262  12.844 -0.2477 -1.0102  0.4123
14591TIP3   OH265187   0.516   2.966  10.565  0.7157 -0.1896  0.4837
14591TIP3    H165188   0.478   3.023  10.632 -0.9242 -0.1361 -0.4608
14591TIP3    H265189   0.505   3.014  10.483  0.5089 -1.2836 -0.1495
14592TIP3   OH265190   3.379   5.502  12.259 -0.1555  0.9063 -0.0174
14592TIP3    H165191   3.337   5.496  12.173 -0.7195 -1.1335  0.3416
14592TIP3    H265192   3.312   5.475  12.321  0.7185  0.7744  0.9062
14593TIP3   OH265193   0.244   0.109   1.968  0.0340 -0.1258 -0.2377
14593TIP3    H165194   0.233   0.123   2.062  1.7796  0.4990 -0.1032
14593TIP3    H265195   0.217   0.192   1.928  1.9313  0.6351 -0.0526
14594TIP3   OH265196   1.575   6.088  14.496  0.3380  0.0132 -0.1839
14594TIP3    H165197   1.649   6.028  14.483  1.4667  1.3213 -0.0736
14594TIP3    H265198   1.501   6.031  14.514  1.2608 -1.3634 -0.5629
14595TIP3   OH265199   0.891   5.215  15.947 -0.7982  0.4637  0.2797
14595TIP3    H165200   0.930   5.278  16.008  0.3015 -2.2252  2.5597
14595TIP3    H265201   0.798   5.214  15.970 -0.6628  0.5902  0.8585
14596TIP3   OH265202   1.102   5.672  16.219 -0.1734  0.1470 -0.3217
14596TIP3    H165203   1.191   5.693  16.193  0.2066 -0.5311  0.3721
14596TIP3    H265204   1.047   5.731  16.168  0.6685  0.5539 -0.7765
14597TIP3   OH265205   1.427   0.729  14.616  0.6903 -0.1092 -0.0695
14597TIP3    H165206   1.367   0.672  14.568  2.1373 -0.7892 -1.1498
14597TIP3    H265207   1.453   0.795  14.551  0.5589  0.6064  0.5967
14598TIP3   OH265208   2.971   0.911   2.182 -0.2817  0.2137 -0.4869
14598TIP3    H165209   2.932   0.935   2.266  0.9114  0.9643 -0.1275
14598TIP3    H265210   2.900   0.867   2.134 -0.1701 -3.3604  2.1827
14599TIP3   OH265211   4.612   2.550  16.164 -0.5210 -0.2194 -0.0701
14599TIP3    H165212   4.565   2.634  16.165  1.1391  0.7735 -0.8863
14599TIP3    H265213   4.655   2.546  16.250 -0.4652 -0.1409 -0.0933
14600TIP3   OH265214   6.414   4.424  10.655  0.0567  0.0453 -0.6433
14600TIP3    H165215   6.404   4.488  10.584  3.1421 -1.2986 -2.5089
14600TIP3    H265216   6.415   4.339  10.611  0.8465 -0.9345  1.1435
14601TIP3   OH265217   1.112   5.689   3.142  0.3932 -0.2753  0.1595
14601TIP3    H165218   1.102   5.594   3.140  0.8608 -0.3328  0.4053
14601TIP3    H265219   1.065   5.716   3.221  0.6662 -0.3572  0.3527
14602TIP3   OH265220   1.609   4.077  11.322 -0.0240 -0.5845  0.2605
14602TIP3    H165221   1.624   4.073  11.416  2.0508 -1.3209 -0.0362
14602TIP3    H265222   1.576   4.165  11.306 -0.1773 -0.3722  1.6455
14603TIP3   OH265223   4.607   1.383   3.525 -0.1174  0.1894 -0.2875
14603TIP3    H165224   4.663   1.423   3.592 -1.6630 -0.9505  1.7691
14603TIP3    H265225   4.656   1.307   3.495  0.5972  0.7248 -0.5191
14604TIP3   OH265226   0.097   2.227   2.890  0.0666 -0.5142  0.5753
14604TIP3    H165227   0.167   2.281   2.853 -0.2517 -0.0470  0.6365
14604TIP3    H265228   0.044   2.289   2.942 -1.4795 -0.4615 -0.9636
14605TIP3   OH265229   0.292   1.470   1.358  0.5401 -0.1939  0.4748
14605TIP3    H165230   0.212   1.418   1.348  1.1972 -0.8327 -2.0369
14605TIP3    H265231   0.260   1.556   1.386 -1.0808 -0.3969 -0.5728
14606TIP3   OH265232   2.146   5.955   5.521  0.1418 -0.2478  0.1701
14606TIP3    H165233   2.152   6.048   5.543 -1.4183  0.1199 -0.8120
14606TIP3    H265234   2.192   5.947   5.437 -3.4664  0.6070 -2.1087
14607TIP3   OH265235   3.096   1.536   3.569 -0.9999 -0.1341 -0.3502
14607TIP3    H165236   3.075   1.483   3.492  2.3151 -1.1398 -0.6995
14607TIP3    H265237   3.094   1.474   3.642  0.6658 -0.3083 -0.4200
14608TIP3   OH265238   3.395   2.007  16.122  0.1364  0.0325 -0.1113
14608TIP3    H165239   3.326   1.957  16.077  1.2576 -1.8813  0.1883
14608TIP3    H265240   3.352   2.045  16.198 -0.6999 -0.7677 -0.1707
14609TIP3   OH265241   4.564   5.091   3.948 -0.6320 -0.0823  0.1195
14609TIP3    H165242   4.554   5.124   4.037  2.1068  1.9575 -0.1638
14609TIP3    H265243   4.537   5.164   3.892  1.1223  0.0751 -0.6111
14610TIP3   OH265244   3.225   2.970   0.737  0.5261  0.2937 -0.2011
14610TIP3    H165245   3.313   2.973   0.773 -0.6696  1.8548  2.9564
14610TIP3    H265246   3.173   2.925   0.803 -1.6705  2.5816 -0.2131
14611TIP3   OH265247   5.375   0.326   4.606 -0.5552  0.6495  0.1371
14611TIP3    H165248   5.293   0.352   4.647  0.4388  0.3973  2.4474
14611TIP3    H265249   5.350   0.265   4.537 -2.2471 -0.4266  1.6381
14612TIP3   OH265250   0.777   5.776  11.954  0.3805  0.6788 -0.0010
14612TIP3    H165251   0.761   5.793  12.046 -0.0944  1.2935 -0.1904
14612TIP3    H265252   0.690   5.761  11.917  0.5892  0.1656 -0.3003
14613TIP3   OH265253   4.448   2.471  13.648 -0.6770  0.5034  0.0134
14613TIP3    H165254   4.450   2.561  13.618  4.8180  0.5906 -0.3137
14613TIP3    H265255   4.488   2.421  13.577 -0.5068 -1.6125  1.4972
14614TIP3   OH265256   2.898   4.356  14.041 -0.1032  0.1157 -0.1114
14614TIP3    H165257   2.933   4.280  13.993  0.4732 -0.7390  1.5617
14614TIP3    H265258   2.913   4.430  13.983 -1.5366 -1.1332 -2.2221
14615TIP3   OH265259   5.051   6.128  12.593 -0.2375  0.2002 -0.6276
14615TIP3    H165260   5.103   6.153  12.669 -1.0877 -0.1528  0.0940
14615TIP3    H265261   5.029   6.211  12.550  1.2143  0.3278 -1.1666
14616TIP3   OH265262   5.952   6.036   1.304  0.3759 -0.5428 -0.1359
14616TIP3    H165263   5.989   5.948   1.310 -0.9637 -1.0733  1.1261
14616TIP3    H265264   5.990   6.084   1.378  1.6041  0.1844 -1.1910
14617TIP3   OH265265   2.779   0.090   0.327 -0.2846 -0.2624 -0.2884
14617TIP3    H165266   2.759   0.047   0.410  1.7922 -1.3625 -0.3075
14617TIP3    H265267   2.852   0.148   0.346  0.8091 -1.1884 -1.4891
14618TIP3   OH265268   0.406   2.386  12.459  0.2826  0.6058 -0.4466
14618TIP3    H165269   0.338   2.321  12.473  0.8990  0.2024  0.8145
14618TIP3    H265270   0.454   2.355  12.382 -0.3398  0.3837 -0.7503
14619TIP3   OH265271   6.209   5.310  15.389  0.0995  0.3278  0.0521
14619TIP3    H165272   6.149   5.248  15.431 -2.1746  1.8563 -0.7723
14619TIP3    H265273   6.243   5.362  15.461 -0.4718  0.1928  0.4292
14620TIP3   OH265274   2.979   2.450   2.666  0.1814 -0.1314  0.2275
14620TIP3    H165275   2.971   2.544   2.652 -1.0684 -0.4601 -1.4611
14620TIP3    H265276   2.952   2.437   2.757 -0.3925  1.0416  0.2407
14621TIP3   OH265277   5.881   5.261  16.861  0.0080  0.3556 -0.1417
14621TIP3    H165278   5.866   5.208  16.782 -0.4701  0.8205 -0.3674
14621TIP3    H265279   5.973   5.245  16.883 -0.0959 -0.4824 -0.2695
14622TIP3   OH265280   3.519   4.413   6.694  0.0066 -0.2497 -0.4382
14622TIP3    H165281   3.565   4.383   6.616 -1.3627  0.5381 -1.6019
14622TIP3    H265282   3.552   4.358   6.765  2.0027 -0.3257 -1.3789
14623TIP3   OH265283   5.442   3.218   5.521 -0.1923  0.7060 -0.0465
14623TIP3    H165284   5.505   3.196   5.590 -3.3388 -0.2259  2.7943
14623TIP3    H265285   5.423   3.310   5.535  0.8499  1.1365 -1.2692
14624TIP3   OH265286   3.338   4.922  15.681 -0.5848  1.1908 -0.0029
14624TIP3    H165287   3.362   4.900  15.591 -1.2036  0.7127 -0.0635
14624TIP3    H265288   3.415   4.965  15.717  0.9917 -1.6221  0.3206
14625TIP3   OH265289   2.010   4.028   2.774 -0.4344  0.1999  0.4066
14625TIP3    H165290   1.971   4.025   2.862 -0.6832 -0.7320  0.2840
14625TIP3    H265291   2.094   4.072   2.785 -1.7600  2.8854  0.5746
14626TIP3   OH265292   3.366   4.857  13.997 -0.2204  0.2581  0.3284
14626TIP3    H165293   3.273   4.854  13.977 -0.3415  0.7546  0.7904
14626TIP3    H265294   3.372   4.820  14.085  0.2108 -1.2097 -0.2839
14627TIP3   OH265295   3.954   2.127   6.614  0.5642 -0.9280  0.4548
14627TIP3    H165296   3.891   2.076   6.665  0.3226 -0.3013  0.8012
14627TIP3    H265297   3.900   2.189   6.564  0.8473 -1.0516 -0.0085
14628TIP3   OH265298   5.094   6.302   0.628 -0.3682 -0.1094  0.1090
14628TIP3    H165299   5.078   6.332   0.538  1.6758  1.3886  0.1715
14628TIP3    H265300   5.056   6.370   0.683 -0.6452 -0.4721  0.3680
14629TIP3   OH265301   2.595   5.783   5.630  0.0190  0.6109  0.8516
14629TIP3    H165302   2.619   5.752   5.717  2.2269  0.1451  0.1546
14629TIP3    H265303   2.674   5.827   5.598 -0.5604  0.3085 -1.1142
14630TIP3   OH265304   6.316   0.136  16.528  0.1638  0.3638 -0.2641
14630TIP3    H165305   6.322   0.113  16.435 -0.6581  2.3792 -0.8660
14630TIP3    H265306   6.246   0.082  16.562 -1.4651  1.5700 -1.5372
14631TIP3   OH265307   3.366   3.803  13.113  0.2127  0.0794  0.1304
14631TIP3    H165308   3.432   3.752  13.067  0.9369 -0.5381  1.7706
14631TIP3    H265309   3.337   3.746  13.184 -1.3721  0.7238  0.0465
14632TIP3   OH265310   1.558   2.783  15.824 -0.2353 -0.3250 -0.0217
14632TIP3    H165311   1.602   2.848  15.879 -1.8118  0.5496  0.2596
14632TIP3    H265312   1.482   2.828  15.789 -0.6373 -1.6342 -0.9265
14633TIP3   OH265313   3.261   6.237  16.554 -1.0344  0.1261 -0.1586
14633TIP3    H165314   3.241   6.208  16.465 -0.7357  2.8502 -1.2190
14633TIP3    H265315   3.182   6.281  16.584  0.0628  2.7228 -0.7327
14634TIP3   OH265316   5.030   2.947  16.888 -0.4820  0.0662 -0.4058
14634TIP3    H165317   5.046   3.035  16.922 -0.4211 -0.4801  1.0729
14634TIP3    H265318   5.017   2.959  16.794  1.1472  1.4495 -0.5092
14635TIP3   OH265319   1.256   2.178   4.736 -0.4640  0.3270 -0.7195
14635TIP3    H165320   1.178   2.157   4.685 -1.5073 -0.2403  1.0155
14635TIP3    H265321   1.323   2.198   4.671 -1.3382 -1.6759 -2.3418
14636TIP3   OH265322   5.859   2.207  13.897 -0.2136  0.0044  0.0751
14636TIP3    H165323   5.801   2.241  13.965  2.2153 -0.6471  2.6693
14636TIP3    H265324   5.907   2.284  13.865  1.9043 -0.1230  2.5615
14637TIP3   OH265325   5.510   1.718  13.071  0.7147  0.2463 -0.5671
14637TIP3    H165326   5.512   1.636  13.022  2.1939 -0.4791  0.6168
14637TIP3    H265327   5.595   1.759  13.051  0.2542  1.1906 -0.6332
14638TIP3   OH265328   2.279   4.625  16.233  0.5247  0.4486 -0.4153
14638TIP3    H165329   2.336   4.618  16.156  1.7299 -0.4900  0.5287
14638TIP3    H265330   2.301   4.548  16.286  0.9101  1.9159  1.6635
14639TIP3   OH265331   5.937   5.573  12.600 -0.0200  0.6610 -0.2810
14639TIP3    H165332   6.031   5.590  12.594  0.1316  0.8001  1.8710
14639TIP3    H265333   5.930   5.479  12.612 -0.3137  0.3634 -2.4356
14640TIP3   OH265334   6.168   4.968   2.409  0.0037  0.3352  0.7404
14640TIP3    H165335   6.177   4.974   2.314  0.0044  1.3507  0.7920
14640TIP3    H265336   6.213   4.887   2.433 -1.4762 -0.8292 -0.3027
14641TIP3   OH265337   1.021   4.137  15.103 -0.6538 -0.6040  0.0355
14641TIP3    H165338   1.027   4.197  15.029  1.1268 -0.7137  0.0503
14641TIP3    H265339   1.014   4.195  15.179  0.2257 -0.4215 -0.0160
14642TIP3   OH265340   2.929   1.875  14.262  0.2960  0.2154 -0.5565
14642TIP3    H165341   2.834   1.874  14.272  0.4335 -0.9041  1.0992
14642TIP3    H265342   2.957   1.788  14.289  1.7621  0.3002 -1.6565
14643TIP3   OH265343   2.230   2.730  15.125  0.5834  0.3625 -0.4739
14643TIP3    H165344   2.206   2.640  15.105  0.7913  0.2119 -0.0654
14643TIP3    H265345   2.166   2.758  15.191  0.0613  0.7665 -1.1354
14644TIP3   OH265346   5.910   4.283   1.032  0.2382 -0.1374  0.7966
14644TIP3    H165347   5.994   4.261   0.994  0.4682  0.3639  1.0079
14644TIP3    H265348   5.862   4.200   1.035  0.0440 -0.1271 -0.9797
14645TIP3   OH265349   6.387   3.640   4.786 -0.3499 -0.4834 -0.3152
14645TIP3    H165350   6.449   3.712   4.799 -2.8896  1.5291  2.0632
14645TIP3    H265351   6.337   3.666   4.708 -2.1409  1.2362  1.2754
14646TIP3   OH265352   5.023   6.505  11.678 -0.0930  0.5196 -0.3117
14646TIP3    H165353   5.109   6.463  11.674 -0.2095  0.2930 -0.4439
14646TIP3    H265354   5.040   6.597  11.654 -0.2280 -0.0028 -2.6094
14647TIP3   OH265355   5.288   3.473   0.456  0.5155  0.8849 -0.5244
14647TIP3    H165356   5.311   3.427   0.376 -2.2935 -3.0029  0.6074
14647TIP3    H265357   5.239   3.550   0.426  1.9526  1.1090 -2.4863
14648TIP3   OH265358   2.291   3.094  12.393 -1.1461 -0.1396 -0.0172
14648TIP3    H165359   2.315   3.115  12.302  2.6782 -4.2912 -0.3195
14648TIP3    H265360   2.217   3.035  12.385  0.4452 -2.1454 -0.7645
14649TIP3   OH265361   6.672   4.264   4.311 -0.0773 -0.1423  0.1705
14649TIP3    H165362   6.643   4.355   4.313  0.4970  0.0911 -1.1690
14649TIP3    H265363   6.613   4.222   4.248 -1.5789 -1.1873  2.1407
14650TIP3   OH265364   2.653   3.717  13.511 -0.1914  0.7145 -0.1507
14650TIP3    H165365   2.561   3.735  13.531 -0.4866  0.4046 -1.1526
14650TIP3    H265366   2.682   3.791  13.459  0.9852  2.2206  2.4354
14651TIP3   OH265367   4.342   2.553   0.135  0.0314 -0.0654  0.0903
14651TIP3    H165368   4.346   2.522   0.045  1.9501 -4.0032  1.2560
14651TIP3    H265369   4.265   2.510   0.172 -0.4698  1.1240  0.4506
14652TIP3   OH265370   4.608   0.728   4.811  0.2397  0.1321  0.1198
14652TIP3    H165371   4.524   0.771   4.824 -0.3143 -1.0894  0.8225
14652TIP3    H265372   4.624   0.680   4.892  0.6754 -1.1821 -0.7014
14653TIP3   OH265373   4.824   0.880  12.404 -0.0042 -0.4184  0.2259
14653TIP3    H165374   4.898   0.935  12.429 -0.4681  1.3099 -1.9011
14653TIP3    H265375   4.747   0.928  12.434 -0.5339  1.3213 -3.3244
14654TIP3   OH265376   5.026   3.030  13.533 -1.1026  0.7910 -0.1241
14654TIP3    H165377   4.939   3.034  13.493 -0.9291  0.8323 -0.5024
14654TIP3    H265378   5.009   3.034  13.627 -1.4811  1.3146 -0.2080
14655TIP3   OH265379   4.894   4.400  15.081 -0.2516 -0.1299  0.5691
14655TIP3    H165380   4.939   4.475  15.043  0.2506 -1.2775 -1.2373
14655TIP3    H265381   4.964   4.336  15.098 -1.0334 -1.6093 -1.4678
14656TIP3   OH265382   0.750   0.027  13.459 -0.4248  0.1910 -0.8193
14656TIP3    H165383   0.779  -0.023  13.382 -1.0126  1.3679 -1.8480
14656TIP3    H265384   0.655   0.031  13.450 -0.8321 -2.0271  1.5164
14657TIP3   OH265385   6.209   3.720   3.259  0.6899 -0.1232 -0.2434
14657TIP3    H165386   6.260   3.689   3.333 -0.7775 -0.3355  0.7070
14657TIP3    H265387   6.257   3.798   3.228  2.2556 -1.0256 -0.2044
14658TIP3   OH265388   6.384   2.378   1.304 -0.0431  0.4630 -0.0516
14658TIP3    H165389   6.345   2.327   1.375 -2.8123  2.3219 -0.1263
14658TIP3    H265390   6.345   2.342   1.224 -0.0723  1.0554 -0.3038
14659TIP3   OH265391   4.583   4.317  12.998  0.4052  0.0943  0.2654
14659TIP3    H165392   4.499   4.334  12.956 -0.0621  0.7035  1.3906
14659TIP3    H265393   4.644   4.377  12.955  0.1132  0.1185 -0.1136
14660TIP3   OH265394   5.689   3.919  15.150  0.2131 -0.5662 -0.8742
14660TIP3    H165395   5.740   3.845  15.183 -1.2845 -1.9803 -1.5276
14660TIP3    H265396   5.615   3.926  15.211  0.5894  0.7210 -0.5500
14661TIP3   OH265397   2.694   2.682  15.884 -0.0318  0.7223  0.1369
14661TIP3    H165398   2.626   2.621  15.913  0.2389  0.1175 -0.5104
14661TIP3    H265399   2.731   2.716  15.966 -0.0015 -0.1730  0.5010
14662TIP3   OH265400   1.996   3.335   3.820 -0.1353  0.2321 -0.1508
14662TIP3    H165401   2.043   3.359   3.900  0.7645  0.7426 -0.8057
14662TIP3    H265402   2.053   3.365   3.749  0.9110 -3.4545 -1.0982
14663TIP3   OH265403   4.977   5.810  11.844  0.1156  0.1138  0.3059
14663TIP3    H165404   4.988   5.813  11.749  1.4494  0.4371  0.4475
14663TIP3    H265405   4.916   5.882  11.863 -2.2935 -1.5942 -0.5166
14664TIP3   OH265406   1.784   6.009   2.551  0.1462  0.0287  0.3310
14664TIP3    H165407   1.693   5.980   2.559 -0.2546  0.9730 -0.6677
14664TIP3    H265408   1.779   6.090   2.501  1.5311  0.1882  0.4274
14665TIP3   OH265409   4.289   2.331  11.428 -0.3708  0.3155 -0.1924
14665TIP3    H165410   4.316   2.241  11.414 -2.2099  0.0232 -2.3859
14665TIP3    H265411   4.193   2.329  11.425 -0.4539  2.4153 -1.0763
14666TIP3   OH265412   5.794   6.193   5.329  0.2089  1.0977 -0.5609
14666TIP3    H165413   5.804   6.237   5.244 -1.0539  3.1964  0.3059
14666TIP3    H265414   5.838   6.250   5.391  0.0025  0.2492  0.3819
14667TIP3   OH265415   6.092   6.484   4.617  0.7914 -0.7050  0.3743
14667TIP3    H165416   6.145   6.561   4.598  1.0887 -0.8389  0.6487
14667TIP3    H265417   6.149   6.428   4.669 -0.0472 -0.2933  1.7887
14668TIP3   OH265418   1.382   4.959   5.188  0.0002 -0.2860  0.5072
14668TIP3    H165419   1.469   4.978   5.153 -0.1457  2.2026  1.3242
14668TIP3    H265420   1.365   5.030   5.250 -3.6161  0.7117 -1.4001
14669TIP3   OH265421   5.419   4.164   3.832  0.7056 -0.5430 -0.5037
14669TIP3    H165422   5.458   4.252   3.835  0.5072 -0.4665 -0.0666
14669TIP3    H265423   5.424   4.133   3.922  0.1876 -0.7211 -0.5315
14670TIP3   OH265424   6.486   4.250   2.124  0.3524 -0.4489  0.1068
14670TIP3    H165425   6.513   4.308   2.054  2.0498 -1.4088 -0.0985
14670TIP3    H265426   6.502   4.162   2.090 -0.7264 -1.0066  0.9537
14671TIP3   OH265427   5.717   4.131  14.512 -0.2682 -0.0200  0.2179
14671TIP3    H165428   5.740   4.091  14.428  2.6386  1.4308  0.1930
14671TIP3    H265429   5.789   4.106  14.571 -0.5775  1.5989  1.3541
14672TIP3   OH265430   6.233   5.302  11.890  0.1533  0.2917  0.1447
14672TIP3    H165431   6.327   5.299  11.872  0.2624  1.7361  0.3419
14672TIP3    H265432   6.225   5.268  11.979  0.5817  0.7574  0.3720
14673TIP3   OH265433   6.186   3.947  14.557 -0.1562  0.7733  0.2810
14673TIP3    H165434   6.196   3.879  14.624 -0.1104 -0.3034 -0.7885
14673TIP3    H265435   6.094   3.943  14.533 -0.3759  1.7855  0.9071
14674TIP3   OH265436   1.616   1.281  15.985  0.0856  0.2327 -0.1227
14674TIP3    H165437   1.524   1.307  15.987 -0.5747 -1.7551 -1.6785
14674TIP3    H265438   1.622   1.210  16.049  0.5428  0.3493 -0.0309
14675TIP3   OH265439   4.609   5.895   0.161 -0.7319  0.3508 -0.1876
14675TIP3    H165440   4.556   5.933   0.091 -1.4206 -2.8659 -1.5547
14675TIP3    H265441   4.567   5.812   0.182  2.9163 -1.7657 -0.4138
14676TIP3   OH265442   4.741   1.749   1.033 -0.2841  0.2326  0.1200
14676TIP3    H165443   4.800   1.686   1.075  1.1834 -0.8894 -3.2567
14676TIP3    H265444   4.728   1.817   1.099 -0.3243 -2.5450  3.2586
14677TIP3   OH265445   2.189   5.853   3.513 -0.4331  0.3777  0.4563
14677TIP3    H165446   2.274   5.883   3.546  1.5648 -1.9822 -2.0832
14677TIP3    H265447   2.170   5.774   3.563  0.3361 -0.6576 -0.8257
14678TIP3   OH265448   5.055   2.141  15.025  0.0041 -0.5379  0.5840
14678TIP3    H165449   5.147   2.159  15.004 -0.1452 -0.5126 -0.0758
14678TIP3    H265450   5.029   2.214  15.081 -0.2281  0.6546 -1.0101
14679TIP3   OH265451   3.322   2.284   6.557 -0.2140 -0.5081 -0.7444
14679TIP3    H165452   3.317   2.335   6.476 -0.5477 -1.2404 -1.2012
14679TIP3    H265453   3.402   2.232   6.547  0.9405  0.9557  0.3662
14680TIP3   OH265454   1.313   2.627   0.950 -0.0178 -0.0706 -0.0583
14680TIP3    H165455   1.336   2.681   1.026  0.1201  2.1973 -1.5873
14680TIP3    H265456   1.217   2.629   0.948 -0.0172 -0.0023 -0.0322
14681TIP3   OH265457   5.911   5.469   2.219  0.6271 -0.0487 -0.2950
14681TIP3    H165458   5.849   5.527   2.263  0.3828  1.0522 -1.9940
14681TIP3    H265459   5.939   5.408   2.287 -0.5672  0.8619  1.0800
14682TIP3   OH265460   2.118   4.830  15.732 -0.0880  0.4257 -0.5959
14682TIP3    H165461   2.070   4.804  15.811  1.8327 -2.9944 -0.3466
14682TIP3    H265462   2.073   4.785  15.661  1.0527 -0.5617 -0.7204
14683TIP3   OH265463   3.785   2.421  16.148  0.4739  0.0432 -0.2376
14683TIP3    H165464   3.720   2.459  16.089 -0.0997  0.1063  0.4187
14683TIP3    H265465   3.758   2.449  16.236  0.5812 -1.0855  0.1799
14684TIP3   OH265466   4.860   6.344  15.152 -0.1519 -0.2169 -0.4374
14684TIP3    H165467   4.885   6.259  15.188  0.2139  0.1654  0.2132
14684TIP3    H265468   4.838   6.325  15.061  1.2744 -0.7836 -0.6929
14685TIP3   OH265469   1.904   3.941   2.513  0.0820  0.5605 -0.2133
14685TIP3    H165470   1.981   3.940   2.569 -0.4851 -0.3607  0.5715
14685TIP3    H265471   1.846   4.006   2.552  0.8151  1.9573 -1.3439
14686TIP3   OH265472   1.044   3.301  14.439 -0.2213 -0.5524 -0.5707
14686TIP3    H165473   1.037   3.394  14.461 -0.0213 -0.9837  1.5321
14686TIP3    H265474   1.137   3.287  14.424  0.0127 -0.7628  0.9636
14687TIP3   OH265475   3.647   1.875  15.958 -0.4065 -0.1246  0.4138
14687TIP3    H165476   3.590   1.908  15.888 -0.4753 -0.1818  0.4434
14687TIP3    H265477   3.735   1.900  15.930 -0.0914 -2.6510 -1.1414
14688TIP3   OH265478   3.386   5.678  17.311 -0.3567 -0.2789  0.4333
14688TIP3    H165479   3.381   5.587  17.283 -2.2778  0.1558 -0.8180
14688TIP3    H265480   3.351   5.679  17.400  0.8084 -0.9031  0.9192
14689TIP3   OH265481   6.560   3.258  15.085  0.1316 -0.0773  0.0041
14689TIP3    H165482   6.618   3.229  15.014  0.7349  0.0326  0.4486
14689TIP3    H265483   6.548   3.180  15.139 -1.9598 -0.7301 -1.2803
14690TIP3   OH265484   1.955   1.315  16.543  0.0010  0.5730  0.6585
14690TIP3    H165485   2.026   1.362  16.588  1.1233  0.3798 -0.8509
14690TIP3    H265486   1.900   1.384  16.506 -0.2150  0.7112  1.2169
14691TIP3   OH265487   3.612   4.375   2.608 -0.0959  0.2108  0.3206
14691TIP3    H165488   3.554   4.446   2.636 -1.7460 -0.8337 -0.2757
14691TIP3    H265489   3.625   4.322   2.686  0.9510  0.9961  0.7097
14692TIP3   OH265490   2.446   2.221   0.053  0.5843 -0.0531 -0.0205
14692TIP3    H165491   2.401   2.157   0.109  0.0623  0.5549  0.2700
14692TIP3    H265492   2.375   2.266   0.007  0.8850  0.8525  0.3718
14693TIP3   OH265493   6.119   3.382  11.287  0.0539 -0.7330  0.0409
14693TIP3    H165494   6.206   3.353  11.314  0.8634  0.2837 -1.3772
14693TIP3    H265495   6.071   3.301  11.268  0.6387 -1.3058  0.9249
14694TIP3   OH265496   6.220   3.620  11.764 -0.0394  0.3848 -0.0330
14694TIP3    H165497   6.255   3.532  11.779 -2.2543 -0.3303  1.4309
14694TIP3    H265498   6.289   3.678  11.798  1.9936 -0.6192 -2.1152
14695TIP3   OH265499   4.595   1.685   5.689  0.4873 -0.2690 -0.0806
14695TIP3    H165500   4.676   1.732   5.712  1.4597 -1.2210 -1.3929
14695TIP3    H265501   4.533   1.754   5.667  0.8853  0.4852  1.0381
14696TIP3   OH265502   6.019   4.522   0.441  0.6495 -0.0695 -0.1078
14696TIP3    H165503   5.937   4.508   0.394  0.5113  1.7025 -0.4581
14696TIP3    H265504   5.993   4.524   0.533  0.3229  0.1781 -0.2011
14697TIP3   OH265505   4.552   5.204   5.366  0.8504  0.1341  0.0208
14697TIP3    H165506   4.605   5.273   5.406 -1.1355  0.2885  2.7343
14697TIP3    H265507   4.596   5.123   5.391  0.9885  0.3269  0.4226
14698TIP3   OH265508   0.630   0.700   1.767 -0.3007  0.4636  0.1498
14698TIP3    H165509   0.623   0.606   1.750  0.6415  0.9034 -3.4771
14698TIP3    H265510   0.544   0.735   1.742 -0.5448  0.6486  1.1911
14699TIP3   OH265511   3.155   1.142   2.075  0.0331 -0.3034 -0.8243
14699TIP3    H165512   3.061   1.156   2.069  0.3270  1.5695 -2.1812
14699TIP3    H265513   3.177   1.089   1.999  0.3033  1.0806 -1.7594
14700TIP3   OH265514   3.068   0.154  12.144  0.0903  0.0744 -0.2646
14700TIP3    H165515   3.087   0.192  12.058 -0.6885  0.2787 -0.3532
14700TIP3    H265516   2.991   0.099  12.129  0.7928 -1.0048  0.0105
14701TIP3   OH265517   0.272   0.101   4.809  0.0712  0.3751 -0.2204
14701TIP3    H165518   0.203   0.052   4.763 -0.6370  2.1921 -1.1798
14701TIP3    H265519   0.250   0.091   4.902  1.0901 -2.7088 -0.1867
14702TIP3   OH265520   2.425   1.729  13.026 -0.0782  0.3844  0.9293
14702TIP3    H165521   2.470   1.646  13.017 -0.0377  0.5936 -1.2902
14702TIP3    H265522   2.491   1.789  13.061 -0.3200 -0.6335  3.2987
14703TIP3   OH265523   5.094   0.342  13.949 -0.6168 -0.1147 -0.1148
14703TIP3    H165524   5.142   0.267  13.914 -1.1230 -0.8079  0.6418
14703TIP3    H265525   5.033   0.304  14.013 -2.0046  0.7533 -0.8633
14704TIP3   OH265526   6.389   6.253   1.834  0.2869  0.1938 -0.0253
14704TIP3    H165527   6.379   6.162   1.862  0.0145  0.2172 -0.0453
14704TIP3    H265528   6.357   6.255   1.744 -1.9168  0.7674  0.7037
14705TIP3   OH265529   2.131   0.990   4.488  0.0082 -0.1865  0.1860
14705TIP3    H165530   2.220   0.985   4.523  0.4004 -0.5647 -0.8374
14705TIP3    H265531   2.095   1.071   4.524  0.6334 -0.2159  0.8992
14706TIP3   OH265532   6.370   4.961   3.012 -0.1829 -0.4807 -0.1310
14706TIP3    H165533   6.407   5.022   3.077 -1.4483  1.5508 -1.2372
14706TIP3    H265534   6.443   4.944   2.952  0.5921 -1.2611  0.9695
14707TIP3   OH265535   3.427   0.722   1.705 -0.1766 -0.9340 -0.3873
14707TIP3    H165536   3.339   0.735   1.741  0.3946 -0.5418  0.9608
14707TIP3    H265537   3.473   0.804   1.723  0.5745 -1.2613 -0.7435
14708TIP3   OH265538   3.942   5.227  14.893 -0.1168  0.2114 -0.6069
14708TIP3    H165539   3.960   5.259  14.805  1.6587  0.6077 -0.1348
14708TIP3    H265540   3.869   5.281  14.924 -0.0193  0.8293 -1.4322
14709TIP3   OH265541   3.562   4.092   0.855 -0.4184 -0.2226 -0.4595
14709TIP3    H165542   3.644   4.121   0.897  0.0883 -3.4298  1.1090
14709TIP3    H265543   3.507   4.064   0.928 -1.3436 -1.7651 -1.6909
14710TIP3   OH265544   4.839   3.823  10.807  0.0775 -0.4159 -0.0688
14710TIP3    H165545   4.907   3.757  10.794 -0.4017 -1.2897  1.5573
14710TIP3    H265546   4.884   3.906  10.791  0.9860 -1.0600 -1.0158
14711TIP3   OH265547   0.678   3.718   1.054  0.7615 -0.2003 -0.3432
14711TIP3    H165548   0.762   3.692   1.015  1.4937  0.3697  0.7800
14711TIP3    H265549   0.698   3.726   1.148 -0.3190  0.9052 -0.1942
14712TIP3   OH265550   1.518   2.638  16.154 -0.0549  0.1533 -0.0054
14712TIP3    H165551   1.527   2.629  16.059 -1.4990 -0.7135 -0.0925
14712TIP3    H265552   1.424   2.646  16.168 -0.3281 -3.7520  1.6138
14713TIP3   OH265553   0.970   1.767   2.457 -0.2882  0.2597 -0.0187
14713TIP3    H165554   1.050   1.716   2.472 -0.2997  0.4349  0.7151
14713TIP3    H265555   0.917   1.750   2.535  0.0219  1.9637  0.6045
14714TIP3   OH265556   6.347   4.738   0.848  0.1676  0.4950 -0.5171
14714TIP3    H165557   6.315   4.822   0.813  1.9927  2.0327  1.2190
14714TIP3    H265558   6.390   4.696   0.774  1.4825  2.3476 -0.8836
14715TIP3   OH265559   3.946   1.667   3.448  0.1737 -0.1703  0.2007
14715TIP3    H165560   3.867   1.615   3.465  0.0132  0.2052  0.6260
14715TIP3    H265561   4.018   1.607   3.466  0.0645  0.4878  3.4710
14716TIP3   OH265562   4.259   3.563  13.022  0.1433 -0.2697  0.0061
14716TIP3    H165563   4.335   3.614  13.050  0.3913 -0.2474 -0.6913
14716TIP3    H265564   4.251   3.493  13.087  1.0076 -0.5170 -0.1537
14717TIP3   OH265565   6.146   4.159   1.873 -0.3092 -0.1206  0.1892
14717TIP3    H165566   6.102   4.229   1.920  0.5988 -0.1826  1.1636
14717TIP3    H265567   6.076   4.096   1.854 -0.6197 -0.3804  2.0067
14718TIP3   OH265568   0.050   5.901  17.242 -0.4550 -0.3386 -0.1853
14718TIP3    H165569  -0.023   5.840  17.253 -0.6488  0.0662  1.0002
14718TIP3    H265570   0.059   5.912  17.147  0.0916 -2.7619 -0.4669
14719TIP3   OH265571   4.305   4.409   3.308  0.2417  0.2469 -0.2981
14719TIP3    H165572   4.353   4.423   3.226  2.8444 -2.1149  0.6668
14719TIP3    H265573   4.227   4.360   3.281  0.3277  0.7098 -1.4747
14720TIP3   OH265574   1.110   1.641   2.773  0.0015 -0.0159  0.1898
14720TIP3    H165575   1.157   1.719   2.742  0.6661 -0.4734  0.0027
14720TIP3    H265576   1.018   1.661   2.761  0.1582  0.8493  0.4022
14721TIP3   OH265577   0.730   3.413   0.823 -0.7910  1.0791  0.3107
14721TIP3    H165578   0.693   3.364   0.897  1.1532 -1.2751 -0.1228
14721TIP3    H265579   0.776   3.487   0.863 -0.0203  0.0078  1.4761
14722TIP3   OH265580   4.792   3.383   4.851 -0.2563  0.4019  0.1838
14722TIP3    H165581   4.854   3.367   4.780 -0.7043  0.5053 -0.2389
14722TIP3    H265582   4.723   3.435   4.810 -0.9487 -0.2623  0.4760
14723TIP3   OH265583   3.828   1.836  17.286  0.7430 -0.7843  0.1038
14723TIP3    H165584   3.769   1.766  17.257 -2.8190  1.9572  0.1018
14723TIP3    H265585   3.883   1.853  17.210 -2.1886  0.0905 -2.0371
14724TIP3   OH265586   2.829   3.723  13.230  0.6169  0.3370  0.4029
14724TIP3    H165587   2.812   3.629  13.243 -2.6789  0.7429 -0.1142
14724TIP3    H265588   2.922   3.734  13.253  1.5238 -3.2573 -0.8575
14725TIP3   OH265589   3.663   0.343   0.479 -0.4402  0.3452 -0.2389
14725TIP3    H165590   3.699   0.424   0.513 -0.5547 -0.0532  0.8761
14725TIP3    H265591   3.639   0.363   0.389  1.8958  0.8156 -0.8127
14726TIP3   OH265592   3.260   3.063  17.003 -0.1203 -0.5188 -0.2475
14726TIP3    H165593   3.314   2.993  16.967 -0.3654 -1.3589  0.9537
14726TIP3    H265594   3.313   3.098  17.075  0.0702  0.6630 -0.9335
14727TIP3   OH265595   5.434   0.796  16.468 -0.1672  0.2264  0.2267
14727TIP3    H165596   5.385   0.719  16.441 -1.3849  1.2877 -0.6816
14727TIP3    H265597   5.488   0.766  16.542 -0.4412 -1.5248 -0.2501
14728TIP3   OH265598   2.644   1.466  13.847  0.1736  0.2653 -0.1968
14728TIP3    H165599   2.567   1.518  13.822  0.2259  0.3454 -0.1924
14728TIP3    H265600   2.694   1.524  13.905  0.5576  0.4477 -0.7039
14729TIP3   OH265601   0.077   4.306  12.758  0.1609  0.3623 -0.6862
14729TIP3    H165602   0.132   4.361  12.702 -0.1675  1.6303  0.1781
14729TIP3    H265603  -0.008   4.306  12.715  0.1097  0.7101 -0.5902
14730TIP3   OH265604   1.674   3.998  12.652 -0.5657 -0.2063  0.1512
14730TIP3    H165605   1.598   3.997  12.709  0.9646  1.4429  2.3800
14730TIP3    H265606   1.732   3.931  12.688  0.3127  0.6715  0.3921
14731TIP3   OH265607   2.534   0.840   1.198  0.0623  0.8343  0.2199
14731TIP3    H165608   2.529   0.782   1.122 -1.8543 -1.0252  1.6463
14731TIP3    H265609   2.623   0.827   1.231 -0.1390 -0.9627  0.1923
14732TIP3   OH265610   5.744   5.616   5.514 -0.0914  0.2404  0.2255
14732TIP3    H165611   5.749   5.555   5.440  2.4927 -0.4436  0.8833
14732TIP3    H265612   5.750   5.560   5.591 -1.9941  1.0161  0.9993
14733TIP3   OH265613   1.861   1.385   5.056 -0.1380 -0.0349 -0.2104
14733TIP3    H165614   1.787   1.393   5.116  0.2859  0.2091  0.2842
14733TIP3    H265615   1.821   1.381   4.969 -0.7765 -0.7722  0.1083
14734TIP3   OH265616   0.533   5.429  12.112  0.0876  0.0042 -0.2828
14734TIP3    H165617   0.450   5.397  12.075 -0.4002  0.6272  0.2419
14734TIP3    H265618   0.595   5.425  12.039 -0.0241 -1.8145 -0.3320
14735TIP3   OH265619   2.117   1.075   0.379 -0.1051  0.4129 -0.3754
14735TIP3    H165620   2.041   1.119   0.339 -0.1436 -1.3332 -2.4347
14735TIP3    H265621   2.079   1.014   0.442 -0.3867  0.1730 -0.7676
14736TIP3   OH265622   4.953   1.473   3.534 -0.3419  0.2077 -0.6424
14736TIP3    H165623   4.919   1.546   3.586 -1.6489  0.1965 -1.4426
14736TIP3    H265624   4.886   1.457   3.467 -0.3990 -2.1440 -0.1098
14737TIP3   OH265625   1.840   4.431   4.403 -0.4330 -0.1156  0.3949
14737TIP3    H165626   1.841   4.471   4.316  0.3924 -0.6183  0.1633
14737TIP3    H265627   1.786   4.353   4.392  0.4962 -0.7360  0.0581
14738TIP3   OH265628   2.759   1.712  15.680 -0.4114 -0.2081  0.0549
14738TIP3    H165629   2.837   1.734  15.731 -0.1584  0.3944 -0.5731
14738TIP3    H265630   2.781   1.740  15.591 -1.5262  0.4187 -0.0317
14739TIP3   OH265631   4.622   2.846   2.329 -0.2071 -0.0268  0.2945
14739TIP3    H165632   4.652   2.873   2.416  0.4860  2.2810 -0.5978
14739TIP3    H265633   4.691   2.788   2.296 -0.8812 -1.6348  1.5569
14740TIP3   OH265634   5.808   0.830   1.992 -0.2325 -0.1991 -0.3028
14740TIP3    H165635   5.774   0.918   1.977  0.4037  0.3885  1.5345
14740TIP3    H265636   5.878   0.821   1.927 -0.5864  0.4638 -0.8002
14741TIP3   OH265637   6.511   5.961  14.899 -1.0175  0.0957  0.1889
14741TIP3    H165638   6.497   5.880  14.948 -0.6786  0.5548  1.0698
14741TIP3    H265639   6.562   6.016  14.958  1.8385 -0.3233 -1.7038
14742TIP3   OH265640   4.455   0.246   2.744 -0.1733  0.5494 -0.4576
14742TIP3    H165641   4.538   0.253   2.791 -0.3998  0.5933 -0.0623
14742TIP3    H265642   4.466   0.303   2.668  0.3384  0.1711 -0.6718
14743TIP3   OH265643   4.713   3.467   1.261  0.2713 -0.4756 -0.0057
14743TIP3    H165644   4.652   3.514   1.204  0.4792 -0.7050 -0.4176
14743TIP3    H265645   4.795   3.516   1.254  0.8475 -1.5782 -1.3933
14744TIP3   OH265646   6.552   6.577  13.577 -0.0886  0.1174 -0.0873
14744TIP3    H165647   6.540   6.666  13.610  0.4007 -0.6899  2.4890
14744TIP3    H265648   6.487   6.525  13.624  1.7786 -1.3891  0.9845
14745TIP3   OH265649   1.653   1.661  12.646 -0.0588  0.2163 -0.1978
14745TIP3    H165650   1.696   1.718  12.582 -2.1565  0.8870 -1.0972
14745TIP3    H265651   1.571   1.636  12.605 -0.6874 -0.7782  1.5455
14746TIP3   OH265652   3.264   4.605  12.800  0.4213 -0.2776  0.4148
14746TIP3    H165653   3.226   4.687  12.832 -0.9763 -1.1798  1.1809
14746TIP3    H265654   3.303   4.628  12.715 -1.8383  0.7467 -0.4320
14747TIP3   OH265655   5.203   5.974   1.655  0.3967 -0.5913 -0.3369
14747TIP3    H165656   5.185   5.894   1.705  0.2623 -0.7106 -0.5781
14747TIP3    H265657   5.283   5.955   1.607  1.4578  0.0866  1.0618
14748TIP3   OH265658   1.621   6.546  15.115 -0.5581  0.6456  0.0864
14748TIP3    H165659   1.612   6.463  15.162 -2.6073 -1.9509 -4.2474
14748TIP3    H265660   1.572   6.609  15.168 -1.2277 -1.5072  2.2211
14749TIP3   OH265661   1.772   6.261   2.434  0.2902  0.0688 -0.0086
14749TIP3    H165662   1.801   6.261   2.342  2.5401 -1.8276  0.6180
14749TIP3    H265663   1.689   6.310   2.432 -0.7474 -1.4648 -3.3492
14750TIP3   OH265664   5.638   6.153  13.520  1.0306 -0.3609  0.0592
14750TIP3    H165665   5.547   6.175  13.537  0.2963 -1.0459 -2.4923
14750TIP3    H265666   5.652   6.070  13.565 -0.3834 -1.4484 -1.3847
14751TIP3   OH265667   0.137   5.147  11.439  0.2708 -0.5350 -0.4581
14751TIP3    H165668   0.079   5.218  11.413  0.3748 -0.9069 -1.7933
14751TIP3    H265669   0.219   5.165  11.393  0.9321 -0.5185  0.6692
14752TIP3   OH265670   5.140   3.280   5.629  0.7839  0.4448 -0.2546
14752TIP3    H165671   5.111   3.361   5.587  0.7160  0.7095  0.3060
14752TIP3    H265672   5.147   3.217   5.556 -0.0474  0.6965 -0.5650
14753TIP3   OH265673   4.210   5.025   0.167 -0.6683  0.6614  0.6412
14753TIP3    H165674   4.125   4.981   0.173 -0.8337  0.6340 -1.2694
14753TIP3    H265675   4.270   4.969   0.216 -1.6598  0.4877  1.6976
14754TIP3   OH265676   0.360   1.362  13.323  0.0407  0.3724  0.4596
14754TIP3    H165677   0.365   1.453  13.294  0.5237  0.6069  1.2409
14754TIP3    H265678   0.452   1.337  13.337  0.2222 -1.2384 -2.7186
14755TIP3   OH265679   6.675   2.433  16.846  0.1962 -0.1308  0.0792
14755TIP3    H165680   6.716   2.497  16.904 -1.4980  0.4982  0.6212
14755TIP3    H265681   6.602   2.480  16.805  0.4756 -0.9803 -1.4891
14756TIP3   OH265682   4.212   0.068  13.340 -0.5131 -0.4890  0.3623
14756TIP3    H165683   4.281   0.051  13.276 -0.7108 -1.3052  0.3570
14756TIP3    H265684   4.192   0.161  13.330  2.6165  0.5548  2.3528
14757TIP3   OH265685   6.681   0.266  13.693  0.0983  0.4810 -0.1557
14757TIP3    H165686   6.673   0.288  13.786  0.9222  1.3453 -0.2735
14757TIP3    H265687   6.736   0.335  13.657 -2.2138  1.5929 -1.8102
14758TIP3   OH265688   6.244   2.468   1.735  0.5598 -0.2041 -0.2349
14758TIP3    H165689   6.332   2.431   1.724  0.2440 -0.5664 -1.8165
14758TIP3    H265690   6.190   2.421   1.672 -0.3326  1.4238 -0.7393
14759TIP3   OH265691   0.479   4.822  13.090 -0.0308 -0.6656 -0.0716
14759TIP3    H165692   0.521   4.878  13.155  2.0104 -1.2680 -0.8196
14759TIP3    H265693   0.393   4.862  13.076  0.2723  0.6185  1.4910
14760TIP3   OH265694   1.418   0.037  13.577  0.0529 -0.3067 -0.1295
14760TIP3    H165695   1.367  -0.002  13.506  0.3996  0.6361 -0.9205
14760TIP3    H265696   1.412   0.131  13.561  0.3521 -0.0978  0.9533
14761TIP3   OH265697   4.606   3.607  12.565 -0.4549  0.3888  0.2188
14761TIP3    H165698   4.690   3.623  12.524 -0.7270  1.8464  0.1940
14761TIP3    H265699   4.544   3.604  12.493 -0.4140 -0.8754  0.2198
14762TIP3   OH265700   5.416   6.582  10.910 -0.0715  0.0348 -0.0751
14762TIP3    H165701   5.502   6.558  10.945 -0.1493 -0.7996 -0.4141
14762TIP3    H265702   5.412   6.677  10.918  1.0190  0.1230 -0.3458
14763TIP3   OH265703   4.504   4.331  13.294 -0.3501  0.3663  0.2461
14763TIP3    H165704   4.572   4.353  13.358  1.5790  0.4187 -1.6960
14763TIP3    H265705   4.547   4.269  13.234 -1.9070  0.6740 -1.2691
14764TIP3   OH265706   4.211   0.616   0.164  0.0380 -0.5610  0.6920
14764TIP3    H165707   4.191   0.672   0.238  0.7007 -1.6951  1.7654
14764TIP3    H265708   4.292   0.652   0.127  0.9624 -1.3148  1.9323
14765TIP3   OH265709   3.069   6.063   5.221  0.9105 -0.3600 -0.4233
14765TIP3    H165710   3.022   6.062   5.138 -0.1222 -0.2578  0.1411
14765TIP3    H265711   3.128   5.988   5.216 -0.5902 -1.5956 -0.4684
14766TIP3   OH265712   6.751   2.212   0.693  0.0372  0.3057 -0.0879
14766TIP3    H165713   6.674   2.157   0.700  0.2352  0.1665  1.2744
14766TIP3    H265714   6.809   2.181   0.762 -0.6584  3.4551  2.1236
14767TIP3   OH265715   6.536   1.087   2.131 -0.0946  0.5265 -0.2710
14767TIP3    H165716   6.631   1.075   2.129 -0.0228  1.1088 -1.0638
14767TIP3    H265717   6.514   1.091   2.223  0.4098 -1.4518 -0.0166
14768TIP3   OH265718   0.167   6.421   1.536  0.3124 -0.4152  0.9811
14768TIP3    H165719   0.161   6.408   1.631 -0.3847 -0.1351  0.9831
14768TIP3    H265720   0.086   6.382   1.502 -0.8041  1.9444  0.7730
14769TIP3   OH265721   5.147   3.840   1.504  0.8117 -0.4126 -0.1811
14769TIP3    H165722   5.225   3.878   1.546 -0.1747  1.1338  0.3473
14769TIP3    H265723   5.097   3.802   1.576  0.0741  0.4874 -0.1943
14770TIP3   OH265724   3.829   3.484  15.575  0.2803  0.0500 -0.1008
14770TIP3    H165725   3.893   3.548  15.545  0.4333 -0.3400 -0.6112
14770TIP3    H265726   3.825   3.498  15.670  0.1315  0.9767 -0.2308
14771TIP3   OH265727   3.231   4.147   2.388  0.5518  0.0879  0.0977
14771TIP3    H165728   3.163   4.205   2.355  0.9274  0.3196 -0.2773
14771TIP3    H265729   3.247   4.176   2.478 -0.5131 -0.5789  0.5276
14772TIP3   OH265730   2.621   1.210  17.308 -0.1792  0.3267 -0.7418
14772TIP3    H165731   2.625   1.250  17.394  1.1493 -2.3109  0.5548
14772TIP3    H265732   2.559   1.138  17.318  1.4737 -1.2571 -1.3320
14773TIP3   OH265733   6.308   2.695  12.197  0.6841  0.0554 -0.7268
14773TIP3    H165734   6.314   2.667  12.106 -0.1545  0.8955 -1.0587
14773TIP3    H265735   6.215   2.689  12.218  0.6831  1.1228 -0.3531
14774TIP3   OH265736   0.601   0.225  17.069 -0.1945  0.3330  0.2854
14774TIP3    H165737   0.516   0.201  17.030 -0.5734 -1.1039  1.8941
14774TIP3    H265738   0.658   0.150  17.051  0.1879  0.4959  0.7981
14775TIP3   OH265739   5.144   0.526   0.923  0.0270  0.1457  0.4431
14775TIP3    H165740   5.192   0.484   0.994 -0.6814  0.4327  1.1000
14775TIP3    H265741   5.184   0.490   0.843  0.6203 -0.4145  0.9773
14776TIP3   OH265742   5.695   5.471   1.615 -0.1244  0.7394  0.3158
14776TIP3    H165743   5.713   5.485   1.708  0.6017  2.7004 -0.0685
14776TIP3    H265744   5.627   5.535   1.593 -0.9607 -0.3230 -0.3268
14777TIP3   OH265745   4.612   3.598   6.453 -0.1845 -0.4501 -0.4538
14777TIP3    H165746   4.577   3.685   6.435  0.8836 -0.2479 -1.6697
14777TIP3    H265747   4.689   3.591   6.397  0.3645 -1.7719  0.4255
14778TIP3   OH265748   2.779   4.980  13.970  0.1635  0.2472 -0.3390
14778TIP3    H165749   2.737   4.939  13.894  1.9901 -0.9536 -0.7673
14778TIP3    H265750   2.853   5.028  13.933  0.9249 -0.1305  0.6564
14779TIP3   OH265751   6.158   0.630   2.446 -0.1102  0.5473  0.3311
14779TIP3    H165752   6.069   0.626   2.482 -0.3379  1.1270 -0.1450
14779TIP3    H265753   6.214   0.645   2.522 -0.5586  1.4562  0.4923
14780TIP3   OH265754   6.134   0.608  11.807  0.0660 -0.0781  0.1242
14780TIP3    H165755   6.146   0.686  11.753  0.1294 -0.1454  0.0409
14780TIP3    H265756   6.066   0.558  11.763  1.3978 -1.0447 -0.9386
14781TIP3   OH265757   0.195   3.847   1.479 -0.0077  0.3784 -0.1443
14781TIP3    H165758   0.182   3.814   1.390  0.3672  1.7338 -0.7393
14781TIP3    H265759   0.195   3.769   1.534 -2.4274 -0.3407 -1.0380
14782TIP3   OH265760   4.372   6.569   4.211 -0.2031  0.0990  0.1627
14782TIP3    H165761   4.412   6.545   4.128 -1.0049 -0.3732 -0.1036
14782TIP3    H265762   4.427   6.639   4.245 -1.1070  1.9009 -1.8458
14783TIP3   OH265763   0.655   6.454   3.012  0.1027 -0.3972 -0.5089
14783TIP3    H165764   0.718   6.417   3.074  1.8346  3.1054  0.0815
14783TIP3    H265765   0.683   6.420   2.926  0.9893 -1.1842  0.0728
14784TIP3   OH265766   6.325   3.707  14.741  0.5390  0.4313 -0.2986
14784TIP3    H165767   6.393   3.774  14.748  1.2933 -0.3561  0.1363
14784TIP3    H265768   6.342   3.648  14.814 -1.7275  1.1698  0.9264
14785TIP3   OH265769   4.028   1.970  13.678 -0.2505 -0.1936  0.3431
14785TIP3    H165770   4.021   2.059  13.645  0.2808 -0.3382 -0.1716
14785TIP3    H265771   4.035   1.915  13.600  1.2134 -0.5237  0.6717
14786TIP3   OH265772   2.465   4.595  12.073  0.6447 -0.2309 -0.5051
14786TIP3    H165773   2.395   4.568  12.132  0.3848 -0.0057 -0.7099
14786TIP3    H265774   2.534   4.627  12.131  0.1083  0.6696 -0.3472
14787TIP3   OH265775   4.798   5.451   1.765 -0.3696  0.0916 -0.3143
14787TIP3    H165776   4.887   5.423   1.785  0.2003  2.6324  1.0244
14787TIP3    H265777   4.743   5.397   1.822  0.4987  0.1706  0.6241
14788TIP3   OH265778   0.091   0.361  16.293  0.6804  0.1806 -0.1045
14788TIP3    H165779   0.067   0.295  16.228  1.3549  2.4454 -2.8854
14788TIP3    H265780   0.008   0.402  16.317  0.5103 -0.1571 -0.1059
14789TIP3   OH265781   2.556   3.682   1.116  0.2809 -0.7029 -0.1152
14789TIP3    H165782   2.541   3.767   1.158  0.0232 -0.4765 -0.6563
14789TIP3    H265783   2.541   3.618   1.185  0.7602 -0.2995  0.3727
14790TIP3   OH265784   0.199   1.427  15.308  0.6451  0.0457 -0.4042
14790TIP3    H165785   0.202   1.478  15.228 -0.8061 -1.7838 -1.7303
14790TIP3    H265786   0.141   1.476  15.366 -3.2756 -1.3155 -2.7595
14791TIP3   OH265787   3.611   3.713   5.750 -0.0245 -0.0180 -0.0938
14791TIP3    H165788   3.585   3.798   5.785  0.9957  1.4632 -2.6248
14791TIP3    H265789   3.609   3.725   5.655 -0.9166 -3.1883 -0.6045
14792TIP3   OH265790   2.026   4.530   1.945 -0.0604 -0.6326 -0.2885
14792TIP3    H165791   2.031   4.537   2.041  3.1395  0.4850 -0.3933
14792TIP3    H265792   2.003   4.439   1.928 -1.4801 -0.6622  1.5054
14793TIP3   OH265793   2.906   1.831  13.764  0.5257  0.2150 -0.0557
14793TIP3    H165794   2.980   1.798  13.814  2.4538  0.0743 -2.7694
14793TIP3    H265795   2.934   1.918  13.734 -0.3262  0.1071 -1.2509
14794TIP3   OH265796   5.605   1.513  10.976  0.3034 -0.0397  0.7836
14794TIP3    H165797   5.599   1.566  10.897 -1.4834 -2.6247 -0.9705
14794TIP3    H265798   5.697   1.486  10.980  0.1910 -0.8735 -1.1923
14795TIP3   OH265799   3.720   3.109   6.471  0.2109 -0.3389 -0.1064
14795TIP3    H165800   3.640   3.145   6.433  0.3056  3.2920  2.5329
14795TIP3    H265801   3.791   3.151   6.422  0.3978 -0.1920  0.2800
14796TIP3   OH265802   3.767   0.589   0.732 -0.6190  0.1692  0.2794
14796TIP3    H165803   3.826   0.538   0.788 -2.5276 -1.7800  0.6674
14796TIP3    H265804   3.683   0.587   0.778 -1.9872 -0.5822 -2.0896
14797TIP3   OH265805   1.908   1.605  13.128  0.9078 -0.9492  0.1909
14797TIP3    H165806   1.846   1.631  13.197  0.3915  1.4402 -1.0606
14797TIP3    H265807   1.983   1.663  13.140  1.2969 -1.2839 -0.5723
14798TIP3   OH265808   0.553   4.826  12.775  0.1557 -0.1192  0.2050
14798TIP3    H165809   0.638   4.863  12.798  0.3933 -1.1385  1.0801
14798TIP3    H265810   0.490   4.895  12.797  0.7914  0.9850 -1.2897
14799TIP3   OH265811   1.257   4.988   3.657 -0.0784  0.5791 -0.2895
14799TIP3    H165812   1.241   5.071   3.702  1.7403  1.0572 -0.4281
14799TIP3    H265813   1.343   5.000   3.615  0.6462 -1.6750  0.4040
14800TIP3   OH265814   1.738   4.963  15.182 -0.1545 -0.3888  0.0357
14800TIP3    H165815   1.809   4.980  15.121 -0.1656  1.0953  0.4004
14800TIP3    H265816   1.665   4.936  15.127 -0.0899  0.6889 -0.6012
14801TIP3   OH265817   6.315   2.831  14.337 -0.4004  0.3539  0.4555
14801TIP3    H165818   6.384   2.865  14.394 -0.7016  0.1581  0.9393
14801TIP3    H265819   6.234   2.868  14.372 -0.3918  2.1145 -1.2438
14802TIP3   OH265820   4.340   1.786   1.686 -0.4469  0.0467  0.2051
14802TIP3    H165821   4.388   1.756   1.609  1.0562  2.3163  0.1624
14802TIP3    H265822   4.272   1.844   1.650 -0.0926  0.6780  0.5508
14803TIP3   OH265823   3.009   6.206   2.705 -0.5561 -0.7277  0.5061
14803TIP3    H165824   3.012   6.273   2.637 -2.4812 -0.7435  0.3508
14803TIP3    H265825   3.072   6.139   2.677 -0.5544 -0.2334 -0.7038
14804TIP3   OH265826   2.173   6.532   3.572  0.2552  0.3781 -0.0348
14804TIP3    H165827   2.215   6.609   3.534  0.5975 -0.0541 -0.5480
14804TIP3    H265828   2.200   6.459   3.515  3.0763 -0.8009  2.5218
14805TIP3   OH265829   5.677   2.814  16.157  0.5884  0.3997  0.2322
14805TIP3    H165830   5.593   2.774  16.179  0.7399  0.2378  0.5159
14805TIP3    H265831   5.741   2.745  16.173  0.3701 -2.0235 -6.1339
14806TIP3   OH265832   0.750   2.374   0.359  0.9995 -0.2887  0.1001
14806TIP3    H165833   0.843   2.375   0.381  0.5050 -2.1043  2.7300
14806TIP3    H265834   0.705   2.395   0.440 -0.9283 -0.2830 -0.9011
14807TIP3   OH265835   0.747   1.892   0.174  0.4095 -0.4592  0.1680
14807TIP3    H165836   0.706   1.974   0.203  0.2598  0.0587 -1.3861
14807TIP3    H265837   0.831   1.919   0.138 -0.0623 -0.8277 -1.2807
14808TIP3   OH265838   0.210   0.004  16.274 -0.5534 -0.2002 -0.5001
14808TIP3    H165839   0.279   0.070  16.273 -0.5944 -0.0990  1.2078
14808TIP3    H265840   0.170   0.010  16.187 -0.2788  1.7267 -0.5336
14809TIP3   OH265841   3.575   4.392   3.412  0.2802 -0.2760 -0.5815
14809TIP3    H165842   3.530   4.472   3.386  0.6457  1.4190  3.3794
14809TIP3    H265843   3.504   4.332   3.437  0.0777 -0.0853 -0.6926
14810TIP3   OH265844   5.776   5.590  13.570  0.9094 -0.3717 -0.0810
14810TIP3    H165845   5.825   5.656  13.521  1.1841  0.7939  1.6732
14810TIP3    H265846   5.711   5.640  13.619 -0.0028 -1.5996  0.0072
14811TIP3   OH265847   4.832   1.900   6.083 -0.4940 -0.2816 -0.4714
14811TIP3    H165848   4.801   1.990   6.070  0.2168  0.1512  0.6963
14811TIP3    H265849   4.756   1.854   6.118 -0.6989  0.0080 -0.5283
14812TIP3   OH265850   1.396   6.191   2.481  0.0826 -0.5132 -0.3049
14812TIP3    H165851   1.407   6.273   2.530 -1.8161 -1.5520  2.0807
14812TIP3    H265852   1.302   6.173   2.485  0.4225 -2.6985 -0.9412
14813TIP3   OH265853   0.066   4.926   0.663  0.4433 -0.0248 -0.6151
14813TIP3    H165854  -0.029   4.914   0.663  0.2809  1.1227  0.4145
14813TIP3    H265855   0.079   5.017   0.688  1.8173 -0.0961 -0.9973
14814TIP3   OH265856   5.003   2.798  16.244  0.0314 -0.3482  0.3551
14814TIP3    H165857   4.961   2.780  16.160  0.7033  2.3042 -0.6661
14814TIP3    H265858   5.093   2.768  16.233  0.2828  0.5375 -0.1521
14815TIP3   OH265859   2.499   1.783  15.724 -0.3912 -0.0446  0.3166
14815TIP3    H165860   2.591   1.760  15.716 -0.3893  0.2206 -0.4812
14815TIP3    H265861   2.460   1.756  15.641 -1.0944 -0.4284  0.7630
14816TIP3   OH265862   1.494   0.607  14.135  0.4045 -0.0871  0.6555
14816TIP3    H165863   1.534   0.691  14.156  1.3315  0.0159 -1.3173
14816TIP3    H265864   1.422   0.628  14.076 -0.4924 -0.5636  1.5409
14817TIP3   OH265865   3.586   6.124   1.438  0.4941  0.4988 -0.4444
14817TIP3    H165866   3.658   6.098   1.381  1.0983  2.0341 -0.4298
14817TIP3    H265867   3.566   6.214   1.412 -1.0715  0.2818 -0.0872
14818TIP3   OH265868   6.456   1.366   2.965  0.1777  0.1087  0.0239
14818TIP3    H165869   6.478   1.346   3.056  0.5276  2.1222  0.4140
14818TIP3    H265870   6.413   1.451   2.968 -2.0076 -0.8626 -1.4512
14819TIP3   OH265871   2.462   3.828  17.003 -0.0117  0.1628  0.4123
14819TIP3    H165872   2.455   3.922  17.016  0.4196  0.0753  1.3063
14819TIP3    H265873   2.547   3.804  17.041 -0.3229 -0.6560  0.6134
14820TIP3   OH265874   4.345   1.616   4.957  0.3171 -0.0649 -0.0073
14820TIP3    H165875   4.278   1.655   4.901 -1.1855  0.1960  1.8434
14820TIP3    H265876   4.427   1.658   4.931 -0.1567 -0.5694 -2.5137
14821TIP3   OH265877   5.927   2.733   4.340 -0.0545 -0.0686  0.2283
14821TIP3    H165878   5.921   2.649   4.387  1.1995 -0.0125  0.5168
14821TIP3    H265879   6.010   2.728   4.293 -0.8525  0.2642 -1.2732
14822TIP3   OH265880   5.064   5.015   0.518 -0.2360  0.4994 -0.3913
14822TIP3    H165881   5.024   5.102   0.526  0.0514  0.6144 -0.1598
14822TIP3    H265882   5.025   4.964   0.588 -1.0008  0.1991 -1.0180
14823TIP3   OH265883   3.001   0.763   2.986 -0.2416  0.3183 -0.1918
14823TIP3    H165884   3.046   0.682   2.959  1.6392  1.3686 -0.3764
14823TIP3    H265885   3.025   0.827   2.919  1.2830  1.9461  1.7684
14824TIP3   OH265886   3.456   0.137   1.330  0.1139 -0.5927 -0.2552
14824TIP3    H165887   3.409   0.061   1.297 -0.1588 -0.5859  0.1033
14824TIP3    H265888   3.407   0.162   1.409  0.6979 -0.5621  0.0989
14825TIP3   OH265889   6.369   4.590  13.157  0.1590  0.0058 -0.6625
14825TIP3    H165890   6.315   4.629  13.225 -1.4113 -0.9498 -1.3204
14825TIP3    H265891   6.412   4.515  13.200 -1.3755 -1.0253 -0.8480
14826TIP3   OH265892   0.319   5.990   0.553 -0.1843 -0.3577 -0.4790
14826TIP3    H165893   0.235   5.943   0.543  0.3137 -1.0581 -1.5055
14826TIP3    H265894   0.304   6.048   0.627 -2.1910  0.8706 -1.7511
14827TIP3   OH265895   5.446   5.813  16.506 -0.7299  0.2205 -0.2980
14827TIP3    H165896   5.491   5.819  16.590 -1.8064  0.7790  0.2691
14827TIP3    H265897   5.376   5.878  16.512 -0.6424  0.4907 -1.7501
14828TIP3   OH265898   0.848   1.882   0.530 -0.9789  0.0111 -0.0485
14828TIP3    H165899   0.905   1.818   0.572  0.9289  1.1610 -0.7542
14828TIP3    H265900   0.791   1.830   0.473 -0.2302 -1.1168  0.1960
14829TIP3   OH265901   1.542   6.388   1.898  0.0370  0.0913 -0.4051
14829TIP3    H165902   1.634   6.413   1.905 -0.1937  0.7341  0.4375
14829TIP3    H265903   1.530   6.322   1.967 -0.4951  1.1507  0.5506
14830TIP3   OH265904   3.923   6.138   2.637 -0.1349  0.1219  0.2156
14830TIP3    H165905   3.941   6.200   2.707  0.3117  0.6772 -0.3804
14830TIP3    H265906   3.998   6.145   2.578  0.4017 -1.6776  0.6057
14831TIP3   OH265907   4.297   4.245   4.443 -0.0052 -0.5809 -0.1076
14831TIP3    H165908   4.386   4.235   4.409 -0.1598 -0.0437 -0.7025
14831TIP3    H265909   4.283   4.340   4.445  0.2882 -0.5419  2.2748
14832TIP3   OH265910   4.579   0.579  17.268 -0.1908 -0.0174  0.0364
14832TIP3    H165911   4.657   0.527  17.252 -1.4992 -1.5007 -2.0212
14832TIP3    H265912   4.534   0.532  17.339 -0.3655 -0.5568 -0.4207
14833TIP3   OH265913   4.223   4.470   0.542 -0.4382  0.3564  0.1385
14833TIP3    H165914   4.226   4.443   0.633 -1.9328  1.0364  0.4169
14833TIP3    H265915   4.294   4.533   0.533 -1.5956  1.9119  1.4099
14834TIP3   OH265916   6.459   1.110  17.121  0.5480 -0.5769 -0.1425
14834TIP3    H165917   6.489   1.097  17.211  2.0890 -2.2230 -0.8336
14834TIP3    H265918   6.390   1.045  17.108  0.7142 -0.7251 -0.3033
14835TIP3   OH265919   6.460   3.085   5.996  0.3345  0.0065  0.0195
14835TIP3    H165920   6.463   3.179   6.013  1.1137 -0.2297  1.2749
14835TIP3    H265921   6.422   3.078   5.908 -1.0728  1.4110  0.4705
14836TIP3   OH265922   1.569   3.723  15.184 -0.5474  0.1004 -0.8553
14836TIP3    H165923   1.542   3.757  15.269 -0.9503 -0.1635 -0.8752
14836TIP3    H265924   1.487   3.707  15.137 -0.3693 -0.7318 -0.9099
14837TIP3   OH265925   5.853   2.431  16.459 -0.3586 -0.6135  0.4938
14837TIP3    H165926   5.910   2.358  16.484 -0.4095 -0.8724 -0.1075
14837TIP3    H265927   5.767   2.408  16.494  0.1711  0.4624  2.6592
14838TIP3   OH265928   4.414   3.626   6.213  0.0076  0.5415 -0.2838
14838TIP3    H165929   4.473   3.695   6.243 -0.0579 -0.4557  2.4169
14838TIP3    H265930   4.468   3.569   6.159  0.4419  1.8259 -1.2473
14839TIP3   OH265931   0.803   2.079  16.597 -0.4123 -0.6786  0.2264
14839TIP3    H165932   0.710   2.062  16.615 -0.8441  1.7030  0.6250
14839TIP3    H265933   0.807   2.091  16.502 -0.7961  0.5457  0.3503
14840TIP3   OH265934   6.673   2.072   6.252 -0.3661 -0.0291  0.6009
14840TIP3    H165935   6.711   1.986   6.269  1.3983  0.0505 -2.3517
14840TIP3    H265936   6.583   2.054   6.226  0.2070 -1.1108 -0.7399
14841TIP3   OH265937   3.976   3.197   1.111 -0.4186  0.4846 -0.2111
14841TIP3    H165938   4.018   3.149   1.183  0.0745 -0.6688 -1.2282
14841TIP3    H265939   3.989   3.141   1.034 -0.5030  1.9194 -1.3051
14842TIP3   OH265940   1.653   5.058  13.800 -0.7123  0.3735  0.4287
14842TIP3    H165941   1.567   5.061  13.841 -0.5906  0.0444  0.7161
14842TIP3    H265942   1.687   5.147  13.809 -0.6977  0.3126  1.0285
14843TIP3   OH265943   3.265   5.966   0.318 -0.2108 -0.1657 -0.6134
14843TIP3    H165944   3.239   6.048   0.360 -0.1300  0.4048 -1.6350
14843TIP3    H265945   3.188   5.939   0.268  0.3118  0.2055 -1.6440
14844TIP3   OH265946   4.993   4.395   5.578  0.0046 -0.4002  0.5285
14844TIP3    H165947   4.950   4.342   5.645  0.2210  1.3219  2.1086
14844TIP3    H265948   5.079   4.353   5.567 -0.7443 -1.8337 -0.1421
14845TIP3   OH265949   1.865   0.581   4.315  0.2802  0.2620  0.3745
14845TIP3    H165950   1.823   0.619   4.393 -0.7226  0.4633 -0.2519
14845TIP3    H265951   1.795   0.533   4.272  1.2732 -1.4605  0.5909
14846TIP3   OH265952   6.300   5.119   1.011  0.1842  0.1158 -0.0060
14846TIP3    H165953   6.270   5.082   0.928  1.8939  1.5883 -1.3537
14846TIP3    H265954   6.321   5.210   0.991 -0.2933  0.8147  2.3092
14847TIP3   OH265955   4.991   4.070   1.525 -0.9954 -0.0629 -0.0072
14847TIP3    H165956   4.952   4.032   1.603  0.7898  0.8629  1.4255
14847TIP3    H265957   5.070   4.019   1.510  0.3058  1.6624  0.6847
14848TIP3   OH265958   2.340   6.636   5.810 -0.5937 -0.1170 -0.3746
14848TIP3    H165959   2.374   6.674   5.729  0.7652 -0.1497  0.1618
14848TIP3    H265960   2.346   6.706   5.875  0.5808 -0.7937  0.2712
14849TIP3   OH265961   5.434   2.545  13.202  0.0381  0.3574  0.4061
14849TIP3    H165962   5.418   2.479  13.134  1.2157  0.1822  0.2714
14849TIP3    H265963   5.506   2.509  13.254 -0.2699  0.8849  1.2337
14850TIP3   OH265964   0.257   4.279  16.015 -0.4348  0.7199 -0.8543
14850TIP3    H165965   0.244   4.355  16.072 -0.5926 -0.2549  0.4474
14850TIP3    H265966   0.322   4.225  16.060 -0.6221 -0.1219 -1.5530
14851TIP3   OH265967   6.112   2.501   2.494 -0.2102  0.4265 -0.5517
14851TIP3    H165968   6.136   2.494   2.401 -1.2073  3.7947 -1.1951
14851TIP3    H265969   6.019   2.482   2.496  0.1429 -1.4036  0.1163
14852TIP3   OH265970   2.615   1.240   5.188 -0.4546  0.2580  0.4884
14852TIP3    H165971   2.589   1.332   5.195 -0.9006  0.0568  1.8651
14852TIP3    H265972   2.620   1.210   5.279  0.9177 -0.7430  0.1172
14853TIP3   OH265973   5.103   0.043  11.951  0.4703  0.4262  0.7179
14853TIP3    H165974   5.061   0.110  12.005 -1.7990 -0.2689 -0.0729
14853TIP3    H265975   5.077   0.064  11.862 -0.3476 -1.5153  0.4554
14854TIP3   OH265976   1.522   5.599  17.202  0.0680  0.2353  0.4217
14854TIP3    H165977   1.514   5.640  17.117 -0.0637  1.5318  1.0336
14854TIP3    H265978   1.614   5.610  17.226  0.1748 -0.3933  0.3298
14855TIP3   OH265979   5.424   5.603  14.085 -0.0975 -0.9672 -0.0804
14855TIP3    H165980   5.346   5.637  14.127  0.0083  0.2757 -0.8422
14855TIP3    H265981   5.496   5.625  14.145 -0.0933 -0.2842 -0.3298
14856TIP3   OH265982   1.884   6.046   1.469  0.1429  0.4313  0.4661
14856TIP3    H165983   1.951   6.008   1.525 -0.0082  0.7505  0.8679
14856TIP3    H265984   1.921   6.129   1.439  1.4704 -1.0278 -2.3297
14857TIP3   OH265985   3.692   4.667   0.338 -0.0573 -0.1511 -0.4017
14857TIP3    H165986   3.732   4.662   0.425  0.2303 -1.0452 -0.5775
14857TIP3    H265987   3.695   4.760   0.316  0.4133  0.0086  0.2902
14858TIP3   OH265988   4.945   5.788  15.382 -0.3576  0.1361  0.6254
14858TIP3    H165989   4.912   5.752  15.299  0.6428 -0.8816  0.6521
14858TIP3    H265990   4.890   5.865  15.398  0.9090  1.8024 -2.2127
14859TIP3   OH265991   2.727   4.432  12.002 -0.1238  0.3418  0.7277
14859TIP3    H165992   2.814   4.394  11.992  1.2507  3.2960  0.1912
14859TIP3    H265993   2.728   4.470  12.090 -0.7879  0.5802  0.6385
14860TIP3   OH265994   4.779   3.308   0.618 -0.3964  0.4495 -0.0960
14860TIP3    H165995   4.841   3.282   0.685  0.1372  0.4891 -0.5666
14860TIP3    H265996   4.695   3.275   0.649 -0.0769  0.0457  0.3511
14861TIP3   OH265997   6.350   1.739  16.963  0.2925 -0.1914  0.2940
14861TIP3    H165998   6.265   1.700  16.985 -0.4940  2.0585  1.6692
14861TIP3    H265999   6.413   1.689  17.014 -0.3578 -1.1420  0.1862
14862TIP3   OH266000   3.250   0.061  13.974  0.4281  0.6437  0.2880
14862TIP3    H166001   3.286   0.121  13.909  0.3798  1.2214  0.7760
14862TIP3    H266002   3.211   0.119  14.040 -0.4381  0.0599  0.3120
14863TIP3   OH266003   1.628   5.648  11.005  0.5275  0.5136  0.5926
14863TIP3    H166004   1.551   5.602  10.971  0.3513  1.2045  0.0403
14863TIP3    H266005   1.687   5.578  11.033 -1.3166 -0.0758  3.4393
14864TIP3   OH266006   0.213   5.183   4.953 -0.4521 -0.0383 -0.1572
14864TIP3    H166007   0.272   5.131   4.899  1.5051  3.0762 -1.2465
14864TIP3    H266008   0.263   5.261   4.976 -3.4275  1.7807  0.7459
14865TIP3   OH266009   6.143   1.411   1.189 -0.5912  0.2211 -0.2594
14865TIP3    H166010   6.049   1.401   1.201 -0.4560 -0.6600  0.1222
14865TIP3    H266011   6.181   1.334   1.231  0.3064  0.6168 -0.3225
14866TIP3   OH266012   3.699   4.180  15.142 -0.4567  0.4422 -0.4771
14866TIP3    H166013   3.683   4.273  15.127  0.9302  0.6851 -0.5163
14866TIP3    H266014   3.787   4.164  15.109 -0.3727 -0.7265  0.2336
14867TIP3   OH266015   5.725   5.590  11.713 -0.5811  0.3376  0.4479
14867TIP3    H166016   5.789   5.603  11.643  0.0036  0.1193  0.9304
14867TIP3    H266017   5.778   5.575  11.791 -1.1115  3.8401  1.6436
14868TIP3   OH266018   4.687   0.808   3.480 -0.1726 -0.0927  0.4439
14868TIP3    H166019   4.769   0.809   3.432  0.1442 -3.5522  0.7029
14868TIP3    H266020   4.623   0.844   3.419  1.5670  3.9544  0.6806
14869TIP3   OH266021   5.852   0.152  16.471 -0.1582 -0.6950  0.4211
14869TIP3    H166022   5.856   0.180  16.379 -2.6789 -0.9728  0.1599
14869TIP3    H266023   5.944   0.138  16.496  0.5563 -1.3334 -2.2686
14870TIP3   OH266024   4.595   1.123   4.765  0.6876  0.0476 -0.1376
14870TIP3    H166025   4.568   1.214   4.752  1.7043  0.6121  1.4282
14870TIP3    H266026   4.530   1.072   4.717  0.5576  1.6123 -1.7322
14871TIP3   OH266027   6.419   5.590  13.788  0.3515  0.3174  0.0318
14871TIP3    H166028   6.492   5.574  13.848  0.6035 -1.7478 -0.7665
14871TIP3    H266029   6.449   5.661  13.732  0.9663  0.7971  0.9399
14872TIP3   OH266030   2.869   3.229  14.719 -0.1097 -0.2602 -0.1131
14872TIP3    H166031   2.884   3.281  14.639 -1.7048  1.2272  0.4834
14872TIP3    H266032   2.807   3.282  14.770  0.0149 -1.7057  1.6136
14873TIP3   OH266033   3.899   5.875   0.886  0.7248 -0.0090 -0.3209
14873TIP3    H166034   3.871   5.907   0.800 -0.3463 -2.4106 -0.9683
14873TIP3    H266035   3.932   5.952   0.931 -1.1503  1.8556 -1.9100
14874TIP3   OH266036   2.898   2.294   6.400  0.0127  0.0221  0.6265
14874TIP3    H166037   2.877   2.227   6.464 -0.9254  0.7039  1.0571
14874TIP3    H266038   2.993   2.299   6.400  0.1349 -1.7261  0.1328
14875TIP3   OH266039   0.803   3.879  15.689  0.3338  0.4743 -0.2353
14875TIP3    H166040   0.872   3.926  15.643 -1.2240  1.5714 -1.6019
14875TIP3    H266041   0.731   3.876  15.626 -0.9466 -0.3884  1.2118
14876TIP3   OH266042   1.671   0.175   0.465 -0.7799 -0.1796 -0.4254
14876TIP3    H166043   1.690   0.197   0.556 -0.7431 -0.7750 -0.2840
14876TIP3    H266044   1.733   0.227   0.414 -0.2095 -0.5127 -0.0702
14877TIP3   OH266045   6.130   1.772   2.042  0.2097 -0.3777 -0.1533
14877TIP3    H166046   6.124   1.703   2.108  0.0335  0.8214  1.1250
14877TIP3    H266047   6.040   1.805   2.034  0.3281 -0.1527 -0.6084
14878TIP3   OH266048   3.734   0.104   4.238  0.3565 -0.2612 -0.7796
14878TIP3    H166049   3.803   0.168   4.255  0.3473 -0.1182 -1.2441
14878TIP3    H266050   3.668   0.119   4.306 -0.9196  2.0451 -2.3996
14879TIP3   OH266051   5.028   2.348   5.659 -0.1300 -0.6035  0.0669
14879TIP3    H166052   5.024   2.409   5.586  0.2007 -0.1457  0.4274
14879TIP3    H266053   5.121   2.345   5.683 -0.2590 -0.6103  0.5821
14880TIP3   OH266054   0.705   4.389   6.093  0.6429  0.5958  0.0295
14880TIP3    H166055   0.612   4.400   6.114  0.7777  0.1029  0.9445
14880TIP3    H266056   0.707   4.320   6.027  0.4560 -0.7111  1.3303
14881TIP3   OH266057   4.820   1.083  13.761 -0.4432 -0.3377  0.4942
14881TIP3    H166058   4.878   1.008  13.744  2.4348  1.8837 -0.2853
14881TIP3    H266059   4.736   1.043  13.782  0.0002 -3.7721 -2.9827
14882TIP3   OH266060   6.599   4.700  12.260 -0.4538 -0.1964 -0.0327
14882TIP3    H166061   6.623   4.608  12.251  0.5592  0.0851 -0.3727
14882TIP3    H266062   6.681   4.747  12.245 -1.0677  0.7789 -0.4023
14883TIP3   OH266063   6.516   6.295   5.775  0.0091  0.3493  0.1623
14883TIP3    H166064   6.547   6.358   5.709 -0.9234 -0.0651 -0.6973
14883TIP3    H266065   6.580   6.224   5.770 -0.4162  0.0148 -0.7915
14884TIP3   OH266066   4.063   1.097  16.821 -0.9643  0.0575  0.2090
14884TIP3    H166067   4.142   1.074  16.772 -0.0115  3.2588 -0.0129
14884TIP3    H266068   4.090   1.094  16.913 -0.9977 -0.1853  0.2121
14885TIP3   OH266069   3.667   4.257   1.217  0.0262  0.0441 -0.3377
14885TIP3    H166070   3.683   4.251   1.122  1.0248 -0.5496 -0.1524
14885TIP3    H266071   3.714   4.182   1.253 -1.3831 -0.4614  0.5231
14886TIP3   OH266072   3.703   4.988  16.895  0.3890  0.6191  0.2738
14886TIP3    H166073   3.748   4.945  16.822  2.5809  1.0528  1.2863
14886TIP3    H266074   3.672   4.917  16.950  1.3369  0.2987  0.4088
14887TIP3   OH266075   5.454   6.383   0.957  0.3275  0.4070 -0.1176
14887TIP3    H166076   5.430   6.318   0.891  0.5285 -1.8715  1.8993
14887TIP3    H266077   5.544   6.362   0.980 -0.2534 -0.0439  2.0385
14888TIP3   OH266078   5.038   4.428   6.591  0.4994  0.6917 -0.0212
14888TIP3    H166079   5.129   4.400   6.583 -0.0972 -0.9762 -1.7498
14888TIP3    H266080   5.043   4.522   6.609  2.5426  0.5156  0.5309
14889TIP3   OH266081   0.546   4.175  12.783  0.5755 -0.1448 -0.1721
14889TIP3    H166082   0.592   4.204  12.862  0.5022  0.7148 -0.4266
14889TIP3    H266083   0.590   4.221  12.711  0.6371 -0.9116 -0.6339
14890TIP3   OH266084   0.122   1.074   5.313 -0.5957  0.0849  0.2369
14890TIP3    H166085   0.070   1.023   5.375 -1.2833 -1.8387 -1.8061
14890TIP3    H266086   0.139   1.014   5.240  0.0724  2.2758 -1.5302
14891TIP3   OH266087   4.628   5.508   0.665 -0.1566 -0.2224  0.6211
14891TIP3    H166088   4.645   5.435   0.606  2.0714  0.0946  0.7958
14891TIP3    H266089   4.650   5.474   0.752 -1.1049  0.0461  0.9783
14892TIP3   OH266090   4.405   0.142  15.980  0.1481 -0.1647 -0.1415
14892TIP3    H166091   4.392   0.227  16.021 -0.3719 -0.1374 -0.3640
14892TIP3    H266092   4.391   0.078  16.050  0.7152 -0.0658  0.0689
14893TIP3   OH266093   6.496   4.222   2.398  0.2687  0.4597  0.7514
14893TIP3    H166094   6.454   4.295   2.444  0.1806 -0.1582  1.6800
14893TIP3    H266095   6.470   4.233   2.306  0.4757  1.7425  0.8326
14894TIP3   OH266096   1.577   6.436   4.282 -0.1187  0.4964 -0.1920
14894TIP3    H166097   1.565   6.468   4.372 -0.1521  3.6664 -1.2296
14894TIP3    H266098   1.505   6.375   4.269 -1.2366  1.4071  1.3462
14895TIP3   OH266099   2.370   2.413   6.143  0.6446  0.3161 -0.4009
14895TIP3    H166100   2.321   2.493   6.162 -0.5003 -0.2129 -0.9764
14895TIP3    H266101   2.431   2.437   6.073  0.0660  0.6094 -0.8147
14896TIP3   OH266102   4.824   0.399  16.661  0.0724 -0.1098 -0.0604
14896TIP3    H166103   4.846   0.327  16.601 -2.8008  0.0835 -1.5192
14896TIP3    H266104   4.794   0.469  16.604 -1.1226  0.7400  1.5486
14897TIP3   OH266105   5.266   6.314  13.253 -0.0968  0.1486  0.2708
14897TIP3    H166106   5.262   6.262  13.173 -1.5979 -3.3347  2.3506
14897TIP3    H266107   5.175   6.324  13.280  0.4091  0.2332  2.0918
14898TIP3   OH266108   3.298   0.225   1.536 -0.0894  0.6966 -0.8172
14898TIP3    H166109   3.256   0.145   1.567  0.8459  0.3817 -0.3047
14898TIP3    H266110   3.275   0.292   1.601 -1.3643  1.0063 -1.5634
14899TIP3   OH266111   6.368   5.067  16.656  0.3895  0.3386  0.0433
14899TIP3    H166112   6.329   4.991  16.613  2.0304 -0.3763 -0.2776
14899TIP3    H266113   6.461   5.045  16.663  0.7744  2.0056  0.6393
14900TIP3   OH266114   3.654   0.636  10.549  0.4923  0.5964  0.1396
14900TIP3    H166115   3.606   0.712  10.517 -1.6190 -1.2667 -1.4585
14900TIP3    H266116   3.594   0.594  10.611  1.7717  0.4108  1.2890
14901TIP3   OH266117   1.220   1.825  10.525 -0.2265  0.6715  0.1789
14901TIP3    H166118   1.289   1.887  10.550  0.9596 -0.7594  0.5870
14901TIP3    H266119   1.225   1.821  10.430  0.8029 -0.0158  0.2543
14902TIP3   OH266120   0.178   1.605   5.973  0.4812  0.4874  0.4407
14902TIP3    H166121   0.107   1.639   5.918  1.4962  1.2868 -0.4027
14902TIP3    H266122   0.201   1.679   6.030  0.9458  0.3838  0.3893
14903TIP3   OH266123   1.380   1.291  14.701  0.1649 -0.9237  0.4016
14903TIP3    H166124   1.344   1.251  14.780  0.4559  0.7123  1.4016
14903TIP3    H266125   1.448   1.350  14.732 -0.0574  0.1410 -1.0232
14904TIP3   OH266126   1.875   1.844  11.132 -0.1112 -0.2849  0.3685
14904TIP3    H166127   1.853   1.779  11.065 -0.3554  1.1125 -0.9713
14904TIP3    H266128   1.914   1.793  11.203  0.0858 -1.8500 -0.8023
14905TIP3   OH266129   0.889   5.882  14.742 -0.7255  0.2306  0.2276
14905TIP3    H166130   0.848   5.960  14.779  1.2989  1.5169 -0.0364
14905TIP3    H266131   0.982   5.893  14.762  0.0124 -0.6665 -2.2848
14906TIP3   OH266132   3.920   3.445  13.985 -0.4286  0.1257  0.5169
14906TIP3    H166133   3.919   3.375  13.920 -0.6536  2.1855 -1.8683
14906TIP3    H266134   3.841   3.495  13.966  0.5603  1.9500  1.0198
14907TIP3   OH266135   0.453   2.768  16.078 -0.4361  0.8925  0.0619
14907TIP3    H166136   0.417   2.812  16.001 -1.0489 -0.3442 -0.3963
14907TIP3    H266137   0.496   2.689  16.042  0.9916  1.3006  0.8019
14908TIP3   OH266138   5.930   6.100  15.812  0.3032 -0.4845  0.0320
14908TIP3    H166139   5.956   6.031  15.752 -2.3965 -1.6045  0.0099
14908TIP3    H266140   5.933   6.059  15.899  1.3932  0.2602  0.3699
14909TIP3   OH266141   0.536   4.657   4.682 -0.0875  0.1724 -0.3480
14909TIP3    H166142   0.532   4.670   4.776  0.5810 -1.5235 -0.0531
14909TIP3    H266143   0.624   4.686   4.657  0.4204 -1.1386 -0.1283
14910TIP3   OH266144   2.815   2.350   2.487 -0.4326  0.5312 -0.2379
14910TIP3    H166145   2.869   2.351   2.566 -0.0214  0.5274 -0.5198
14910TIP3    H266146   2.783   2.440   2.478  0.3407  0.7718 -0.6290
14911TIP3   OH266147   2.402   2.310  14.935 -0.3929  0.3956  0.0424
14911TIP3    H166148   2.399   2.241  15.002 -0.0160  1.0563  0.7624
14911TIP3    H266149   2.429   2.265  14.855 -0.8640 -0.4160  0.3254
14912TIP3   OH266150   4.251   1.526   3.105 -0.3512 -0.0196 -0.1133
14912TIP3    H166151   4.247   1.519   3.010  2.0619  1.0809 -0.3796
14912TIP3    H266152   4.227   1.439   3.137 -2.0242 -0.1802 -1.6426
14913TIP3   OH266153   0.898   2.620   3.483 -0.2682 -0.0054  0.0874
14913TIP3    H166154   0.804   2.637   3.473  0.2544  2.3148 -1.7522
14913TIP3    H266155   0.927   2.683   3.549  0.0581 -0.5848  0.5078
14914TIP3   OH266156   3.285   2.838  10.583  0.0518 -0.5840  0.0492
14914TIP3    H166157   3.244   2.769  10.635 -0.0450 -0.6577 -0.1216
14914TIP3    H266158   3.229   2.915  10.597  0.3495 -0.4475  0.5073
14915TIP3   OH266159   3.184   4.345  11.059  0.2243 -0.2967 -0.2716
14915TIP3    H166160   3.196   4.430  11.100 -2.2122  0.6052 -1.2513
14915TIP3    H266161   3.208   4.359  10.967 -0.8652 -0.4517 -0.5922
14916TIP3   OH266162   3.127   1.641  15.708  0.6154  0.5085  0.4027
14916TIP3    H166163   3.084   1.640  15.623 -1.1104  0.8163  1.2351
14916TIP3    H266164   3.218   1.615  15.689  0.0234 -0.4320 -1.3681
14917TIP3   OH266165   3.973   3.127   3.064  0.3797  0.0821 -0.1418
14917TIP3    H166166   3.983   3.032   3.070 -1.3750 -0.0926  0.7705
14917TIP3    H266167   3.884   3.140   3.031  0.8735  1.4234 -1.0457
14918TIP3   OH266168   5.260   3.071   3.787  0.1329 -0.7108  0.1964
14918TIP3    H166169   5.348   3.084   3.752 -0.6745  0.3568 -1.5703
14918TIP3    H266170   5.257   2.979   3.812  1.5864 -0.8718 -0.1507
14919TIP3   OH266171   5.209   1.103  15.947 -0.0246  0.1282 -0.1911
14919TIP3    H166172   5.304   1.103  15.936  0.3328 -0.6462  2.2660
14919TIP3    H266173   5.182   1.190  15.917  1.6325  0.8146  0.1527
14920TIP3   OH266174   5.531   3.209   4.102  0.5140  0.2757  0.0985
14920TIP3    H166175   5.473   3.220   4.177  0.2385 -1.1122  0.1236
14920TIP3    H266176   5.496   3.267   4.035 -0.2062  0.3265  0.5054
14921TIP3   OH266177   3.238   6.158  12.961 -0.5117  0.4082 -0.2851
14921TIP3    H166178   3.260   6.235  13.014  1.2236  0.1746 -0.6067
14921TIP3    H266179   3.144   6.164  12.948 -0.9299  0.7820  2.3585
14922TIP3   OH266180   5.135   1.507  13.550  0.4678  0.1677 -0.5759
14922TIP3    H166181   5.083   1.492  13.629 -2.1787 -2.4477 -2.6374
14922TIP3    H266182   5.092   1.580  13.506  0.0228 -0.3830 -1.0704
14923TIP3   OH266183   5.570   3.570   6.033 -0.2856  0.2591  0.3250
14923TIP3    H166184   5.584   3.664   6.044  1.0335 -0.0046  1.1155
14923TIP3    H266185   5.550   3.539   6.121 -0.0255 -0.3066  0.1852
14924TIP3   OH266186   5.216   4.314  12.937  0.0181  0.3595 -0.4420
14924TIP3    H166187   5.243   4.400  12.969 -0.4858 -0.0607  1.2437
14924TIP3    H266188   5.259   4.252  12.996  0.8158 -0.5933 -1.9647
14925TIP3   OH266189   4.816   1.278  17.310  0.4532  0.0294 -0.0853
14925TIP3    H166190   4.773   1.361  17.288 -0.0813 -0.3244 -0.3910
14925TIP3    H266191   4.771   1.249  17.390 -2.1786 -1.9337 -2.0901
14926TIP3   OH266192   1.886   4.496  13.587 -0.0817  0.0234  0.1365
14926TIP3    H166193   1.861   4.406  13.567  1.0960 -0.4587  0.7782
14926TIP3    H266194   1.970   4.508  13.542  0.3306  0.4189  0.9954
14927TIP3   OH266195   0.858   5.657  15.851  0.6205 -0.0516  0.1155
14927TIP3    H166196   0.793   5.626  15.788  0.5200  0.5778 -0.0953
14927TIP3    H266197   0.933   5.684  15.798  0.8116 -0.1894  0.3138
14928TIP3   OH266198   6.174   4.084   4.754  0.5952  0.8396  0.3041
14928TIP3    H166199   6.110   4.084   4.825  0.0404  2.6554 -0.1447
14928TIP3    H266200   6.227   4.005   4.769 -0.0688  0.7134  2.2020
14929TIP3   OH266201   0.448   6.140  14.355  0.2215 -0.3015 -0.3210
14929TIP3    H166202   0.463   6.221  14.305 -1.0887 -0.3105 -0.7690
14929TIP3    H266203   0.497   6.152  14.436 -1.2544  1.6823  0.3637
14930TIP3   OH266204   4.994   4.534  12.687 -0.5200 -0.2857 -0.1428
14930TIP3    H166205   4.969   4.575  12.604  1.7535  0.8204 -0.3786
14930TIP3    H266206   5.051   4.462  12.662 -0.9460 -0.8224  0.4245
14931TIP3   OH266207   0.317   5.310  11.927  0.2324  0.1466  0.1957
14931TIP3    H166208   0.266   5.386  11.900  1.2896  0.9436  0.3843
14931TIP3    H266209   0.349   5.272  11.845  0.2593  0.3031  0.1337
14932TIP3   OH266210   6.697   5.652   1.594  0.5669 -0.3298 -0.0861
14932TIP3    H166211   6.719   5.566   1.560 -0.2305 -0.3644 -0.5353
14932TIP3    H266212   6.745   5.713   1.539  1.0149 -0.4758  0.1383
14933TIP3   OH266213   3.549   4.144  12.677  0.1556  0.8686 -0.0265
14933TIP3    H166214   3.558   4.232  12.640  0.6699  1.6491  1.8184
14933TIP3    H266215   3.588   4.151  12.764  1.8877 -1.6640 -0.4910
14934TIP3   OH266216   2.365   1.099  17.325  0.1750 -0.5052  0.2436
14934TIP3    H166217   2.313   1.064  17.397 -2.7647 -0.2005 -1.5598
14934TIP3    H266218   2.318   1.073  17.246  1.9868  1.1207 -1.4884
14935TIP3   OH266219   3.037   5.298   0.628  0.5296 -0.2449  0.2947
14935TIP3    H166220   2.949   5.277   0.660  0.6213 -1.4102 -0.1617
14935TIP3    H266221   3.030   5.388   0.597 -1.3327 -1.2139 -2.4796
14936TIP3   OH266222   4.931   5.645  15.622 -0.0292  0.6586 -0.0368
14936TIP3    H166223   5.021   5.672  15.638 -0.3922  0.6388  2.5330
14936TIP3    H266224   4.908   5.685  15.538  1.8541  1.9698  0.0096
14937TIP3   OH266225   1.508   3.250  11.229  0.4228 -0.0338 -0.2386
14937TIP3    H166226   1.513   3.300  11.310  1.7018 -0.4501 -0.0434
14937TIP3    H266227   1.414   3.248  11.208  0.3717  2.9820 -0.6442
14938TIP3   OH266228   0.328   5.303   1.546  0.3564 -0.2259  0.6184
14938TIP3    H166229   0.369   5.263   1.623 -1.5507  2.0609  3.0003
14938TIP3    H266230   0.250   5.250   1.530  0.9572 -0.9330 -0.0213
14939TIP3   OH266231   6.697   6.513  14.876 -0.1712 -1.0745  0.8346
14939TIP3    H166232   6.633   6.462  14.925 -0.1203  0.4900  2.6568
14939TIP3    H266233   6.779   6.501  14.924 -0.4965  1.9289  2.3150
14940TIP3   OH266234   3.981   5.345  10.744  0.1691 -0.4815  0.7823
14940TIP3    H166235   3.953   5.407  10.811  0.6624 -0.5637  1.0674
14940TIP3    H266236   3.914   5.276  10.745 -1.3383  0.8742 -0.7331
14941TIP3   OH266237   4.942   3.275  17.222 -0.2339  0.0292 -0.1645
14941TIP3    H166238   4.933   3.314  17.309  1.3285 -0.9583  0.4661
14941TIP3    H266239   4.859   3.230  17.208  0.1162 -1.2598  1.5749
14942TIP3   OH266240   6.406   4.225   1.054  0.0679 -0.0035 -0.0116
14942TIP3    H166241   6.428   4.167   0.981  1.8133 -0.8382  1.1083
14942TIP3    H266242   6.311   4.235   1.048 -0.1748 -2.1877 -0.8487
14943TIP3   OH266243   0.486   3.516  16.210  0.2747  0.2469  0.2430
14943TIP3    H166244   0.483   3.429  16.250 -2.3085  0.5904  1.0301
14943TIP3    H266245   0.560   3.513  16.150  0.1291 -2.5571  0.0797
14944TIP3   OH266246   4.971   1.930  16.490 -0.4309  0.5539 -0.4678
14944TIP3    H166247   4.983   1.927  16.584  0.1185  0.2072 -0.5474
14944TIP3    H266248   4.917   1.854  16.469 -0.9099  0.8703 -0.3803
14945TIP3   OH266249   0.591   2.378  14.092  0.3631 -0.7140 -0.1117
14945TIP3    H166250   0.510   2.389  14.141 -0.0892  0.1967 -1.0390
14945TIP3    H266251   0.652   2.339  14.155 -0.9765 -2.0497  0.4138
14946TIP3   OH266252   4.573   0.977  13.850 -0.0102  0.1454 -0.4574
14946TIP3    H166253   4.502   0.918  13.825 -0.2776  0.9241 -1.6202
14946TIP3    H266254   4.531   1.043  13.906 -0.6283  1.5319 -2.4071
14947TIP3   OH266255   3.409   4.709  14.907  0.1921  0.5662 -0.0346
14947TIP3    H166256   3.382   4.800  14.894  0.7144  0.6460 -0.6040
14947TIP3    H266257   3.327   4.660  14.907 -0.0451  0.9427 -0.5628
14948TIP3   OH266258   0.766   3.174  12.695  1.1593 -0.9184 -0.8381
14948TIP3    H166259   0.812   3.156  12.777  0.7140 -0.3011 -0.4420
14948TIP3    H266260   0.776   3.094  12.643 -0.9142 -2.4081  0.9156
14949TIP3   OH266261   0.063   4.190  16.356  0.1073  0.0771  0.2769
14949TIP3    H166262   0.136   4.169  16.299  0.8424  0.2509  1.1381
14949TIP3    H266263   0.045   4.108  16.402 -1.2923 -0.4151 -1.0544
14950TIP3   OH266264   4.165   3.733   5.448 -0.3627 -0.4309 -1.0281
14950TIP3    H166265   4.175   3.791   5.523  0.5584 -0.2092 -1.3115
14950TIP3    H266266   4.161   3.645   5.486 -1.4567 -0.2173 -0.6198
14951TIP3   OH266267   2.872   5.633   5.409  0.1447  0.5404 -0.4778
14951TIP3    H166268   2.810   5.671   5.347 -0.6562  1.9958  1.1245
14951TIP3    H266269   2.897   5.706   5.466  5.5177  0.8207 -2.5941
14952TIP3   OH266270   4.488   2.736   6.196  0.6427 -0.3887 -0.3234
14952TIP3    H166271   4.427   2.808   6.177 -1.1785 -1.4244  1.1792
14952TIP3    H266272   4.497   2.689   6.114  1.3772  1.1540 -1.1791
14953TIP3   OH266273   5.527   1.729   2.189  0.3404 -0.8825  0.2162
14953TIP3    H166274   5.502   1.653   2.241 -2.5841 -0.0342  0.2324
14953TIP3    H266275   5.622   1.730   2.192  0.3775 -2.4971  3.1522
14954TIP3   OH266276   6.706   4.268  13.929  0.1364 -0.0555 -0.0221
14954TIP3    H166277   6.648   4.328  13.883 -1.0840 -0.4874  0.8986
14954TIP3    H266278   6.657   4.243  14.007  1.1592 -1.2252  0.2697
14955TIP3   OH266279   0.864   6.683  14.766 -0.1151 -0.1014 -0.2700
14955TIP3    H166280   0.791   6.722  14.718 -0.4309 -1.3917 -0.8910
14955TIP3    H266281   0.892   6.610  14.711 -0.5311 -1.6898  1.5009
14956TIP3   OH266282   3.745   1.562   1.232 -0.1742  0.7862 -0.0518
14956TIP3    H166283   3.760   1.590   1.141  0.7275  0.5888  0.0231
14956TIP3    H266284   3.805   1.488   1.244 -0.1299  0.9514  0.7663
14957TIP3   OH266285   6.672   0.441   5.085 -0.0246 -0.3455 -0.8038
14957TIP3    H166286   6.709   0.487   5.010  0.6567 -0.5437 -0.5936
14957TIP3    H266287   6.709   0.485   5.161 -0.3653 -0.4324 -0.5836
14958TIP3   OH266288   5.843   5.017   2.262 -0.5746 -0.4334  0.0083
14958TIP3    H166289   5.802   5.037   2.177  1.3052 -1.5764 -1.2371
14958TIP3    H266290   5.920   5.073   2.266 -0.4061 -0.7058  0.7700
14959TIP3   OH266291   4.915   2.549  12.671  1.1641  0.3598  0.2088
14959TIP3    H166292   4.853   2.477  12.663  1.7348  0.0467 -1.9035
14959TIP3    H266293   4.860   2.625  12.694 -0.1231  0.1955 -2.0437
14960TIP3   OH266294   4.783   5.448  12.829 -0.2522 -0.0044  0.3849
14960TIP3    H166295   4.722   5.376  12.812 -1.4032  0.8664  0.6532
14960TIP3    H266296   4.827   5.424  12.911  2.3296 -2.2580 -1.4991
14961TIP3   OH266297   6.703   3.828  11.404  0.4151 -0.1344 -0.5342
14961TIP3    H166298   6.657   3.775  11.340 -3.9725  1.8134  0.6168
14961TIP3    H266299   6.768   3.877  11.354 -1.2617 -0.3583 -3.0772
14962TIP3   OH266300   4.888   5.563  15.889  0.3394  0.1738 -0.9198
14962TIP3    H166301   4.828   5.523  15.825  1.7219 -1.1097 -1.4652
14962TIP3    H266302   4.955   5.605  15.835 -0.1770  1.8312 -0.3199
14963TIP3   OH266303   1.466   4.558  15.569  0.2906 -0.0737 -0.0628
14963TIP3    H166304   1.429   4.561  15.481 -0.5049 -0.6115  0.2407
14963TIP3    H266305   1.459   4.648  15.601 -0.2029 -0.0476 -0.2375
14964TIP3   OH266306   5.680   2.371  11.032 -0.7974 -0.2495  0.5011
14964TIP3    H166307   5.713   2.287  11.066 -1.2636 -0.6265  0.0303
14964TIP3    H266308   5.682   2.360  10.937 -1.2514  0.1240  0.4494
14965TIP3   OH266309   5.123   5.806  12.095  0.0301  0.2373  0.3490
14965TIP3    H166310   5.090   5.759  12.018  0.0125  0.0063  0.4992
14965TIP3    H266311   5.077   5.890  12.092 -0.0601  0.1831  0.1727
14966TIP3   OH266312   0.001   3.341  14.101 -0.1372 -0.0330  0.4034
14966TIP3    H166313   0.033   3.344  14.011  1.1898  1.1223  0.8782
14966TIP3    H266314  -0.003   3.433  14.128  2.9702 -0.3899  2.6346
14967TIP3   OH266315   1.572   4.494   2.597  1.3708  0.2474 -0.3269
14967TIP3    H166316   1.549   4.420   2.653 -0.6638  0.2519 -1.0666
14967TIP3    H266317   1.559   4.461   2.508  2.0450  1.0172 -0.7215
14968TIP3   OH266318   3.597   1.493  10.115 -0.5223  0.4955  0.3753
14968TIP3    H166319   3.581   1.424  10.179 -1.8255 -0.5402 -0.9926
14968TIP3    H266320   3.678   1.535  10.145 -0.6384 -0.4725  2.2081
14969TIP3   OH266321   6.714   5.053  14.498  0.3424 -0.3278  0.3751
14969TIP3    H166322   6.650   5.031  14.566  0.8997 -1.7763  0.4666
14969TIP3    H266323   6.677   5.130  14.455 -0.8858 -0.4379  1.1752
14970TIP3   OH266324   2.386   4.572  12.669  0.0484 -1.1499 -0.3679
14970TIP3    H166325   2.299   4.540  12.647  0.0053  0.2227 -2.3682
14970TIP3    H266326   2.385   4.665  12.645  1.4141 -0.5696  1.5481
14971TIP3   OH266327   5.892   4.628   4.306  0.3155  0.1634 -0.6413
14971TIP3    H166328   5.894   4.720   4.279  0.0198  0.9212  1.7216
14971TIP3    H266329   5.983   4.600   4.303  0.3626  0.3954 -1.7443
14972TIP3   OH266330   2.736   3.862  16.187  0.4074  0.0988 -0.3249
14972TIP3    H166331   2.813   3.895  16.233  0.3552 -0.1948 -0.0207
14972TIP3    H266332   2.771   3.802  16.121  0.5102  0.8383 -0.9552
14973TIP3   OH266333   0.450   0.003  16.774  0.7085 -0.2576 -0.0700
14973TIP3    H166334   0.412   0.091  16.782  2.1388  0.5033 -1.3072
14973TIP3    H266335   0.437  -0.035  16.861  0.2259  1.2381  0.5640
14974TIP3   OH266336   1.234   6.403   4.715  0.1099  0.0943 -0.5367
14974TIP3    H166337   1.174   6.396   4.640 -0.3901 -0.6380 -0.0791
14974TIP3    H266338   1.184   6.368   4.789  0.4622  1.1614  0.2282
14975TIP3   OH266339   5.540   2.466  15.665  0.5187 -0.3045  0.0716
14975TIP3    H166340   5.566   2.399  15.602  2.1328  1.0199 -0.7863
14975TIP3    H266341   5.594   2.542  15.641 -1.8530  1.6054  0.3983
14976TIP3   OH266342   5.059   5.318  10.997 -0.0144 -0.0909  0.5258
14976TIP3    H166343   5.088   5.227  11.005 -2.6934 -0.9482  1.9295
14976TIP3    H266344   4.963   5.313  11.001 -0.2715  2.7798  0.2371
14977TIP3   OH266345   2.211   4.825   1.251 -0.5176  0.1408  0.4766
14977TIP3    H166346   2.258   4.750   1.216  0.3191  0.3536  1.1071
14977TIP3    H266347   2.204   4.886   1.178 -0.0951 -0.0318  0.2901
14978TIP3   OH266348   5.761   5.550   0.725  0.2812  0.2286 -0.0719
14978TIP3    H166349   5.731   5.509   0.644  1.0062  0.4986 -0.4922
14978TIP3    H266350   5.850   5.515   0.738  0.9611  1.7204 -0.5008
14979TIP3   OH266351   4.817   6.393   3.097  0.1653 -0.1460 -0.3537
14979TIP3    H166352   4.748   6.453   3.125 -0.0361 -0.1433 -0.8440
14979TIP3    H266353   4.812   6.320   3.159  0.4944  0.3883  0.3263
14980TIP3   OH266354   5.589   0.918   1.716  0.5929  0.5965 -0.0889
14980TIP3    H166355   5.589   1.014   1.721 -1.1489  0.6858 -0.8709
14980TIP3    H266356   5.498   0.893   1.734  0.1582 -0.6376 -3.2730
14981TIP3   OH266357   0.733   6.557   2.228  0.0288 -0.1755 -0.1567
14981TIP3    H166358   0.707   6.513   2.147 -1.4132  0.3553 -0.0089
14981TIP3    H266359   0.722   6.650   2.210  1.1072  0.0432  0.1990
14982TIP3   OH266360   2.574   5.754   0.890  0.0779 -0.0078 -0.2932
14982TIP3    H166361   2.506   5.716   0.945  0.9481 -0.0503  0.7927
14982TIP3    H266362   2.530   5.824   0.842 -1.0031 -0.8361 -0.5638
14983TIP3   OH266363   5.974   5.176  15.247  0.0905  0.1039  0.7601
14983TIP3    H166364   5.915   5.207  15.315 -1.1361  0.3884 -0.3991
14983TIP3    H266365   6.056   5.225  15.262 -0.1683  0.1875  1.9793
14984TIP3   OH266366   5.332   6.588   5.453  0.5392  0.2365 -0.3917
14984TIP3    H166367   5.350   6.627   5.538  0.0880  0.9148 -0.6017
14984TIP3    H266368   5.417   6.587   5.409  0.8856 -0.6634  0.2805
14985TIP3   OH266369   1.492   5.981  15.517  0.0206 -0.2802  0.1844
14985TIP3    H166370   1.553   6.053  15.503 -0.3031 -0.0541 -0.0613
14985TIP3    H266371   1.465   5.954  15.429 -0.8815  0.1782  0.3052
14986TIP3   OH266372   1.023   5.871  14.327 -0.2062 -0.5178 -0.8362
14986TIP3    H166373   1.064   5.931  14.390 -1.0453  0.3593 -1.1042
14986TIP3    H266374   0.973   5.810  14.381 -0.1757 -0.3425 -0.6065
14987TIP3   OH266375   2.813   2.869  16.877 -0.8076  0.0198  0.6075
14987TIP3    H166376   2.873   2.823  16.936 -0.3886 -0.8229 -0.4452
14987TIP3    H266377   2.836   2.961  16.888  0.7618 -0.2899  0.1688
14988TIP3   OH266378   3.009   1.291  13.800  0.2362 -0.2505 -0.5373
14988TIP3    H166379   3.063   1.225  13.842  0.3951 -1.3151 -2.3099
14988TIP3    H266380   2.958   1.330  13.871  1.2301 -1.2221  0.7500
14989TIP3   OH266381   2.635   5.111  15.346  0.5797 -0.1268  0.1163
14989TIP3    H166382   2.616   5.017  15.342  0.6860 -0.1924  0.9658
14989TIP3    H266383   2.580   5.150  15.278 -1.5130 -0.4941  1.5108
14990TIP3   OH266384   3.481   0.105  11.947  0.2242  0.0936 -0.0689
14990TIP3    H166385   3.565   0.067  11.971 -0.7153 -2.9454 -1.1344
14990TIP3    H266386   3.456   0.060  11.866 -2.6855  0.4477  0.5128
14991TIP3   OH266387   0.221   1.695   3.934  0.3841  0.3595 -0.3900
14991TIP3    H166388   0.204   1.601   3.942  0.4744  0.2853 -1.0218
14991TIP3    H266389   0.211   1.713   3.841 -1.0133  1.2513 -0.0895
14992TIP3   OH266390   1.519   4.752  14.524  0.4341 -0.8242 -0.0847
14992TIP3    H166391   1.539   4.665  14.490 -0.3552 -1.1100  0.1544
14992TIP3    H266392   1.603   4.786  14.555  0.7905 -1.3958 -0.4186
14993TIP3   OH266393   5.498   1.706   4.189 -0.1481  0.2121 -0.1776
14993TIP3    H166394   5.588   1.676   4.176  0.1568  1.6954 -2.1206
14993TIP3    H266395   5.465   1.721   4.100 -1.4683  2.0159  0.5486
14994TIP3   OH266396   1.514   0.620   1.833  0.1913 -0.8145  0.3755
14994TIP3    H166397   1.530   0.568   1.754 -0.9310  0.5196 -0.7664
14994TIP3    H266398   1.585   0.594   1.893  1.3491 -1.5170 -1.2206
14995TIP3   OH266399   0.988   5.433   1.553 -0.8067 -0.6072  0.3761
14995TIP3    H166400   0.895   5.456   1.555 -0.0847  2.9223  0.7939
14995TIP3    H266401   1.012   5.420   1.645 -0.5240  0.5437  0.4843
14996TIP3   OH266402   5.461   4.410  17.202 -0.7136 -0.0219  0.4473
14996TIP3    H166403   5.452   4.487  17.259  0.6550  0.8774 -0.4782
14996TIP3    H266404   5.385   4.356  17.222 -0.4693  0.4182  2.8500
14997TIP3   OH266405   0.777   4.403   3.876  0.2243 -0.8626 -0.3068
14997TIP3    H166406   0.759   4.422   3.784  2.0739  0.7192 -0.4141
14997TIP3    H266407   0.732   4.472   3.924  1.6865  0.1240 -0.2737
14998TIP3   OH266408   2.528   4.566   1.307 -0.1272 -0.1519  0.3096
14998TIP3    H166409   2.468   4.510   1.355 -1.6502  0.0976 -1.1961
14998TIP3    H266410   2.579   4.507   1.251  0.0869 -0.2408  0.5961
14999TIP3   OH266411   2.083   3.533  12.329  0.1811  0.5300 -0.0623
14999TIP3    H166412   2.104   3.517  12.237 -0.4014  0.2350 -0.1508
14999TIP3    H266413   2.111   3.453  12.374  0.1445  0.5320 -0.0364
15000TIP3   OH266414   3.581   1.597   2.277 -0.6384 -1.1911 -0.3206
15000TIP3    H166415   3.593   1.555   2.362 -1.2666 -2.2054 -0.7150
15000TIP3    H266416   3.568   1.525   2.216 -2.8129 -0.4266 -0.8530
15001TIP3   OH266417   2.324   3.134   4.712 -0.1748 -0.1367  0.5133
15001TIP3    H166418   2.370   3.218   4.706 -0.0554 -0.2866 -1.2567
15001TIP3    H266419   2.392   3.068   4.700 -0.6589 -0.3855 -1.0955
15002TIP3   OH266420   2.910   6.089   6.667 -0.3396  0.0127 -0.4153
15002TIP3    H166421   2.980   6.154   6.676  0.0603 -0.1967 -1.8355
15002TIP3    H266422   2.847   6.130   6.608 -0.1631 -0.8010 -1.1914
15003TIP3   OH266423   4.539   4.462   4.209 -0.1293  0.0112  0.1921
15003TIP3    H166424   4.586   4.528   4.261  0.5051 -0.2215 -0.0729
15003TIP3    H266425   4.608   4.405   4.175 -0.3244  1.1799 -2.4006
15004TIP3   OH266426   6.496   5.281   0.394 -0.7348 -0.4216  0.0814
15004TIP3    H166427   6.472   5.371   0.368 -0.5199  0.3020  2.2273
15004TIP3    H266428   6.588   5.274   0.368 -1.2686 -0.7815 -1.9096
15005TIP3   OH266429   1.398   6.272   0.825 -0.0346 -0.2140  0.5216
15005TIP3    H166430   1.312   6.305   0.801 -0.4715  1.3534  3.6123
15005TIP3    H266431   1.391   6.177   0.818 -1.2527 -0.0201 -1.4202
15006TIP3   OH266432   4.521   0.195   0.824  0.5970  0.4226 -0.2428
15006TIP3    H166433   4.535   0.183   0.730  0.3168  1.1685 -0.3879
15006TIP3    H266434   4.517   0.290   0.836 -0.4041  0.3254  0.3638
15007TIP3   OH266435   0.896   5.496   2.919 -0.0837 -0.2482  0.0031
15007TIP3    H166436   0.893   5.444   2.999 -1.3334 -0.9507 -0.4775
15007TIP3    H266437   0.862   5.439   2.851  0.3853  0.5433 -0.9311
15008TIP3   OH266438   6.195   1.461   3.309  0.4249 -0.3580  0.0819
15008TIP3    H166439   6.198   1.438   3.402 -3.0194  0.8907  0.6277
15008TIP3    H266440   6.252   1.537   3.301  0.2427 -0.0684  1.3357
15009TIP3   OH266441   1.606   2.006   4.918 -0.2187  0.4305 -0.2574
15009TIP3    H166442   1.661   1.942   4.962 -0.6237 -0.3744 -0.8836
15009TIP3    H266443   1.667   2.069   4.880  0.1464  0.8436  0.9956
15010TIP3   OH266444   0.424   4.503  15.789 -0.3070  0.1667  0.2368
15010TIP3    H166445   0.342   4.546  15.764 -0.3070  0.1152  0.1494
15010TIP3    H266446   0.429   4.425  15.733  0.3307  0.7342 -0.5149
15011TIP3   OH266447   2.076   6.357  12.609 -0.3128 -0.0951 -0.0852
15011TIP3    H166448   2.140   6.423  12.581 -1.0163  0.3760 -0.6306
15011TIP3    H266449   2.032   6.331  12.528  0.4587 -1.8005  0.0069
15012TIP3   OH266450   1.018   2.686  16.096  0.2544 -0.2451 -0.4895
15012TIP3    H166451   1.105   2.701  16.134 -0.4729  1.4379  0.6119
15012TIP3    H266452   0.960   2.742  16.146 -1.4862 -1.2769 -1.2627
15013TIP3   OH266453   3.600   5.182   3.926 -0.1001 -0.5708  0.1289
15013TIP3    H166454   3.542   5.244   3.882 -1.1238 -2.2892 -1.0070
15013TIP3    H266455   3.688   5.208   3.899 -0.5405  0.1279 -0.6586
15014TIP3   OH266456   1.361   4.994  13.515  0.6900  0.4398  0.0849
15014TIP3    H166457   1.400   4.967  13.432  1.9396  1.8317  0.1839
15014TIP3    H266458   1.358   4.914  13.568  0.9303 -0.2240 -0.8915
15015TIP3   OH266459   0.789   6.543  14.349 -0.2746  0.3696  0.4575
15015TIP3    H166460   0.854   6.556  14.280  0.0487 -1.8718  0.2807
15015TIP3    H266461   0.730   6.476  14.315 -2.3480  1.8545  0.8881
15016TIP3   OH266462   1.233   4.272   1.173 -0.2263  0.6326  0.4430
15016TIP3    H166463   1.157   4.232   1.214  0.6403  1.1877  2.7709
15016TIP3    H266464   1.290   4.295   1.246  1.6184  1.3758 -1.1429
15017TIP3   OH266465   1.470   4.813   4.295  0.3126  1.2895 -0.1939
15017TIP3    H166466   1.440   4.722   4.300  2.1406  0.7008  1.7201
15017TIP3    H266467   1.421   4.851   4.223 -1.9620 -0.6664  0.1974
15018TIP3   OH266468   0.024   1.035  10.551 -0.3167  0.0936 -0.3024
15018TIP3    H166469  -0.067   1.055  10.527 -0.3194  1.3551  0.6474
15018TIP3    H266470   0.059   0.987  10.476 -2.2662 -1.9631 -0.0134
15019TIP3   OH266471   4.331   2.444  17.295 -0.4503 -0.3270 -0.1626
15019TIP3    H166472   4.236   2.457  17.302 -0.3060  0.7504 -0.0632
15019TIP3    H266473   4.341   2.379  17.226 -1.2797 -0.7923  0.1397
15020TIP3   OH266474   1.651   1.133   3.228 -0.0000 -0.1244  0.0613
15020TIP3    H166475   1.609   1.056   3.190  0.5295 -0.6145  0.4530
15020TIP3    H266476   1.726   1.150   3.172 -0.9140  0.9913 -0.8701
15021TIP3   OH266477   4.127   2.420   2.051 -0.6942  0.0045 -0.4828
15021TIP3    H166478   4.222   2.432   2.058 -0.8094  1.1504 -0.8517
15021TIP3    H266479   4.108   2.427   1.958 -0.9130 -2.1980 -0.6741
15022TIP3   OH266480   4.560   4.670  17.166  0.4382  0.3601  0.2441
15022TIP3    H166481   4.478   4.621  17.172  2.3309 -2.9954  1.3726
15022TIP3    H266482   4.550   4.742  17.229 -1.5544 -0.0520  0.4602
15023TIP3   OH266483   0.331   5.688  12.160  0.2284  0.3682 -0.0781
15023TIP3    H166484   0.351   5.781  12.171  0.4831  0.1371  1.6929
15023TIP3    H266485   0.402   5.654  12.105  1.4993  0.7376  1.2842
15024TIP3   OH266486   4.231   5.793  16.533  0.1862  0.0083 -0.0776
15024TIP3    H166487   4.245   5.699  16.535 -2.1574 -0.4468 -1.5537
15024TIP3    H266488   4.287   5.824  16.462  1.9048 -0.0151  1.2019
15025TIP3   OH266489   4.825   5.150  14.448 -0.4121 -0.0686  0.5281
15025TIP3    H166490   4.852   5.066  14.487  1.5823  0.7642  1.0810
15025TIP3    H266491   4.797   5.203  14.522  2.9838  1.3713  0.9788
15026TIP3   OH266492   5.660   1.684  15.582 -0.2503  0.1319  0.4501
15026TIP3    H166493   5.690   1.725  15.663 -0.2338 -0.5988  0.8240
15026TIP3    H266494   5.693   1.594  15.587 -1.4084 -0.3311  0.2845
15027TIP3   OH266495   1.002   4.251  13.985  0.1975 -0.6949  1.5016
15027TIP3    H166496   1.041   4.252  13.897 -0.3720  2.6108  1.1379
15027TIP3    H266497   1.077   4.244  14.044  1.0155  0.9038  0.7417
15028TIP3   OH266498   4.192   6.484  12.166 -0.5048  0.7221  0.1124
15028TIP3    H166499   4.110   6.534  12.164 -1.3755 -0.6826 -0.8771
15028TIP3    H266500   4.167   6.395  12.143  0.9789 -0.2536  2.0046
15029TIP3   OH266501   1.851   4.752  12.124  0.1395  0.3279  0.2147
15029TIP3    H166502   1.856   4.785  12.214  1.3355 -0.5287  0.4875
15029TIP3    H266503   1.758   4.756  12.102 -0.0150  1.7849  1.0067
15030TIP3   OH266504   3.238   2.424  14.217 -0.1616 -0.0446  1.1656
15030TIP3    H166505   3.274   2.391  14.300  1.0919  0.9211  1.0354
15030TIP3    H266506   3.212   2.344  14.170 -0.5512 -0.6279  2.3172
15031TIP3   OH266507   2.072   0.584  13.896  0.2074 -0.3267  1.1770
15031TIP3    H166508   2.024   0.606  13.975  0.2645  0.0951  1.0965
15031TIP3    H266509   2.137   0.519  13.925  0.2296 -0.1727  1.4752
15032TIP3   OH266510   6.123   2.868  17.322 -0.7533  0.2436 -0.4902
15032TIP3    H166511   6.157   2.911  17.401 -0.9180 -0.3384 -0.0898
15032TIP3    H266512   6.079   2.937  17.274 -1.4358  0.4307  0.3783
15033TIP3   OH266513   4.818   1.418   0.936  0.6386 -0.4793 -0.0667
15033TIP3    H166514   4.885   1.421   1.005  1.4837 -0.9080 -0.8483
15033TIP3    H266515   4.778   1.332   0.947  1.8554 -1.2126 -1.0729
15034TIP3   OH266516   1.599   2.009   1.802  0.6373 -0.3890 -0.3146
15034TIP3    H166517   1.630   2.093   1.835 -0.4842 -1.0361  2.7175
15034TIP3    H266518   1.612   1.948   1.874 -1.2041 -2.1936 -1.3817
15035TIP3   OH266519   1.970   4.734  11.836 -0.4858 -0.4073  0.2799
15035TIP3    H166520   1.982   4.761  11.928  1.0749  0.5844 -0.1705
15035TIP3    H266521   2.028   4.658  11.827 -0.2665 -0.2008 -0.0192
15036TIP3   OH266522   4.797   6.056   5.066  0.0261 -0.1188 -0.0899
15036TIP3    H166523   4.734   6.002   5.017 -0.5880  0.6047 -0.1034
15036TIP3    H266524   4.872   5.998   5.079  0.1687 -0.3670 -1.8096
15037TIP3   OH266525   1.280   0.021   3.616 -0.0890  0.0402 -0.3823
15037TIP3    H166526   1.347   0.069   3.567  0.3596  1.8829  1.8508
15037TIP3    H266527   1.328  -0.021   3.688 -0.7330 -2.5104 -1.3277
15038TIP3   OH266528   3.119   1.135  14.596  0.4356 -1.0368  0.4393
15038TIP3    H166529   3.182   1.204  14.616  0.9324 -1.5980  0.8549
15038TIP3    H266530   3.110   1.137  14.501 -0.0661  0.0309  0.4910
15039TIP3   OH266531   4.506   5.537   4.511  0.6570  0.1814 -0.0065
15039TIP3    H166532   4.411   5.530   4.520  0.3926 -0.2279 -2.4412
15039TIP3    H266533   4.535   5.448   4.495  1.3745  0.3990  0.0469
15040TIP3   OH266534   1.717   0.470  14.050  0.0125  0.2295  0.6001
15040TIP3    H166535   1.725   0.380  14.084 -1.2517 -0.3328 -0.5049
15040TIP3    H266536   1.629   0.497  14.075 -0.2591  0.4930 -0.6144
15041TIP3   OH266537   4.273   2.828   0.142 -0.3759  0.2096  0.3308
15041TIP3    H166538   4.295   2.834   0.235  2.7499 -1.2221 -0.1973
15041TIP3    H266539   4.308   2.744   0.114 -0.4028  0.9903 -2.3408
15042TIP3   OH266540   0.822   0.475   0.418  0.6933  0.0571 -0.4899
15042TIP3    H166541   0.832   0.380   0.424  0.9578 -0.0798 -2.4639
15042TIP3    H266542   0.911   0.510   0.420  0.6059  0.2569  0.0550
15043TIP3   OH266543   3.369   3.639  13.649 -0.1755  0.2008 -0.5648
15043TIP3    H166544   3.464   3.649  13.644  0.1706 -0.9909  1.9908
15043TIP3    H266545   3.335   3.705  13.589  2.2031  2.6747  0.5503
15044TIP3   OH266546   1.287   0.416  13.825  0.3286  0.0932 -0.2097
15044TIP3    H166547   1.263   0.353  13.893 -0.9228 -0.6072 -1.2389
15044TIP3    H266548   1.272   0.501  13.865 -0.7211 -0.3079  0.3061
15045TIP3   OH266549   0.020   3.601   1.658 -0.3582 -0.4109  0.0708
15045TIP3    H166550  -0.014   3.527   1.609  0.4376  0.9789 -2.8159
15045TIP3    H266551   0.114   3.582   1.668 -0.6268 -1.0371  1.8981
15046TIP3   OH266552   3.721   0.338  13.637 -0.0343 -0.0428  0.3392
15046TIP3    H166553   3.635   0.366  13.605  0.3157  0.9027  0.1949
15046TIP3    H266554   3.702   0.291  13.718 -0.5502  2.1383  1.5652
15047TIP3   OH266555   0.794   2.137  13.180  0.5481  0.2460 -0.1811
15047TIP3    H166556   0.780   2.153  13.087 -0.7573  0.7678  0.0928
15047TIP3    H266557   0.729   2.072  13.204  0.8661  0.1246  0.3762
15048TIP3   OH266558   1.278   3.424   5.644 -0.2975 -0.1046 -0.2100
15048TIP3    H166559   1.251   3.418   5.552  1.2233 -0.9019 -0.6521
15048TIP3    H266560   1.372   3.407   5.642  0.0195  1.1979  1.3667
15049TIP3   OH266561   0.860   6.337   0.892 -0.1755 -0.0839 -0.1698
15049TIP3    H166562   0.819   6.414   0.929  0.0624 -0.2159  0.3811
15049TIP3    H266563   0.923   6.309   0.959  2.3662  1.3321 -1.7734
15050TIP3   OH266564   2.106   4.578  13.448 -0.0194  0.0742 -0.4037
15050TIP3    H166565   2.177   4.547  13.393 -0.2272  1.2494 -1.3669
15050TIP3    H266566   2.120   4.673  13.454  0.0009 -0.0176  1.5821
15051TIP3   OH266567   1.990   3.599  17.029  0.0590  0.0061  0.1166
15051TIP3    H166568   2.066   3.548  17.059 -0.0460  0.3726  1.0472
15051TIP3    H266569   1.928   3.593  17.101 -0.5083  0.3172 -0.3422
15052TIP3   OH266570   5.454   1.153  14.430 -0.2677  0.0898  0.2739
15052TIP3    H166571   5.425   1.244  14.426 -0.4409  0.1025  1.3647
15052TIP3    H266572   5.536   1.156  14.480 -0.3143 -0.3560  0.3896
15053TIP3   OH266573   5.911   4.020   4.821 -0.4294 -0.0371  0.0946
15053TIP3    H166574   5.900   3.941   4.873 -1.4732 -0.1814 -0.3194
15053TIP3    H266575   5.909   3.989   4.730  0.8750  0.2710 -0.0627
15054TIP3   OH266576   0.664   2.160   5.037 -0.0862  0.0234 -0.3847
15054TIP3    H166577   0.597   2.170   5.105 -0.0370  2.1084 -0.5934
15054TIP3    H266578   0.619   2.180   4.955  0.6498  0.9218 -0.5857
15055TIP3   OH266579   2.964   2.402   1.122  0.1254 -0.1352 -0.8925
15055TIP3    H166580   2.868   2.397   1.116 -0.0222 -0.3453  1.0907
15055TIP3    H266581   2.990   2.451   1.043 -1.6071  0.0131 -1.4196
15056TIP3   OH266582   0.986   4.744   0.214 -0.7127 -0.5888  0.0967
15056TIP3    H166583   1.046   4.816   0.197 -1.6128  0.1945  0.1920
15056TIP3    H266584   0.964   4.753   0.306  0.6339 -2.1399  0.6300
15057TIP3   OH266585   2.754   3.221   1.381 -1.0871 -0.1069  0.1406
15057TIP3    H166586   2.814   3.292   1.364  1.8568 -2.7929 -1.8185
15057TIP3    H266587   2.771   3.195   1.472 -0.2774  0.0346  0.0275
15058TIP3   OH266588   4.117   0.520   1.147  0.2469 -0.3087  0.2580
15058TIP3    H166589   4.079   0.598   1.106 -0.4456 -1.1548 -0.7398
15058TIP3    H266590   4.164   0.476   1.077  0.1394 -1.1049  0.6727
15059TIP3   OH266591   5.510   0.477  13.276  0.0709  0.1418 -0.1508
15059TIP3    H166592   5.584   0.444  13.225  0.8325  0.6452  0.6125
15059TIP3    H266593   5.550   0.530  13.345 -0.9951  0.2772  0.3789
15060TIP3   OH266594   6.330   4.668   5.556 -0.0981 -0.8498 -0.2437
15060TIP3    H166595   6.347   4.658   5.649  0.5435  0.8441 -0.1280
15060TIP3    H266596   6.342   4.581   5.519  0.4574 -1.3787  1.1281
15061TIP3   OH266597   0.907   6.449  16.799  0.1255 -0.1019 -0.1390
15061TIP3    H166598   0.993   6.455  16.757 -0.5446 -2.2587 -2.0283
15061TIP3    H266599   0.845   6.472  16.729 -0.9002  1.4178  1.1917
15062TIP3   OH266600   6.009   4.686  11.964 -0.3145  0.1851  0.0127
15062TIP3    H166601   6.034   4.733  11.885 -0.6770  0.9789  0.3520
15062TIP3    H266602   5.924   4.647  11.943  0.0227 -0.3897 -0.2961
15063TIP3   OH266603   2.375   1.979   0.714 -0.4324  0.0282 -0.6717
15063TIP3    H166604   2.300   1.935   0.673 -1.5249  1.9962 -0.9266
15063TIP3    H266605   2.441   1.985   0.645 -1.3431  1.1953 -1.4829
15064TIP3   OH266606   3.112   2.516   0.895 -0.1147 -0.1818  0.7140
15064TIP3    H166607   3.205   2.522   0.876 -0.4369  0.2983 -0.9029
15064TIP3    H266608   3.072   2.486   0.813 -1.2232 -2.0174  1.8443
15065TIP3   OH266609   6.164   1.974  12.720  0.0785 -0.2034  0.0747
15065TIP3    H166610   6.092   1.969  12.783  0.5117 -0.9033  0.5244
15065TIP3    H266611   6.159   1.893  12.670 -0.6685  0.6372 -1.2681
15066TIP3   OH266612   6.491   5.982   1.926  0.5104 -0.0183 -0.1127
15066TIP3    H166613   6.575   6.017   1.954  1.5259 -1.3661 -1.3591
15066TIP3    H266614   6.482   5.900   1.974  0.0513 -0.0358 -0.2239
15067TIP3   OH266615   2.848   0.924  17.192 -0.4905  0.3272 -0.1285
15067TIP3    H166616   2.776   0.871  17.157 -1.1657  0.8751  0.4294
15067TIP3    H266617   2.829   1.013  17.163  0.6444  0.3086 -1.0620
15068TIP3   OH266618   1.436   0.509  16.488  0.3605  0.2790 -0.2850
15068TIP3    H166619   1.421   0.550  16.403  0.2668  1.7842  0.4278
15068TIP3    H266620   1.506   0.561  16.528 -1.3938  1.3215  1.6370
15069TIP3   OH266621   6.199   1.952   6.393  0.2380 -0.3578  0.3723
15069TIP3    H166622   6.260   1.888   6.430  2.7871  2.6646  1.8976
15069TIP3    H266623   6.129   1.960   6.458 -0.8298 -2.3674 -0.4323
15070TIP3   OH266624   2.526   2.383   4.882 -0.7552 -0.1331  0.2659
15070TIP3    H166625   2.555   2.473   4.874  1.0634 -0.5415  1.6689
15070TIP3    H266626   2.536   2.346   4.795  0.4036  0.4898  0.1208
15071TIP3   OH266627   5.628   3.378   1.556  0.5087 -0.3176  0.0665
15071TIP3    H166628   5.654   3.470   1.563 -2.2380  0.5719 -0.1203
15071TIP3    H266629   5.642   3.357   1.463 -1.3157  0.8358 -0.5401
15072TIP3   OH266630   2.449   2.981  13.398  0.4363 -0.1561  1.0407
15072TIP3    H166631   2.498   2.943  13.471 -0.6788 -2.0002  0.8804
15072TIP3    H266632   2.476   2.930  13.321 -1.8112 -1.3560  0.9836
15073TIP3   OH266633   1.883   5.077  14.433  0.4193  0.1201  0.5010
15073TIP3    H166634   1.818   5.143  14.410 -0.6941 -0.5443  1.6540
15073TIP3    H266635   1.961   5.103  14.384 -0.5787  1.1531 -0.6112
15074TIP3   OH266636   3.472   3.730   2.125 -0.2433 -0.3346 -0.4100
15074TIP3    H166637   3.487   3.786   2.201 -0.5302 -0.3486 -0.3425
15074TIP3    H266638   3.396   3.769   2.081  0.7976  0.5397 -1.5034
15075TIP3   OH266639   0.742   2.999   5.043  0.5656 -0.1650 -1.0076
15075TIP3    H166640   0.666   2.973   5.096 -1.2615  1.0831 -2.8576
15075TIP3    H266641   0.710   3.070   4.988  2.6990 -0.5325 -2.8788
15076TIP3   OH266642   4.560   4.138   4.341 -0.8326  0.0706 -0.0570
15076TIP3    H166643   4.583   4.153   4.432  0.5585  1.1026 -0.5539
15076TIP3    H266644   4.632   4.175   4.290 -1.6716 -0.2785 -1.5959
15077TIP3   OH266645   5.478   3.440   0.216 -0.2226  0.5748 -0.1448
15077TIP3    H166646   5.530   3.460   0.293  0.7097 -1.3779 -0.2093
15077TIP3    H266647   5.539   3.445   0.143 -0.9568  1.7979 -0.6999
15078TIP3   OH266648   6.228   5.989  14.929  0.3419 -0.3352  0.1847
15078TIP3    H166649   6.318   5.996  14.897  0.5180  0.3925  0.8026
15078TIP3    H266650   6.236   5.951  15.017  0.5559  4.1104  2.3319
15079TIP3   OH266651   1.636   0.892   5.108 -0.1341 -0.1810  0.0544
15079TIP3    H166652   1.613   0.985   5.104 -1.1124 -0.4602 -1.3714
15079TIP3    H266653   1.720   0.885   5.063 -0.4228 -0.0945 -0.4960
15080TIP3   OH266654   3.383   0.987  15.809  0.3435  0.0715  0.0526
15080TIP3    H166655   3.305   0.979  15.753 -0.1905  0.1651  0.7716
15080TIP3    H266656   3.418   1.074  15.790 -0.6982  0.7105  0.9385
15081TIP3   OH266657   0.438   3.290   0.110 -0.6766 -0.0042 -0.4096
15081TIP3    H166658   0.350   3.266   0.137 -1.4318  1.7836 -1.1001
15081TIP3    H266659   0.470   3.214   0.062 -1.5227 -0.9842  0.5348
15082TIP3   OH266660   4.390   5.760   1.380 -0.5104  0.4583 -0.3686
15082TIP3    H166661   4.354   5.767   1.468  0.8899  1.6822  0.1496
15082TIP3    H266662   4.456   5.830   1.375  2.1406 -1.8901 -1.0687
15083TIP3   OH266663   4.753   3.999   2.532 -0.2222 -0.1215  0.2511
15083TIP3    H166664   4.778   3.955   2.613 -1.6711 -0.0284  0.7650
15083TIP3    H266665   4.667   4.036   2.549 -0.9878 -0.8706 -1.6087
15084TIP3   OH266666   4.743   5.181  12.702 -0.2226 -0.3892  0.4064
15084TIP3    H166667   4.727   5.135  12.620 -0.6012  1.2194 -0.4571
15084TIP3    H266668   4.835   5.166  12.721  0.1164  0.0067 -0.8285
15085TIP3   OH266669   3.725   2.090  10.582 -0.2592  0.2682 -0.0292
15085TIP3    H166670   3.654   2.132  10.630 -0.1746  0.8539 -0.4120
15085TIP3    H266671   3.680   2.033  10.519 -0.4756  2.1055 -1.6366
15086TIP3   OH266672   4.988   0.771  14.516  0.1629 -0.0788  0.1324
15086TIP3    H166673   5.037   0.745  14.437 -0.2789 -0.6798  0.0434
15086TIP3    H266674   5.036   0.731  14.588  0.4573  0.3094  0.1555
15087TIP3   OH266675   2.171   5.345  11.908  0.1645 -0.5798  0.3516
15087TIP3    H166676   2.185   5.268  11.964 -3.8987 -3.6602 -2.2663
15087TIP3    H266677   2.086   5.380  11.936  0.7013  1.3757 -0.2790
15088TIP3   OH266678   5.272   0.833   0.762 -0.1623  0.2555  0.2662
15088TIP3    H166679   5.209   0.823   0.691  1.5183 -0.2859 -1.1958
15088TIP3    H266680   5.228   0.794   0.838 -2.0211  0.9207 -0.4197
15089TIP3   OH266681   1.272   1.810  14.475 -0.2997  0.0686 -0.1193
15089TIP3    H166682   1.312   1.850  14.552 -0.7905 -0.2060  0.2873
15089TIP3    H266683   1.342   1.758  14.435  0.2412  1.0211 -0.4434
15090TIP3   OH266684   5.610   1.441  10.516  0.3971  0.2436 -0.1294
15090TIP3    H166685   5.607   1.524  10.564  0.3632 -0.0517  0.3865
15090TIP3    H266686   5.521   1.430  10.483  0.3362  0.2929  0.0151
15091TIP3   OH266687   1.858   1.125   2.809 -0.3422 -0.7560 -0.0417
15091TIP3    H166688   1.845   1.217   2.789 -0.9562 -0.6190  0.9226
15091TIP3    H266689   1.805   1.078   2.744 -1.8471 -0.3410  0.8303
15092TIP3   OH266690   3.479   2.520  16.262 -0.4706 -0.1918  0.6289
15092TIP3    H166691   3.417   2.525  16.335 -2.7370 -1.0809 -1.1087
15092TIP3    H266692   3.427   2.484  16.190  2.0026 -0.5611 -1.0672
15093TIP3   OH266693   6.597   4.315   3.297 -0.1911 -0.1816  0.1959
15093TIP3    H166694   6.690   4.301   3.309 -0.1817  0.0078  0.3638
15093TIP3    H266695   6.591   4.389   3.237 -0.2164  0.6023  1.1252
15094TIP3   OH266696   3.064   2.041   4.577  0.0136 -0.5469  0.0184
15094TIP3    H166697   2.993   2.083   4.528  0.3603  0.9259  0.7301
15094TIP3    H266698   3.021   2.004   4.654 -0.7412 -3.8817 -1.7767
15095TIP3   OH266699   6.643   1.569  14.507 -0.4696  0.1676  0.6608
15095TIP3    H166700   6.713   1.615  14.554 -1.0739 -0.4456  2.2125
15095TIP3    H266701   6.688   1.497  14.461  0.1057  0.6971  0.3652
15096TIP3   OH266702   0.588   1.338  17.319 -0.3998 -0.0121 -0.1267
15096TIP3    H166703   0.600   1.244  17.306  1.4282  0.5156 -3.4461
15096TIP3    H266704   0.655   1.378  17.264 -1.0087  3.2817  1.2904
15097TIP3   OH266705   4.206   2.031  16.514  0.7627  0.7244 -0.0326
15097TIP3    H166706   4.192   1.937  16.500  0.4902  0.8274 -0.4866
15097TIP3    H266707   4.228   2.039  16.607  0.0917  0.2837  0.1728
15098TIP3   OH266708   4.064   1.165  14.437 -0.1573  0.2473  0.4257
15098TIP3    H166709   4.053   1.201  14.349 -3.1985 -0.0171  0.5880
15098TIP3    H266710   4.146   1.202  14.468  1.8089 -0.8194 -3.0356
15099TIP3   OH266711   5.916   0.699  10.746 -0.4536 -0.3049  0.2494
15099TIP3    H166712   5.883   0.631  10.686 -0.7067 -0.9217  1.0675
15099TIP3    H266713   6.004   0.668  10.770  0.3096  0.7673 -1.0524
15100TIP3   OH266714   5.815   4.832  16.652  0.2786 -0.4974 -0.6667
15100TIP3    H166715   5.782   4.747  16.623 -1.2721 -0.5002  0.9381
15100TIP3    H266716   5.777   4.895  16.591 -1.3093 -0.6819  0.0826
15101TIP3   OH266717   3.736   3.584  13.818 -0.2657 -0.4645 -0.3852
15101TIP3    H166718   3.750   3.664  13.869  0.5337 -0.3173 -0.8127
15101TIP3    H266719   3.656   3.545  13.855  0.3789 -0.4540  1.0713
15102TIP3   OH266720   3.208   4.126   5.311 -0.0499  0.4003  0.6238
15102TIP3    H166721   3.280   4.096   5.367 -0.0730 -1.4271 -0.2300
15102TIP3    H266722   3.149   4.173   5.369  1.3418  1.0580  1.5401
15103TIP3   OH266723   6.186   6.112  16.182 -0.4983 -0.1819  0.2348
15103TIP3    H166724   6.167   6.185  16.123 -0.8018 -0.4667 -0.0280
15103TIP3    H266725   6.135   6.039  16.147 -1.0412 -0.2419  1.1067
15104TIP3   OH266726   1.753   1.326  12.851 -0.2921 -0.7797 -0.2086
15104TIP3    H166727   1.748   1.341  12.946  1.2407  2.4248 -0.5215
15104TIP3    H266728   1.662   1.322  12.823 -0.8368  1.0209  1.1020
15105TIP3   OH266729   5.892   0.067   3.372  0.1748  0.1323  0.4802
15105TIP3    H166730   5.919   0.088   3.283 -0.3262 -0.8343  0.0985
15105TIP3    H266731   5.927  -0.021   3.388  0.5665  0.4335  1.3678
15106TIP3   OH266732   1.486   2.613   5.883 -0.7042 -0.7775  0.1232
15106TIP3    H166733   1.509   2.526   5.851  0.1439 -0.4451 -0.1852
15106TIP3    H266734   1.498   2.607   5.978  1.3070 -0.4554 -0.0612
15107TIP3   OH266735   6.427   6.618  12.244  0.2030  0.3301 -0.2200
15107TIP3    H166736   6.491   6.601  12.313  0.5229  3.5071  0.4284
15107TIP3    H266737   6.349   6.650  12.290  0.1344  1.7176 -1.2296
15108TIP3   OH266738   1.337   1.936   4.237 -0.1154 -0.5136 -0.0993
15108TIP3    H166739   1.275   2.008   4.246 -0.5358 -0.6907 -1.3167
15108TIP3    H266740   1.379   1.951   4.153 -0.2020 -1.6645 -0.3707
15109TIP3   OH266741   2.928   4.000  12.788  0.3442 -0.2951 -0.3753
15109TIP3    H166742   2.954   4.061  12.857 -1.9503 -0.7006  0.9137
15109TIP3    H266743   3.011   3.958  12.761  1.3180 -0.0518  2.0366
15110TIP3   OH266744   0.358   2.599  17.364 -0.0609  0.0296 -0.0961
15110TIP3    H166745   0.320   2.621  17.450 -1.3331  0.4860 -0.7422
15110TIP3    H266746   0.297   2.638  17.301  1.1704  0.2044 -1.2039
15111TIP3   OH266747   3.896   5.350   5.216  0.3625 -0.1076  0.7933
15111TIP3    H166748   3.892   5.261   5.252 -0.5968 -0.3945  0.0290
15111TIP3    H266749   3.896   5.337   5.121 -0.9495  0.7451  0.6590
15112TIP3   OH266750   4.459   3.152  15.570 -0.0752 -0.2429 -0.8353
15112TIP3    H166751   4.441   3.164  15.663 -0.5644  0.5551 -1.0208
15112TIP3    H266752   4.506   3.232  15.544  2.2173 -1.4780 -0.7617
15113TIP3   OH266753   1.272   3.335  12.059 -0.0073  0.6359 -0.2717
15113TIP3    H166754   1.194   3.281  12.069  0.6829 -0.1878  0.8928
15113TIP3    H266755   1.255   3.412  12.114  0.1543  0.2752  0.2876
15114TIP3   OH266756   2.669   3.164  15.831 -0.2874 -0.6573 -0.6491
15114TIP3    H166757   2.760   3.139  15.846 -0.3019  0.2906  1.3891
15114TIP3    H266758   2.623   3.134  15.909 -1.4253  0.2216 -0.9545
15115TIP3   OH266759   3.366   0.792   2.622  0.7790 -1.3903 -0.2213
15115TIP3    H166760   3.305   0.741   2.569 -2.5384  2.9811 -1.2084
15115TIP3    H266761   3.444   0.802   2.566  0.7451 -3.5787 -0.7434
15116TIP3   OH266762   5.766   1.813   3.949  0.2799  0.2344  0.2992
15116TIP3    H166763   5.825   1.864   3.894  0.4235  0.1188  0.3479
15116TIP3    H266764   5.680   1.852   3.934  0.4192  0.6197  0.4845
15117TIP3   OH266765   2.141   2.302   1.124 -0.1250 -0.3231  0.6646
15117TIP3    H166766   2.112   2.322   1.035 -1.3920 -1.3333  0.8191
15117TIP3    H266767   2.122   2.209   1.135 -0.1358 -0.1831  2.0470
15118TIP3   OH266768   0.900   1.990  11.250  0.4376  0.4155  0.1285
15118TIP3    H166769   0.923   2.077  11.283 -1.3159  1.3162 -0.8333
15118TIP3    H266770   0.809   1.978  11.276  0.6950 -1.2151  0.3647
15119TIP3   OH266771   1.801   5.162   1.600 -0.2247  0.3802 -0.5123
15119TIP3    H166772   1.810   5.199   1.688 -1.2822  0.2755 -0.3467
15119TIP3    H266773   1.842   5.075   1.607  2.6545  1.6110 -1.0213
15120TIP3   OH266774   2.878   3.852   0.800  0.2489 -0.2997 -0.2156
15120TIP3    H166775   2.940   3.925   0.799 -0.9182  0.7368 -0.3517
15120TIP3    H266776   2.923   3.782   0.847  0.5953  1.2809  2.0000
15121TIP3   OH266777   6.088   2.628  15.242  0.0311  0.0388  0.3308
15121TIP3    H166778   6.033   2.652  15.168 -2.9944  1.0189  2.7038
15121TIP3    H266779   6.053   2.545  15.273  0.1840  0.4119  1.5742
15122TIP3   OH266780   5.756   2.643   1.416 -0.3233  0.0615  0.4695
15122TIP3    H166781   5.721   2.600   1.338  0.7858 -1.1145  0.5748
15122TIP3    H266782   5.697   2.717   1.432 -1.4341 -0.5600 -0.5972
15123TIP3   OH266783   3.765   1.389  13.682 -0.1578  0.0964 -0.6871
15123TIP3    H166784   3.815   1.376  13.601  1.2628 -0.0736  0.1709
15123TIP3    H266785   3.721   1.473  13.670  0.5807  0.4033 -1.3742
15124TIP3   OH266786   1.443   1.852   0.018  0.3628 -0.0417 -0.2321
15124TIP3    H166787   1.402   1.917   0.076  0.5537  1.7009 -1.9360
15124TIP3    H266788   1.507   1.808   0.073  0.3216  1.3290  0.9730
15125TIP3   OH266789   1.967   5.599  13.761  0.2717  0.5328 -0.3893
15125TIP3    H166790   1.932   5.544  13.831 -0.8924  0.5870 -0.9013
15125TIP3    H266791   2.059   5.575  13.755  0.5929  1.1177  1.6987
15126TIP3   OH266792   0.086   3.837   2.218  0.1541  0.0446 -0.1734
15126TIP3    H166793  -0.003   3.801   2.217 -0.1302  0.7281 -1.3618
15126TIP3    H266794   0.119   3.816   2.305 -1.4999  0.5391  0.6224
15127TIP3   OH266795   4.083   2.958  11.653  0.0655  0.1205 -0.2417
15127TIP3    H166796   4.096   2.984  11.744  0.0224  0.6812 -0.3891
15127TIP3    H266797   4.018   3.020  11.619  0.8242  0.5652 -0.9266
15128TIP3   OH266798   5.450   4.677  11.783 -0.0978  0.6421  0.5483
15128TIP3    H166799   5.446   4.658  11.689 -2.5620  1.2416  0.4686
15128TIP3    H266800   5.368   4.642  11.818  0.1729  1.6100  2.2491
15129TIP3   OH266801   4.661   6.671  12.949  0.0852  0.0226  0.3364
15129TIP3    H166802   4.741   6.703  12.991  0.0699  0.6938 -0.1347
15129TIP3    H266803   4.691   6.616  12.878  0.1215 -0.0593  0.4144
15130TIP3   OH266804   5.990   5.030  13.270 -0.5996 -0.0337  0.1978
15130TIP3    H166805   5.958   4.964  13.209 -1.6459  2.7725 -2.6155
15130TIP3    H266806   6.067   5.067  13.227  1.0161 -0.5203  2.5257
15131TIP3   OH266807   5.840   0.434  13.745  0.1579 -0.5937  0.3901
15131TIP3    H166808   5.894   0.449  13.823  0.2983  0.0087  0.1806
15131TIP3    H266809   5.750   0.441  13.776  0.2108  0.8426  0.2869
15132TIP3   OH266810   5.525   0.242   1.241  0.4714  0.1035  0.0249
15132TIP3    H166811   5.605   0.293   1.253  1.2034 -1.3250  1.5883
15132TIP3    H266812   5.554   0.161   1.199 -0.3536  0.0730 -0.5094
15133TIP3   OH266813   6.421   1.906   5.974  0.0885 -0.0688 -0.1178
15133TIP3    H166814   6.487   1.841   5.999  0.8401  1.1385  1.1683
15133TIP3    H266815   6.412   1.894   5.879  1.1294 -1.1925 -0.1108
15134TIP3   OH266816   0.995   5.750   2.859  0.4703 -0.4323 -0.3746
15134TIP3    H166817   0.977   5.803   2.936 -0.2034 -0.3074 -0.6053
15134TIP3    H266818   0.968   5.662   2.883  0.8849 -0.5245 -0.2445
15135TIP3   OH266819   3.475   3.492  14.198  0.2800  0.5324  0.5356
15135TIP3    H166820   3.441   3.512  14.285  1.4455  1.2866  0.8457
15135TIP3    H266821   3.565   3.463  14.214  0.9536  1.9463 -0.4883
15136TIP3   OH266822   1.921   2.746  15.578 -0.3531 -0.1630  0.2075
15136TIP3    H166823   1.865   2.822  15.591  1.0034  0.9165 -0.0664
15136TIP3    H266824   1.865   2.682  15.534 -1.3025  0.9522 -0.2435
15137TIP3   OH266825   0.321   6.008   5.711  0.6840  0.1286  0.0662
15137TIP3    H166826   0.401   5.959   5.725 -0.3220 -1.5826  0.0356
15137TIP3    H266827   0.322   6.076   5.779  0.5595 -1.9980  2.3394
15138TIP3   OH266828   1.129   0.868   0.133 -0.0391  0.5161  0.0177
15138TIP3    H166829   1.204   0.880   0.191  0.6167 -0.3378 -0.6232
15138TIP3    H266830   1.155   0.795   0.076  0.1033  2.4213 -2.5235
15139TIP3   OH266831   5.368   6.327   2.672 -0.2564 -0.1001  0.0402
15139TIP3    H166832   5.316   6.388   2.724 -0.4714 -0.5103  0.3140
15139TIP3    H266833   5.450   6.318   2.720  0.2834  0.9347 -0.6506
15140TIP3   OH266834   6.053   2.864   0.724  0.4709 -0.1530 -0.3066
15140TIP3    H166835   6.009   2.933   0.773  0.4762  0.1536 -0.7345
15140TIP3    H266836   6.092   2.808   0.792  0.3615  0.1915  0.0422
15141TIP3   OH266837   2.204   2.309   5.739  0.0331 -0.2137 -0.0184
15141TIP3    H166838   2.158   2.356   5.808  0.5451  0.8323 -0.3675
15141TIP3    H266839   2.263   2.249   5.784 -0.0120  0.0869  0.4361
15142TIP3   OH266840   3.842   4.393   5.743 -0.0687 -0.2159 -0.3002
15142TIP3    H166841   3.774   4.355   5.797  1.7591 -1.6007  1.1839
15142TIP3    H266842   3.882   4.461   5.797  0.6592 -0.4245 -0.5540
15143TIP3   OH266843   2.833   0.136   5.910 -0.6565  0.5500 -0.1835
15143TIP3    H166844   2.876   0.214   5.946  0.3982  0.3855 -1.0289
15143TIP3    H266845   2.905   0.077   5.887 -1.4322 -0.5786  0.2117
15144TIP3   OH266846   4.471   5.343  14.594  0.2767 -0.2356  0.3896
15144TIP3    H166847   4.470   5.437  14.607  2.5123  0.0956 -1.1888
15144TIP3    H266848   4.429   5.330  14.509  1.6284 -0.3934 -0.2948
15145TIP3   OH266849   3.634   4.050   5.300  0.2355 -0.0372  0.4324
15145TIP3    H166850   3.693   3.986   5.261 -0.3204 -1.0268  1.1786
15145TIP3    H266851   3.690   4.104   5.355  0.8984  0.8921 -1.0820
15146TIP3   OH266852   2.996   1.902   0.046  0.6568  0.2148  0.5009
15146TIP3    H166853   2.949   1.972   0.092  1.7372  0.0936  1.8401
15146TIP3    H266854   2.983   1.824   0.100  0.4902 -0.3507 -0.3308
15147TIP3   OH266855   0.431   4.126   4.917 -0.1549  0.3225  0.1559
15147TIP3    H166856   0.490   4.134   4.992  1.3505  1.6404 -1.1045
15147TIP3    H266857   0.366   4.195   4.931  0.9064  1.4790 -0.3718
15148TIP3   OH266858   0.012   2.943  15.698  0.6390 -0.3512 -0.0866
15148TIP3    H166859   0.035   3.007  15.630  2.0909  0.8069  1.4199
15148TIP3    H266860   0.087   2.944  15.758 -0.6783 -1.1648  1.6538
15149TIP3   OH266861   5.505   3.285  15.371 -0.0218 -0.1684  0.1402
15149TIP3    H166862   5.582   3.240  15.407  0.1948 -0.2104 -0.3675
15149TIP3    H266863   5.509   3.373  15.409 -0.4209 -0.5546  1.1015
15150TIP3   OH266864   4.416   5.958  13.265  0.0198  0.2741 -0.2913
15150TIP3    H166865   4.477   5.990  13.332 -0.4563 -1.0119  0.7938
15150TIP3    H266866   4.425   5.863  13.267 -0.5791  0.1671 -1.5292
15151TIP3   OH266867   1.833   0.305   3.682 -0.0365  0.1007 -0.1866
15151TIP3    H166868   1.891   0.352   3.623  1.4672 -1.7574 -0.2611
15151TIP3    H266869   1.812   0.370   3.750  2.3065  0.7987 -0.0324
15152TIP3   OH266870   3.700   1.744  15.620 -0.2734 -0.5054 -0.2725
15152TIP3    H166871   3.682   1.819  15.562 -0.0285 -0.2781 -0.0589
15152TIP3    H266872   3.791   1.756  15.646  0.1598 -1.5731 -1.2491
15153TIP3   OH266873   5.839   3.380   4.973 -0.1602 -0.1453  0.4208
15153TIP3    H166874   5.782   3.317   4.929 -1.7027  0.6329  1.2266
15153TIP3    H266875   5.920   3.331   4.992  0.5294 -0.5727 -3.0211
15154TIP3   OH266876   4.767   4.367   2.868 -0.1961  0.1891 -0.6460
15154TIP3    H166877   4.702   4.426   2.830 -1.2538  1.7482  3.1334
15154TIP3    H266878   4.837   4.425   2.898 -0.0448 -0.7419  0.8842
15155TIP3   OH266879   0.884   4.995  13.800 -0.7226 -0.1305  0.0522
15155TIP3    H166880   0.930   5.062  13.750 -2.1837  1.3709  0.6359
15155TIP3    H266881   0.797   4.989  13.760 -0.8859 -1.1044  0.5105
15156TIP3   OH266882   4.660   2.767   0.722  0.1408 -0.5052 -0.1607
15156TIP3    H166883   4.604   2.780   0.798  2.1231  1.5079  1.0746
15156TIP3    H266884   4.732   2.713   0.755  0.7263 -0.0943 -0.7547
15157TIP3   OH266885   3.778   4.941  12.065 -0.1454  0.3003  0.1787
15157TIP3    H166886   3.704   4.881  12.068 -0.2815  0.4822  0.6024
15157TIP3    H266887   3.816   4.936  12.153  1.7097 -1.4623 -0.6545
15158TIP3   OH266888   1.806   3.570  12.230  0.2136  0.3974  0.6973
15158TIP3    H166889   1.781   3.629  12.302 -1.0580  1.5272 -0.6214
15158TIP3    H266890   1.895   3.599  12.207 -0.0989  1.2939  0.5771
15159TIP3   OH266891   1.414   1.273  10.480  0.3874 -0.3335 -0.0836
15159TIP3    H166892   1.366   1.266  10.397 -0.2820 -0.4092  0.3020
15159TIP3    H266893   1.502   1.300  10.455  0.1435 -0.1988 -0.8095
15160TIP3   OH266894   4.263   6.674  13.842  0.3558 -0.3272  0.3006
15160TIP3    H166895   4.248   6.582  13.821  2.3138 -0.9694  1.5077
15160TIP3    H266896   4.301   6.711  13.763 -1.1730 -0.3128 -0.4674
15161TIP3   OH266897   0.024   3.272   1.210 -0.1323  0.1665 -0.3399
15161TIP3    H166898  -0.047   3.253   1.272  0.0723 -1.2846 -0.4956
15161TIP3    H266899  -0.007   3.235   1.127  0.6172 -0.0942 -0.5095
15162TIP3   OH266900   5.077   4.444   0.962  0.6689  0.1155 -0.3407
15162TIP3    H166901   5.151   4.408   0.912  1.2696  0.1034  0.5494
15162TIP3    H266902   5.109   4.528   0.995  0.3451  0.0244  0.2013
15163TIP3   OH266903   0.660   3.729   0.589 -0.2693  0.4934 -0.2760
15163TIP3    H166904   0.612   3.652   0.559  0.9150  0.1367 -1.3698
15163TIP3    H266905   0.750   3.714   0.558  0.0516  2.1561 -0.2213
15164TIP3   OH266906   0.232   2.844  11.831  0.4443 -0.2690 -0.5994
15164TIP3    H166907   0.284   2.907  11.780 -0.4974  0.5841 -0.5527
15164TIP3    H266908   0.227   2.767  11.775  0.5337  0.1747 -1.2351
15165TIP3   OH266909   2.043   1.884   4.974 -0.2244 -0.0072  0.3816
15165TIP3    H166910   2.084   1.912   5.056  0.7997 -1.7613  0.5144
15165TIP3    H266911   1.956   1.854   5.001 -0.3341  0.5054  0.6233
15166TIP3   OH266912   1.828   2.318  11.671  0.9084  0.6428 -0.2805
15166TIP3    H166913   1.886   2.244  11.687 -0.3340 -0.0037  1.4683
15166TIP3    H266914   1.844   2.341  11.579  0.2228 -2.7915 -1.4116
15167TIP3   OH266915   6.208   5.860  14.392  0.0904  0.9194 -0.1882
15167TIP3    H166916   6.295   5.875  14.355  0.7162 -2.1654 -0.2292
15167TIP3    H266917   6.156   5.826  14.319 -0.6056  0.9986  0.2616
15168TIP3   OH266918   2.778   6.261  11.488  0.3408 -0.2596 -0.5877
15168TIP3    H166919   2.742   6.181  11.450 -0.4695  0.1186 -0.6421
15168TIP3    H266920   2.702   6.310  11.518  0.9249 -0.2866  1.0563
15169TIP3   OH266921   0.739   2.473  11.487  0.4843 -0.2532  0.1919
15169TIP3    H166922   0.650   2.447  11.462 -0.8781  2.9084  1.2156
15169TIP3    H266923   0.794   2.446  11.413 -1.3067 -2.2133 -0.5105
15170TIP3   OH266924   0.266   2.939  14.485 -0.0529 -0.1748 -0.0467
15170TIP3    H166925   0.228   2.874  14.544 -0.9930  0.7283  0.3706
15170TIP3    H266926   0.225   3.022  14.511  0.9778  0.5619 -0.6850
15171TIP3   OH266927   5.525   0.340  14.276 -0.3170 -0.2931  0.6737
15171TIP3    H166928   5.516   0.247  14.257  0.5618 -0.0810 -0.9447
15171TIP3    H266929   5.595   0.344  14.341 -1.0388 -0.8136  1.5028
15172TIP3   OH266930   6.232   5.716  11.470 -0.3197  0.0071  0.2285
15172TIP3    H166931   6.282   5.679  11.398 -1.6375 -1.1071 -0.1558
15172TIP3    H266932   6.229   5.646  11.535 -1.6712 -0.1004  0.0757
15173TIP3   OH266933   5.264   5.990   4.975  0.3226  0.2338  0.7199
15173TIP3    H166934   5.286   6.036   4.894  0.0968 -2.0671 -0.7439
15173TIP3    H266935   5.321   6.029   5.041  0.3378  2.3582 -0.4614
15174TIP3   OH266936   2.903   1.519  11.829 -0.1638 -0.5086 -0.5341
15174TIP3    H166937   2.833   1.469  11.871 -0.1575  0.0130  0.1100
15174TIP3    H266938   2.948   1.564  11.901 -0.6354  1.0169 -1.1570
15175TIP3   OH266939   0.768   1.696  11.381 -0.0234  0.1655 -0.7341
15175TIP3    H166940   0.812   1.648  11.451  0.3811  1.3957 -0.1210
15175TIP3    H266941   0.839   1.741  11.335 -0.5218  1.2530 -0.4572
15176TIP3   OH266942   3.106   5.173   1.750 -0.2697  0.1214  0.3044
15176TIP3    H166943   3.120   5.155   1.843 -1.3768 -2.5742  0.0431
15176TIP3    H266944   3.037   5.239   1.749  1.3201  1.8888  1.3508
15177TIP3   OH266945   4.618   5.683  16.476  0.2415 -0.1715  0.1552
15177TIP3    H166946   4.560   5.742  16.429  0.5632  0.1252  0.1261
15177TIP3    H266947   4.566   5.604  16.489 -0.2515  0.1814  0.3575
15178TIP3   OH266948   6.242   3.878   2.654 -0.0123  0.0624 -0.0453
15178TIP3    H166949   6.318   3.865   2.710 -0.7721  0.3231  1.0945
15178TIP3    H266950   6.232   3.973   2.649  0.1123  0.0421 -0.7183
15179TIP3   OH266951   0.036   4.312   5.784 -0.5428 -0.0006  0.7560
15179TIP3    H166952  -0.000   4.224   5.779 -0.6827  0.1093 -1.9434
15179TIP3    H266953  -0.040   4.370   5.776 -0.2167  0.2799 -0.5983
15180TIP3   OH266954   5.138   4.251   4.941 -0.2185 -0.7988  0.3186
15180TIP3    H166955   5.183   4.199   4.874 -2.3558  0.5021 -2.3127
15180TIP3    H266956   5.161   4.341   4.920 -1.2162 -0.3414  1.1194
15181TIP3   OH266957   0.553   1.832  13.404 -0.6875  0.0279 -0.0266
15181TIP3    H166958   0.589   1.757  13.452 -3.0179 -0.7080  0.6832
15181TIP3    H266959   0.480   1.862  13.457  0.4587  3.2114 -0.0389
15182TIP3   OH266960   1.640   2.774  10.875  0.0556 -0.4499  0.2134
15182TIP3    H166961   1.555   2.738  10.901  0.1138 -1.2910 -0.7199
15182TIP3    H266962   1.625   2.811  10.788  0.5183 -0.0926  0.2834
15183TIP3   OH266963   1.359   5.002  17.067 -0.2574 -0.0541 -0.4054
15183TIP3    H166964   1.347   4.946  17.144 -0.9721  0.4287 -0.1597
15183TIP3    H266965   1.344   5.091  17.099 -1.5084  0.0749 -1.2915
15184TIP3   OH266966   5.649   2.398  14.046  0.5263 -0.4153  0.1128
15184TIP3    H166967   5.577   2.342  14.078  0.3528 -0.6998 -0.7465
15184TIP3    H266968   5.618   2.430  13.962  1.4698 -0.6572 -0.3405
15185TIP3   OH266969   4.429   2.483   1.323  0.1770 -0.3770  0.2658
15185TIP3    H166970   4.454   2.419   1.389  1.4048  0.0223  0.2010
15185TIP3    H266971   4.510   2.504   1.277 -0.3079  0.7721 -0.1112
15186TIP3   OH266972   5.736   0.539  15.624  0.0529 -0.0899  0.3191
15186TIP3    H166973   5.803   0.590  15.669  1.0572  0.0908 -1.3027
15186TIP3    H266974   5.761   0.448  15.640  0.9135 -0.0238 -0.5475
15187TIP3   OH266975   3.465   1.996  15.787  0.1985 -0.5450  0.1773
15187TIP3    H166976   3.373   2.019  15.782  0.6511  1.2069 -0.8497
15187TIP3    H266977   3.491   1.980  15.697  0.4496 -3.1410  0.6353
15188TIP3   OH266978   2.613   6.425  14.090  0.3370  0.3203  0.1728
15188TIP3    H166979   2.520   6.449  14.089  0.7616  2.0287 -0.8751
15188TIP3    H266980   2.622   6.369  14.168 -1.3611  0.9640  0.8745
15189TIP3   OH266981   2.609   6.694  12.928  0.2709 -0.1668 -0.1424
15189TIP3    H166982   2.574   6.775  12.967  2.6331  1.1811 -0.5920
15189TIP3    H266983   2.659   6.653  12.999  0.4946 -0.3308 -0.3959
15190TIP3   OH266984   0.718   6.686  16.220  0.6128  0.4148 -0.4695
15190TIP3    H166985   0.663   6.764  16.233 -1.4820 -1.2818  1.7698
15190TIP3    H266986   0.761   6.673  16.305  0.2031 -1.3397 -0.4920
15191TIP3   OH266987   0.721   1.955  12.504 -0.1206  0.0010  0.4724
15191TIP3    H166988   0.689   1.977  12.416 -1.4339  0.9406  1.1442
15191TIP3    H266989   0.661   1.887  12.535 -1.6374  1.7960  1.7529
15192TIP3   OH266990   1.814   3.692  16.679 -0.4289 -0.5680  0.0598
15192TIP3    H166991   1.744   3.632  16.702 -0.1329 -1.9709 -2.4265
15192TIP3    H266992   1.780   3.742  16.604 -0.1404  1.4312  1.1875
15193TIP3   OH266993   1.916   0.760   1.911 -0.3287 -0.2525 -0.0126
15193TIP3    H166994   1.904   0.854   1.927  1.4792  0.0366 -0.1931
15193TIP3    H266995   1.834   0.721   1.941 -1.2949  1.4114 -0.3148
15194TIP3   OH266996   0.269   2.254  16.250 -0.0451 -0.5489  0.6173
15194TIP3    H166997   0.219   2.264  16.332  2.0673 -0.4388  1.9632
15194TIP3    H266998   0.285   2.344  16.221  0.8881 -0.5187  1.1876
15195TIP3   OH266999   1.828   3.600   3.512 -0.3746  0.0577 -0.5211
15195TIP3    H167000   1.737   3.574   3.499 -0.2130 -1.3497  0.8468
15195TIP3    H267001   1.878   3.524   3.481  0.2889  0.3462 -0.1675
15196TIP3   OH267002   4.160   0.804   1.444 -0.2257 -0.3229  1.0865
15196TIP3    H167003   4.095   0.735   1.457 -1.1060 -0.0550 -1.4098
15196TIP3    H267004   4.184   0.798   1.351  1.2691  1.3723  1.3028
15197TIP3   OH267005   4.525   6.607  13.384 -0.1656 -0.4960 -0.6965
15197TIP3    H167006   4.529   6.640  13.294  1.4584 -0.8157 -0.7835
15197TIP3    H267007   4.436   6.574  13.394 -1.1504  1.7408 -1.3733
15198TIP3   OH267008   3.396   3.024  12.107  0.1340  0.6464  0.1646
15198TIP3    H167009   3.472   3.012  12.049 -0.0056 -0.5178  0.2064
15198TIP3    H267010   3.337   3.081  12.057  0.4517  0.4657 -0.4268
15199TIP3   OH267011   3.394   3.130   1.585  0.4333 -0.3525  0.0815
15199TIP3    H167012   3.434   3.210   1.549 -0.6089  0.2497  0.2076
15199TIP3    H267013   3.318   3.162   1.633 -0.9937 -1.5622 -1.2749
15200TIP3   OH267014   3.079   4.425  16.018 -0.3166  0.2177  0.7043
15200TIP3    H167015   3.128   4.392  16.093  0.5688  0.4597  0.2440
15200TIP3    H267016   3.064   4.348  15.963 -0.0187  0.2262  0.6091
15201TIP3   OH267017   6.044   6.134  11.439  0.0131 -0.2677 -0.4015
15201TIP3    H167018   6.033   6.062  11.502 -1.1115  1.2991  1.3053
15201TIP3    H267019   5.958   6.142  11.398  0.1662  0.0060 -0.6651
15202TIP3   OH267020   2.660   6.741  12.592 -0.2313 -0.3411 -0.1823
15202TIP3    H167021   2.686   6.686  12.518 -1.9458  0.7088 -1.6433
15202TIP3    H267022   2.609   6.812  12.553 -1.2053  0.2655  2.0154
15203TIP3   OH267023   1.815   6.554   0.829  0.8802 -0.7298  0.2657
15203TIP3    H167024   1.752   6.486   0.805  0.3423 -0.1433 -0.0318
15203TIP3    H267025   1.829   6.603   0.749 -0.9050  1.2215  1.0492
15204TIP3   OH267026   4.038   4.449  14.664  0.1912 -0.0523 -0.0728
15204TIP3    H167027   4.035   4.404  14.580 -0.6600 -1.8213  0.8419
15204TIP3    H267028   4.044   4.542  14.641 -3.4300 -0.1452 -2.2031
15205TIP3   OH267029   3.570   0.549   6.421  0.0667 -0.4509 -0.1411
15205TIP3    H167030   3.511   0.490   6.374  0.4316  0.0233 -1.2290
15205TIP3    H267031   3.532   0.636   6.409  0.8484 -0.1690 -0.6762
15206TIP3   OH267032   6.344   4.763   2.495  0.6510  0.0653  0.2567
15206TIP3    H167033   6.405   4.714   2.439 -0.4725 -0.1218 -0.8386
15206TIP3    H267034   6.396   4.785   2.573  1.7211 -1.2461 -0.0431
15207TIP3   OH267035   5.182   0.431  11.495  0.6396 -0.1700 -0.0847
15207TIP3    H167036   5.146   0.351  11.458 -0.5038  0.4125 -0.2796
15207TIP3    H267037   5.277   0.420  11.490  0.5215 -2.1020  1.1947
15208TIP3   OH267038   0.495   3.951   1.412 -0.2215 -0.6660  0.0634
15208TIP3    H167039   0.419   3.897   1.393  0.5442 -1.8250  0.1780
15208TIP3    H267040   0.566   3.912   1.361  1.1701 -1.9474  2.7897
15209TIP3   OH267041   3.369   3.235   2.281 -0.1349  0.7955  0.2440
15209TIP3    H167042   3.352   3.298   2.351 -1.2653 -0.2549  0.9779
15209TIP3    H267043   3.457   3.201   2.299 -0.1900  0.9520  0.8328
15210TIP3   OH267044   0.398   1.396   3.191  0.0258  0.6171 -0.1360
15210TIP3    H167045   0.415   1.476   3.142 -1.9836  1.0782 -0.1875
15210TIP3    H267046   0.352   1.339   3.129 -0.3398  0.2340  0.4693
15211TIP3   OH267047   4.619   2.207  13.212 -0.1282 -0.5459  0.1248
15211TIP3    H167048   4.642   2.122  13.176 -0.5990  0.5939 -3.1662
15211TIP3    H267049   4.702   2.255  13.216 -0.0981 -0.6225  0.5218
15212TIP3   OH267050   2.078   2.498  11.833  0.0936 -0.2022  0.0125
15212TIP3    H167051   2.011   2.430  11.824  0.2800 -0.4615  0.5707
15212TIP3    H267052   2.128   2.472  11.910  1.2459 -0.3678 -0.7768
15213TIP3   OH267053   1.635   5.496  16.288  0.2819  0.1112 -0.3018
15213TIP3    H167054   1.566   5.531  16.345  1.4274 -0.2284  1.3658
15213TIP3    H267055   1.644   5.561  16.219  0.7867  2.0325  1.4677
15214TIP3   OH267056   3.222   5.895   6.064  0.2574  0.2480 -0.0101
15214TIP3    H167057   3.242   5.981   6.101  0.2428 -0.2132  1.1093
15214TIP3    H267058   3.194   5.843   6.139 -1.9802 -0.0994 -1.0053
15215TIP3   OH267059   5.419   6.189  12.395  0.3080 -0.2005 -0.4498
15215TIP3    H167060   5.459   6.110  12.431  2.8644  0.6896 -1.1396
15215TIP3    H267061   5.481   6.220  12.329 -1.2674  1.6481 -1.1719
15216TIP3   OH267062   5.080   1.348  15.385  0.0059  0.3012  0.4849
15216TIP3    H167063   5.069   1.427  15.332  1.0740  0.0480 -0.1438
15216TIP3    H267064   5.057   1.276  15.326 -2.2276  0.1698  1.4332
15217TIP3   OH267065   3.635   1.678  11.211 -0.5110 -0.9754 -0.1030
15217TIP3    H167066   3.593   1.598  11.179  1.2751 -1.7429 -0.6855
15217TIP3    H267067   3.639   1.735  11.135  0.5694 -1.3956 -0.3739
15218TIP3   OH267068   0.449   3.301  13.415 -0.4306 -0.3198  0.5367
15218TIP3    H167069   0.466   3.256  13.333  0.8019 -1.6213  1.4646
15218TIP3    H267070   0.479   3.391  13.401  1.9028 -1.1025  0.2577
15219TIP3   OH267071   6.736   2.989   0.608  0.2442  0.1951 -0.0689
15219TIP3    H167072   6.831   2.988   0.621  0.3285 -0.0656 -0.6829
15219TIP3    H267073   6.701   2.944   0.684  0.7174 -1.2366 -0.6757
15220TIP3   OH267074   3.460   0.159   5.057  0.3373 -0.4621 -0.7756
15220TIP3    H167075   3.427   0.241   5.093 -1.5056 -1.6862  0.4999
15220TIP3    H267076   3.542   0.143   5.104 -0.5746 -0.5848  0.8319
15221TIP3   OH267077   2.297   3.364  11.666 -0.1987  0.1194  0.1309
15221TIP3    H167078   2.255   3.308  11.601 -1.4967  2.2687 -0.9827
15221TIP3    H267079   2.233   3.372  11.736 -0.5489  1.1720 -0.2907
15222TIP3   OH267080   6.393   4.511  14.847 -0.3117  0.1268  0.7000
15222TIP3    H167081   6.349   4.596  14.857 -1.4516 -0.6178  2.2723
15222TIP3    H267082   6.387   4.470  14.933  2.2237 -0.6438  0.5809
15223TIP3   OH267083   0.054   4.995   4.368 -0.3829  0.1343 -0.0384
15223TIP3    H167084   0.122   4.927   4.371 -0.0604  0.4763  0.9075
15223TIP3    H267085   0.103   5.077   4.372 -0.8270  0.3926  0.1067
15224TIP3   OH267086   4.098   6.604  11.605 -0.3727 -0.2837 -0.1832
15224TIP3    H167087   4.077   6.673  11.542  2.2998  0.3237 -0.5537
15224TIP3    H267088   4.082   6.522  11.559  0.2721  0.1480 -1.2101
15225TIP3   OH267089   1.927   1.782  16.141 -0.4400 -0.2434 -0.1709
15225TIP3    H167090   1.866   1.728  16.091 -0.2488 -0.5902 -0.0308
15225TIP3    H267091   1.882   1.866  16.150 -1.5720 -0.9482  1.2402
15226TIP3   OH267092   3.341   1.931   0.951 -0.1231 -0.1926 -0.4243
15226TIP3    H167093   3.247   1.934   0.933  0.1995  0.9491 -2.2077
15226TIP3    H267094   3.382   1.957   0.868  1.7566 -0.4038  0.3893
15227TIP3   OH267095   1.896   4.219   5.022 -0.1117 -0.1850  0.1084
15227TIP3    H167096   1.988   4.216   5.050 -0.0560  1.1780  0.1420
15227TIP3    H267097   1.847   4.186   5.096  0.2575  0.5512  0.6942
15228TIP3   OH267098   2.516   0.441   1.963 -0.2534 -0.3832 -0.0421
15228TIP3    H167099   2.595   0.486   1.933  1.3059 -2.3500  0.8973
15228TIP3    H267100   2.499   0.375   1.896 -0.0583 -1.0902  0.5887
15229TIP3   OH267101   2.354   5.568  11.843  0.1484  0.6673 -0.5021
15229TIP3    H167102   2.272   5.580  11.892 -0.6647 -0.3383 -1.5646
15229TIP3    H267103   2.421   5.561  11.911 -0.5484  1.9734  0.3874
15230TIP3   OH267104   1.905   5.388   2.447  0.3593 -1.1025 -0.0736
15230TIP3    H167105   1.979   5.350   2.399 -0.0314  0.3963 -1.9746
15230TIP3    H267106   1.945   5.442   2.514  1.0632  0.1687 -1.4605
15231TIP3   OH267107   1.608   2.378  12.062  0.0047 -0.3281  0.0973
15231TIP3    H167108   1.599   2.467  12.028 -2.1378 -0.7603 -0.6094
15231TIP3    H267109   1.592   2.387  12.156 -0.6360 -0.0129 -0.0373
15232TIP3   OH267110   1.120   2.421  11.701  0.0722 -0.3180 -0.9539
15232TIP3    H167111   1.110   2.516  11.697  1.1438 -0.2193 -1.9026
15232TIP3    H267112   1.142   2.395  11.612  0.3883 -1.3848 -0.5873
15233TIP3   OH267113   4.450   1.613   5.243  0.2913  0.5433  0.1754
15233TIP3    H167114   4.435   1.577   5.155  1.6314  1.6417 -0.5469
15233TIP3    H267115   4.465   1.537   5.298 -1.0191 -0.1962 -0.4300
15234TIP3   OH267116   5.303   3.290   4.291 -0.1431  0.1614  0.5088
15234TIP3    H167117   5.261   3.241   4.362 -0.9308 -1.5669 -1.0770
15234TIP3    H267118   5.249   3.369   4.281 -0.6521 -0.0986  1.1097
15235TIP3   OH267119   6.689   4.393  17.276  0.2460 -0.2590 -0.1081
15235TIP3    H167120   6.783   4.399  17.293 -0.0475 -0.3709  1.8077
15235TIP3    H267121   6.682   4.366  17.184  1.9795  3.1355 -1.3666
15236TIP3   OH267122   3.531   5.977   5.141  0.3782  0.1393 -0.4261
15236TIP3    H167123   3.528   5.954   5.234 -1.2460  1.3607 -0.1383
15236TIP3    H267124   3.525   6.073   5.140 -1.0725  0.0696 -1.8124
15237TIP3   OH267125   3.687   0.346   3.294 -0.1900 -0.9310  0.4414
15237TIP3    H167126   3.621   0.398   3.248  1.1869  0.4995 -0.0013
15237TIP3    H267127   3.731   0.297   3.225  1.1279  0.3671  0.2976
15238TIP3   OH267128   3.424   1.585  12.577 -0.2130 -0.8375 -0.0764
15238TIP3    H167129   3.444   1.491  12.581 -0.8664 -0.9264  1.5911
15238TIP3    H267130   3.343   1.589  12.526  0.3891 -1.0599 -1.0840
15239TIP3   OH267131   0.890   5.920  17.366 -0.2197  0.1413  0.7982
15239TIP3    H167132   0.830   5.916  17.291  0.3168 -0.8841  0.4203
15239TIP3    H267133   0.942   5.999  17.351 -0.8226  0.5226  0.6503
15240TIP3   OH267134   2.273   4.055   5.413 -0.0236 -0.5270 -0.1505
15240TIP3    H167135   2.322   4.032   5.491 -0.0498 -1.4222 -0.3887
15240TIP3    H267136   2.201   4.109   5.445  0.2529 -0.4704  0.3794
15241TIP3   OH267137   6.183   6.131   4.963  0.2884  0.0214  0.2701
15241TIP3    H167138   6.130   6.167   4.892  0.1289  0.1875  0.4731
15241TIP3    H267139   6.155   6.178   5.041 -0.0058 -0.6262  0.5604
15242TIP3   OH267140   3.907   6.749   2.626  0.2278  0.7394 -0.4066
15242TIP3    H167141   3.905   6.844   2.638 -1.1722  0.8389 -1.2654
15242TIP3    H267142   3.817   6.721   2.640  0.6990 -0.5398  0.2511
15243TIP3   OH267143   2.920   1.085   4.192 -0.0701 -0.0948  0.1663
15243TIP3    H167144   2.881   1.017   4.137  0.9535 -1.7629  1.3865
15243TIP3    H267145   2.850   1.109   4.253 -0.8438  0.9316 -1.0860
15244TIP3   OH267146   2.064   3.997  11.893 -0.3273  0.2566  0.2210
15244TIP3    H167147   2.093   4.087  11.908  1.6030 -0.3995  0.7635
15244TIP3    H267148   2.051   3.961  11.981  1.3129 -0.6765  0.1333
15245TIP3   OH267149   2.029   4.615   2.222 -0.0448 -0.2796  0.5208
15245TIP3    H167150   2.036   4.639   2.314  2.9571 -0.8252  0.5458
15245TIP3    H267151   2.077   4.683   2.176 -0.7003 -0.5300 -0.5570
15246TIP3   OH267152   4.161   6.397   1.378 -0.4437 -0.2024 -0.1709
15246TIP3    H167153   4.241   6.347   1.397 -0.2447  0.6882  1.5231
15246TIP3    H267154   4.179   6.484   1.413 -1.6339  0.4207 -1.0634
15247TIP3   OH267155   6.670   5.297   2.909 -0.4994  0.3680 -0.1845
15247TIP3    H167156   6.617   5.354   2.965  0.6332  1.4285 -0.1457
15247TIP3    H267157   6.758   5.334   2.914  0.0023 -0.6326 -1.2019
15248TIP3   OH267158   2.352   3.189   1.759  0.6755 -0.0801  0.2308
15248TIP3    H167159   2.318   3.100   1.748  2.5180 -0.9205  0.8330
15248TIP3    H267160   2.317   3.238   1.685  0.9067 -1.7298 -1.0359
15249TIP3   OH267161   5.825   0.480  11.088  0.5374  0.2045  0.1501
15249TIP3    H167162   5.744   0.463  11.041  0.4394  2.6862 -0.7553
15249TIP3    H267163   5.895   0.456  11.026  0.4889 -0.6724  0.4262
15250TIP3   OH267164   4.277   5.032  14.967  0.1593 -0.1386 -0.0923
15250TIP3    H167165   4.265   5.127  14.959 -0.3095 -0.2400 -0.6742
15250TIP3    H267166   4.355   5.013  14.915 -1.3674 -0.4344 -2.4395
15251TIP3   OH267167   6.269   2.860   5.543 -0.3991  0.1854  0.2372
15251TIP3    H167168   6.270   2.928   5.610  0.2527 -1.0434  1.5229
15251TIP3    H267169   6.207   2.796   5.574 -0.8165  0.0454 -0.8385
15252TIP3   OH267170   1.466   2.820  13.629  0.1318 -0.7132  0.4521
15252TIP3    H167171   1.501   2.828  13.540 -0.4781 -2.3551  0.0189
15252TIP3    H267172   1.389   2.877  13.629  0.6090 -0.0530  0.2030
15253TIP3   OH267173   3.431   1.202   0.043 -0.3869  0.0945  0.1972
15253TIP3    H167174   3.384   1.285   0.039 -1.1698 -0.3513 -0.1191
15253TIP3    H267175   3.501   1.217   0.107  0.8646  1.6535 -1.4367
15254TIP3   OH267176   6.183   4.429   4.743 -0.4910 -0.1987 -0.4919
15254TIP3    H167177   6.128   4.457   4.670 -1.7046 -0.9107  0.1301
15254TIP3    H267178   6.138   4.353   4.780  0.7861 -0.6625  0.1864
15255TIP3   OH267179   1.354   2.084   4.974 -0.2569  0.2050  0.1223
15255TIP3    H167180   1.316   2.094   4.887  1.0435  2.0009 -0.3149
15255TIP3    H267181   1.442   2.050   4.958 -0.9515 -2.1347  0.9772
15256TIP3   OH267182   4.668   1.897  14.079 -0.2128 -0.1008  0.3372
15256TIP3    H167183   4.616   1.828  14.121 -1.3156  0.0066 -0.7970
15256TIP3    H267184   4.749   1.900  14.130 -0.9503 -0.8846  1.6067
15257TIP3   OH267185   5.327   2.765  12.220 -0.2239 -0.2543 -0.3588
15257TIP3    H167186   5.405   2.711  12.207 -0.2067 -0.1991 -0.4864
15257TIP3    H267187   5.267   2.708  12.268  0.0896 -0.1224  0.1941
15258TIP3   OH267188   0.545   1.291  11.398  0.0831 -0.1647  0.3692
15258TIP3    H167189   0.480   1.250  11.341 -0.4088  0.6317  0.3423
15258TIP3    H267190   0.532   1.385  11.385 -0.1820  0.0393  1.9651
15259TIP3   OH267191   6.392   3.628   4.313  0.0940 -0.2742 -0.1012
15259TIP3    H167192   6.408   3.587   4.398 -1.7107  0.5925  0.7047
15259TIP3    H267193   6.298   3.618   4.299 -0.5070  3.5688  0.1749
15260TIP3   OH267194   2.064   0.610   2.881  1.2888  0.0916 -0.9217
15260TIP3    H167195   2.025   0.695   2.904  1.2562  0.1195 -1.0781
15260TIP3    H267196   2.036   0.551   2.950  2.5700  0.5660  0.0300
15261TIP3   OH267197   2.433   2.939  17.016 -0.1857  0.0128  0.1472
15261TIP3    H167198   2.442   2.903  17.104 -1.5331  1.5638  0.9838
15261TIP3    H267199   2.348   2.905  16.985  0.0604 -0.1386 -0.3765
15262TIP3   OH267200   1.950   5.185  16.790 -0.0638 -0.0097 -0.1941
15262TIP3    H167201   2.029   5.198  16.842 -0.3570 -0.9887  0.5137
15262TIP3    H267202   1.967   5.234  16.709  1.6265 -0.9142 -0.4289
15263TIP3   OH267203   0.852   6.688   0.735 -0.8099 -0.1189  0.5158
15263TIP3    H167204   0.802   6.637   0.798  0.9342 -0.8732  1.3553
15263TIP3    H267205   0.838   6.779   0.760 -2.7616 -0.2224 -0.0779
15264TIP3   OH267206   1.504   0.930  16.449 -0.3316  0.3535  0.5714
15264TIP3    H167207   1.532   1.019  16.428  0.2966  0.7269  2.7935
15264TIP3    H267208   1.551   0.907  16.529 -0.6919 -1.8915  0.2148
15265TIP3   OH267209   5.441   1.944  15.559  0.4891 -0.2938  0.1674
15265TIP3    H167210   5.482   1.963  15.643  1.6702  0.6389 -0.5863
15265TIP3    H267211   5.361   1.997  15.558 -0.8175 -2.0858  1.6308
15266TIP3   OH267212   6.193   0.567  15.097 -0.5331 -0.9265 -0.0317
15266TIP3    H167213   6.271   0.521  15.066  0.7509  0.7255  0.6157
15266TIP3    H267214   6.161   0.514  15.170  0.9867 -0.7469  0.7915
15267TIP3   OH267215   0.681   2.038   4.573 -0.3493  0.2744  0.0013
15267TIP3    H167216   0.690   2.107   4.506  0.3822  0.7847  0.6025
15267TIP3    H267217   0.746   1.973   4.548 -0.3674  0.2661 -0.0241
15268TIP3   OH267218   0.278   2.610  13.245 -0.9976  0.1343 -0.0962
15268TIP3    H167219   0.335   2.654  13.309 -0.4123 -1.4884  0.5722
15268TIP3    H267220   0.191   2.614  13.285 -0.8441  0.1704  0.2444
15269TIP3   OH267221   0.378   2.508  14.552  0.1102  0.1708  0.2593
15269TIP3    H167222   0.407   2.592  14.588 -1.4737  1.8840 -2.1463
15269TIP3    H267223   0.427   2.498  14.471 -0.3200 -0.8179  0.1044
15270TIP3   OH267224   1.292   0.089  16.557 -0.0941  0.2426  0.5715
15270TIP3    H167225   1.303  -0.006  16.553 -1.4399  0.0782 -0.1081
15270TIP3    H267226   1.283   0.116  16.466 -1.1559  0.8009  0.8180
15271TIP3   OH267227   6.256   5.891  13.781 -0.0100  0.2642 -0.3544
15271TIP3    H167228   6.331   5.907  13.724 -0.2703  0.0356 -0.7654
15271TIP3    H267229   6.205   5.824  13.736  0.0198 -0.2639  0.3667
15272TIP3   OH267230   6.506   5.794  12.748  0.1756  0.1783  0.5541
15272TIP3    H167231   6.440   5.854  12.712 -0.6977 -0.4040  1.1344
15272TIP3    H267232   6.542   5.748  12.672 -0.2379  0.3518  0.2502
15273TIP3   OH267233   5.086   3.078  14.205 -0.0055  0.1292  0.6075
15273TIP3    H167234   5.143   3.029  14.146 -0.9462 -0.3950  0.1227
15273TIP3    H267235   5.041   3.140  14.148 -0.6940 -0.1732  0.8185
15274TIP3   OH267236   1.512   1.107   4.740 -0.4461 -0.1967 -0.0532
15274TIP3    H167237   1.463   1.025   4.748 -1.5279  0.5014  0.8344
15274TIP3    H267238   1.452   1.174   4.774  0.9553  0.7650  0.6119
15275TIP3   OH267239   4.531   2.937   1.305  0.0773  0.4282  0.2714
15275TIP3    H167240   4.563   2.994   1.235 -1.0345 -0.0586 -0.6583
15275TIP3    H267241   4.580   2.855   1.293 -1.2861 -0.2419 -1.0185
15276TIP3   OH267242   0.789   1.335  10.377  0.1729  0.4761 -0.2998
15276TIP3    H167243   0.881   1.349  10.352 -0.2722  1.2437 -1.6261
15276TIP3    H267244   0.743   1.412  10.343 -1.0064 -0.0301  0.1017
15277TIP3   OH267245   5.308   5.267  15.877 -0.2219 -0.1989  0.2900
15277TIP3    H167246   5.312   5.185  15.827  0.8620  0.1682 -0.2605
15277TIP3    H267247   5.333   5.242  15.966 -0.4135 -0.5538  0.2458
15278TIP3   OH267248   2.834   1.214   0.410  0.4915 -0.5276  0.2684
15278TIP3    H167249   2.929   1.207   0.403  0.6695  1.4464  0.0243
15278TIP3    H267250   2.819   1.259   0.493 -0.3330 -2.0629  0.9844
15279TIP3   OH267251   5.226   0.826   5.258  0.0877  0.2662  0.0517
15279TIP3    H167252   5.257   0.741   5.225  0.2100  0.0274  0.7587
15279TIP3    H267253   5.306   0.871   5.284 -0.0211  0.3475  0.2484
15280TIP3   OH267254   5.502   3.695  16.175  0.5951 -0.5119 -0.3671
15280TIP3    H167255   5.414   3.660  16.163  0.9167 -0.9564 -1.6542
15280TIP3    H267256   5.559   3.619  16.161  1.1783 -0.3145  0.8456
15281TIP3   OH267257   2.867   2.194  16.575 -0.3311  0.2840  0.1408
15281TIP3    H167258   2.825   2.238  16.649 -0.7931 -3.0363  2.0298
15281TIP3    H267259   2.797   2.186  16.509 -1.4183 -1.0338  1.3883
15282TIP3   OH267260   3.376   1.110   2.366  0.2479  0.0163 -0.1759
15282TIP3    H167261   3.356   1.169   2.294  0.4257  1.3132  0.8076
15282TIP3    H267262   3.301   1.119   2.426  1.9235  2.1520  1.7839
15283TIP3   OH267263   5.717   4.183  11.954  0.0688  0.2383 -0.2533
15283TIP3    H167264   5.791   4.227  11.912  1.7825 -1.2295  1.0572
15283TIP3    H267265   5.686   4.245  12.020  0.6006  0.6054 -0.3452
15284TIP3   OH267266   2.725   2.814   1.826 -0.6706  0.0238 -0.0932
15284TIP3    H167267   2.781   2.780   1.756 -0.5995  1.8345 -0.9746
15284TIP3    H267268   2.782   2.875   1.874 -1.4629  0.7882 -0.1102
15285TIP3   OH267269   0.209   1.211   2.393  0.3801  0.2121 -0.1188
15285TIP3    H167270   0.130   1.175   2.433 -0.0410  0.4868 -0.6966
15285TIP3    H267271   0.216   1.300   2.430  1.1500 -0.2618  0.9318
15286TIP3   OH267272   0.014   1.582  15.384 -0.2185 -0.2006 -0.3012
15286TIP3    H167273  -0.039   1.620  15.314 -1.6258  0.2134  0.9423
15286TIP3    H267274   0.052   1.658  15.429 -0.5707 -0.3927  0.3275
15287TIP3   OH267275   5.614   2.207   4.057 -0.4036  0.6098 -0.1077
15287TIP3    H167276   5.541   2.146   4.060  1.0187 -1.1372  0.5545
15287TIP3    H267277   5.599   2.266   4.131 -0.2568 -0.8488  1.1434
15288TIP3   OH267278   6.481   1.144   0.303 -0.1174 -0.0676  0.0479
15288TIP3    H167279   6.416   1.209   0.329 -1.5267 -1.9570  1.5435
15288TIP3    H267280   6.543   1.141   0.376  0.4305  0.1795 -0.3969
15289TIP3   OH267281   4.762   3.477   4.470 -0.6037 -0.1678 -0.0250
15289TIP3    H167282   4.732   3.523   4.549  0.7312 -0.2490  0.5533
15289TIP3    H267283   4.771   3.546   4.404 -2.5363 -0.2129 -0.3992
15290TIP3   OH267284   4.208   1.371  12.499  0.1701 -0.1681  0.9411
15290TIP3    H167285   4.218   1.281  12.528  1.8991  0.0266  1.0511
15290TIP3    H267286   4.200   1.422  12.579 -1.7474 -0.2820  0.8630
15291TIP3   OH267287   4.129   6.114  14.717 -0.3384 -0.7762 -0.0021
15291TIP3    H167288   4.036   6.098  14.733 -0.6096  1.1687  0.5959
15291TIP3    H267289   4.131   6.186  14.654  0.7556 -0.6445  0.1581
15292TIP3   OH267290   5.542   0.032   4.511  0.1611 -0.0266  0.0145
15292TIP3    H167291   5.599  -0.040   4.484  0.5731  0.2132  0.2250
15292TIP3    H267292   5.475   0.037   4.443 -0.7581 -1.5635  0.7489
15293TIP3   OH267293   5.271   3.266   5.869  0.5622  0.4801  0.8571
15293TIP3    H167294   5.312   3.352   5.859 -0.0042  0.8320  1.4698
15293TIP3    H267295   5.229   3.250   5.784  1.0648  0.5910  0.5807
15294TIP3   OH267296   0.075   3.960  11.189 -0.0048  0.1107 -0.0712
15294TIP3    H167297   0.009   4.013  11.145 -0.3232 -0.6096 -0.4746
15294TIP3    H267298   0.133   3.930  11.118  0.4930  0.3627  0.2204
15295TIP3   OH267299   3.695   0.817   3.980  0.3730  0.0073 -0.2894
15295TIP3    H167300   3.697   0.739   3.925  1.5568  0.3308 -0.7180
15295TIP3    H267301   3.647   0.790   4.058 -2.2020 -0.2066 -1.8293
15296TIP3   OH267302   3.231   3.795  14.275  0.0619 -0.1439  0.0332
15296TIP3    H167303   3.234   3.874  14.330 -1.7484 -0.6527  0.9269
15296TIP3    H267304   3.246   3.828  14.186  1.1219  0.9553  0.5847
15297TIP3   OH267305   3.439   5.429  11.043 -0.0331 -0.2698 -0.2703
15297TIP3    H167306   3.394   5.370  10.981 -0.4494  1.9489 -2.2244
15297TIP3    H267307   3.531   5.422  11.019  0.3752 -2.4112  1.6202
15298TIP3   OH267308   3.192   6.419  17.218  0.1910 -0.2212  0.2447
15298TIP3    H167309   3.201   6.500  17.267 -0.9306 -0.8963  1.6342
15298TIP3    H267310   3.150   6.358  17.278  2.4093 -2.3687 -0.1875
15299TIP3   OH267311   5.784   5.378   5.669 -0.7471 -0.8763 -0.0612
15299TIP3    H167312   5.792   5.291   5.630  1.5810  0.2844 -2.5034
15299TIP3    H267313   5.874   5.404   5.688 -1.4664  0.6501  1.5474
15300TIP3   OH267314   6.519   3.650  15.826  0.0825  0.6843 -0.3327
15300TIP3    H167315   6.495   3.728  15.876 -0.0891  0.4916 -0.1144
15300TIP3    H267316   6.544   3.586  15.892 -0.5985  0.2699 -0.4663
15301TIP3   OH267317   5.445   2.610   1.095  0.3261  0.1327 -0.0513
15301TIP3    H167318   5.451   2.555   1.017 -1.8144 -0.9199  0.4473
15301TIP3    H267319   5.450   2.549   1.168 -0.8753  0.7116  0.5459
15302TIP3   OH267320   3.952   6.691  17.285  0.4670 -0.2363 -0.2342
15302TIP3    H167321   3.884   6.754  17.308 -1.5382 -2.4722  0.3311
15302TIP3    H267322   3.994   6.670  17.369  0.7840 -0.0655 -0.3462
15303TIP3   OH267323   5.695   3.108   3.392  0.0648  0.2036  0.4353
15303TIP3    H167324   5.701   3.015   3.412 -1.7497  0.5589  3.1038
15303TIP3    H267325   5.721   3.153   3.472  0.5919  2.0252 -0.6782
15304TIP3   OH267326   3.279   3.408  12.936 -0.1653 -0.5989 -0.0381
15304TIP3    H167327   3.293   3.465  12.860 -0.2147 -0.8182 -0.2145
15304TIP3    H267328   3.272   3.320  12.898  0.2239 -0.7578  0.2626
15305TIP3   OH267329   4.742   6.733   5.416  0.3744  0.4298 -0.6049
15305TIP3    H167330   4.711   6.790   5.346 -0.6518 -2.3682 -2.6214
15305TIP3    H267331   4.692   6.652   5.406  1.2446 -0.6649  2.4963
15306TIP3   OH267332   5.272   3.724   5.935  0.3977  0.0659  0.4775
15306TIP3    H167333   5.355   3.771   5.923  1.0384 -1.4421 -1.7311
15306TIP3    H267334   5.296   3.631   5.932 -1.0976 -0.4500  2.4803
15307TIP3   OH267335   5.328   0.364  13.562 -0.2110  0.2969  0.1097
15307TIP3    H167336   5.346   0.272  13.542 -0.7320  0.3783 -0.7878
15307TIP3    H267337   5.375   0.413  13.494  0.6148  0.7314  0.9739
15308TIP3   OH267338   6.748   6.654   3.953  0.3018  0.1319  0.3918
15308TIP3    H167339   6.669   6.632   4.002  0.5891 -0.7652  0.4780
15308TIP3    H267340   6.819   6.611   4.000  0.5951 -0.6940 -0.7428
15309TIP3   OH267341   0.152   1.552   0.180 -0.1757 -0.6055  0.2411
15309TIP3    H167342   0.184   1.630   0.226 -0.2234  0.2951 -1.1686
15309TIP3    H267343   0.179   1.479   0.235  3.5940  0.1212 -0.3817
15310TIP3   OH267344   6.496   2.590  16.729 -0.0172  0.7209  0.2592
15310TIP3    H167345   6.402   2.573  16.729 -0.1033  1.1023 -0.9350
15310TIP3    H267346   6.505   2.673  16.683  0.9183  0.6513  0.2986
15311TIP3   OH267347   6.248   4.933   5.441  0.1991 -0.1603  0.0010
15311TIP3    H167348   6.337   4.957   5.417 -0.2690  0.4964 -1.2084
15311TIP3    H267349   6.257   4.848   5.485  1.7090  1.3577  2.8386
15312TIP3   OH267350   0.214   3.069   1.242  0.0656 -0.2020 -0.1544
15312TIP3    H167351   0.200   3.076   1.147  3.2972 -0.2135 -0.7433
15312TIP3    H267352   0.186   3.154   1.276 -0.2019  0.1759 -1.2788
15313TIP3   OH267353   0.372   5.790  13.498  0.8188 -0.3534  0.0018
15313TIP3    H167354   0.385   5.765  13.406  0.6122  0.5674 -0.2828
15313TIP3    H267355   0.300   5.734  13.527  1.4589 -1.2760 -0.1295
15314TIP3   OH267356   5.727   6.595   1.784 -0.5613  0.7379  0.5297
15314TIP3    H167357   5.789   6.533   1.746 -0.5599 -0.9199  3.0070
15314TIP3    H267358   5.782   6.660   1.828 -0.5315  0.2224  1.2810
15315TIP3   OH267359   2.391   4.043   4.952 -0.2826 -0.2616  0.5505
15315TIP3    H167360   2.334   3.978   4.911  0.9855 -0.8173 -0.4198
15315TIP3    H267361   2.397   4.016   5.043 -0.3562 -1.0967  0.3206
15316TIP3   OH267362   2.662   5.727   3.396 -0.2008 -0.0294 -0.1087
15316TIP3    H167363   2.694   5.804   3.443  0.7677  0.2556 -1.1667
15316TIP3    H267364   2.680   5.747   3.304  2.1397 -2.4217 -0.2805
15317TIP3   OH267365   1.569   3.874  12.129 -0.2750  0.4542  0.1792
15317TIP3    H167366   1.577   3.899  12.221 -0.8176 -0.7583  0.5755
15317TIP3    H267367   1.528   3.787  12.131  0.9116 -0.1683 -1.1552
15318TIP3   OH267368   3.823   5.774  16.379  0.1061  0.5172 -0.2525
15318TIP3    H167369   3.728   5.765  16.373  0.0082 -0.2977  1.8345
15318TIP3    H267370   3.857   5.692  16.343 -0.1986 -1.0883  2.8059
15319TIP3   OH267371   0.686   2.750   4.631 -1.0447  0.1112 -0.4329
15319TIP3    H167372   0.719   2.776   4.545  0.1727  0.7497  0.2110
15319TIP3    H267373   0.656   2.660   4.618  0.2115 -0.2150 -1.2613
15320TIP3   OH267374   3.985   5.447  16.744 -0.5792 -0.1193 -0.2709
15320TIP3    H167375   3.907   5.500  16.730 -0.6464  0.2471  1.3400
15320TIP3    H267376   3.952   5.366  16.785 -0.4272 -1.2644 -2.2724
15321TIP3   OH267377   5.422   2.073   5.658 -0.2421 -0.4982  0.6101
15321TIP3    H167378   5.416   2.168   5.654  0.5134 -0.4243 -4.0947
15321TIP3    H267379   5.510   2.056   5.690  0.7390  0.5975 -1.3187
15322TIP3   OH267380   5.759   1.377   4.204 -0.1352  0.8657 -0.5984
15322TIP3    H167381   5.770   1.470   4.182  1.0879  1.2888  1.5037
15322TIP3    H267382   5.821   1.331   4.147  0.7624  1.5787 -0.2284
15323TIP3   OH267383   2.982   2.142  13.200  0.3675  0.3748 -0.1641
15323TIP3    H167384   2.932   2.170  13.277  1.4799 -1.1370  1.1662
15323TIP3    H267385   3.047   2.211  13.187  0.5103  0.3872  0.5896
15324TIP3   OH267386   1.426   6.407  12.449  0.1026  0.0096  0.3412
15324TIP3    H167387   1.492   6.347  12.413  0.9683  1.2852 -0.2590
15324TIP3    H267388   1.457   6.426  12.537 -2.1967 -3.3865  2.0969
15325TIP3   OH267389   5.406   4.471   0.447  0.3097 -0.8513  0.6071
15325TIP3    H167390   5.428   4.558   0.481  0.1899  0.0879 -1.5067
15325TIP3    H267391   5.310   4.466   0.456  0.0584  0.1209 -1.0286
15326TIP3   OH267392   3.335   2.354  10.996  0.4427  0.1898 -0.1760
15326TIP3    H167393   3.279   2.288  11.038  1.3493 -0.3976  0.1445
15326TIP3    H267394   3.274   2.420  10.963 -0.6409 -1.5476 -1.8696
15327TIP3   OH267395   1.980   2.938  15.817 -0.3208 -0.3788 -0.7176
15327TIP3    H167396   2.070   2.906  15.821 -0.4068 -0.7489 -1.6666
15327TIP3    H267397   1.927   2.866  15.851 -0.3645 -0.5985 -1.2564
15328TIP3   OH267398   1.124   4.284  12.347 -0.0701  0.0471 -0.5818
15328TIP3    H167399   1.083   4.237  12.420  0.9448 -2.0228 -1.2520
15328TIP3    H267400   1.079   4.251  12.270 -0.3554  1.3603 -0.9893
15329TIP3   OH267401   5.852   3.499   6.014  0.2830  0.3015  0.1747
15329TIP3    H167402   5.767   3.535   5.987  0.0260  1.0977  1.8672
15329TIP3    H267403   5.830   3.431   6.077  0.8963  0.6089  0.7301
15330TIP3   OH267404   6.018   0.557   0.495  0.2610  0.3995  0.9167
15330TIP3    H167405   6.071   0.634   0.517 -0.1366  1.6870 -2.2003
15330TIP3    H267406   5.927   0.588   0.500  0.1236  0.4500 -1.1545
15331TIP3   OH267407   2.913   1.640  13.565  0.1807 -0.3842 -0.0694
15331TIP3    H167408   2.830   1.599  13.539  0.6265  0.6316 -3.6865
15331TIP3    H267409   2.887   1.712  13.622 -1.2222 -1.3039  0.5025
15332TIP3   OH267410   1.416   6.364  13.742 -0.4171 -0.0604 -0.0461
15332TIP3    H167411   1.458   6.366  13.827 -0.0603  0.7319 -0.2371
15332TIP3    H267412   1.362   6.284  13.744  1.1102 -1.1382  0.1829
15333TIP3   OH267413   3.197   3.776   4.479  0.1946  0.4180  0.4152
15333TIP3    H167414   3.148   3.694   4.481  1.1396 -0.1456  0.5134
15333TIP3    H267415   3.230   3.787   4.568 -0.1729  1.0588  0.4786
15334TIP3   OH267416   2.267   6.138  14.634 -0.0759  0.0785  0.0824
15334TIP3    H167417   2.270   6.077  14.561 -1.7421  1.4600 -1.2246
15334TIP3    H267418   2.357   6.141  14.667  0.8448 -0.2388 -2.2172
15335TIP3   OH267419   3.549   2.930  17.297 -0.2798  0.5662  0.2987
15335TIP3    H167420   3.617   2.927  17.230 -1.0754  0.9701 -0.5379
15335TIP3    H267421   3.598   2.925  17.380  0.6351 -1.1761 -0.2927
15336TIP3   OH267422   0.820   4.674  17.367 -0.4060  0.7865  0.4708
15336TIP3    H167423   0.868   4.668  17.450  1.0442 -2.7583 -0.4009
15336TIP3    H267424   0.887   4.696  17.303 -0.4166 -1.3723 -0.3649
15337TIP3   OH267425   5.293   4.454   1.402  0.2950 -0.4526  0.1214
15337TIP3    H167426   5.372   4.423   1.359  0.0695 -0.6767 -0.1375
15337TIP3    H267427   5.315   4.456   1.495  1.2514  1.4016 -0.1037
15338TIP3   OH267428   3.338   5.569   5.770  0.1632 -0.1165  0.0173
15338TIP3    H167429   3.364   5.585   5.861 -1.2785  0.5782  0.3315
15338TIP3    H267430   3.261   5.513   5.777  0.6129 -0.8527 -0.8260
15339TIP3   OH267431   3.935   3.647  14.859  0.0804 -0.1661  0.1594
15339TIP3    H167432   3.863   3.588  14.836 -0.1029  0.1972 -0.2279
15339TIP3    H267433   3.995   3.594  14.911  0.3074 -0.9062 -0.8341
15340TIP3   OH267434   4.222   4.586   2.326 -0.2225  0.0263 -0.1270
15340TIP3    H167435   4.240   4.492   2.337  1.0933  0.4915  2.6094
15340TIP3    H267436   4.173   4.611   2.404 -0.4675  1.6551 -0.7567
15341TIP3   OH267437   2.054   6.661  12.695 -0.1712 -0.1706  0.1660
15341TIP3    H167438   1.969   6.618  12.687 -0.4665  0.2723  0.7580
15341TIP3    H267439   2.107   6.625  12.625 -0.4092 -1.4910  0.6418
15342TIP3   OH267440   3.863   2.355   3.248  0.1772  0.0741 -0.6053
15342TIP3    H167441   3.776   2.375   3.283  0.2139  1.4580 -1.2327
15342TIP3    H267442   3.846   2.316   3.162  0.1419  2.8236 -1.9608
15343TIP3   OH267443   4.876   2.185   0.121  0.1074  0.7501 -0.3853
15343TIP3    H167444   4.919   2.256   0.075 -0.5763  0.5537 -1.3588
15343TIP3    H267445   4.837   2.226   0.199 -0.1283  1.4070 -0.8454
15344TIP3   OH267446   5.433   4.827   3.058  0.8979  0.0776 -0.4636
15344TIP3    H167447   5.509   4.772   3.042  0.3319 -0.4820 -1.3316
15344TIP3    H267448   5.468   4.916   3.067  1.7699 -0.3455  0.4758
15345TIP3   OH267449   2.884   2.401  16.261 -0.1125  0.0491  0.4778
15345TIP3    H167450   2.816   2.350  16.217 -1.2044  2.1879 -0.5016
15345TIP3    H267451   2.837   2.453  16.327  0.8383  0.2319  1.0315
15346TIP3   OH267452   4.529   1.419  10.328  0.2130  0.0493 -0.0136
15346TIP3    H167453   4.449   1.384  10.368  0.9776  1.7456  3.3016
15346TIP3    H267454   4.596   1.354  10.349  0.3713  0.3404  0.3955
15347TIP3   OH267455   0.945   0.562  13.173 -0.2415 -0.2221 -0.0563
15347TIP3    H167456   1.040   0.562  13.163 -0.3011  0.0307 -0.6783
15347TIP3    H267457   0.928   0.498  13.242  0.3833 -0.2174  0.1100
15348TIP3   OH267458   1.637   0.469   5.931 -0.3758  0.0843  0.0602
15348TIP3    H167459   1.610   0.377   5.921 -0.9859  0.2525  0.1398
15348TIP3    H267460   1.733   0.466   5.927 -0.4257 -0.4073 -1.1752
15349TIP3   OH267461   5.681   6.714  15.459 -0.2291 -0.3863 -0.0911
15349TIP3    H167462   5.613   6.730  15.393  0.6121  1.4742 -0.5788
15349TIP3    H267463   5.681   6.793  15.513  0.9463 -0.7417  0.4512
15350TIP3   OH267464   1.918   2.256  15.854 -0.0733 -0.0816  0.1276
15350TIP3    H167465   1.970   2.270  15.933 -0.5155 -0.0451  0.4202
15350TIP3    H267466   1.932   2.335  15.802 -1.1765  0.7170  0.9847
15351TIP3   OH267467   3.118   3.072   0.396 -0.2075  0.1470  0.1554
15351TIP3    H167468   3.120   2.992   0.448  1.2666  0.5440  0.7817
15351TIP3    H267469   3.180   3.055   0.324 -0.4412  0.4588 -0.1212
15352TIP3   OH267470   6.402   5.852  16.527 -0.0786  0.4957 -0.0411
15352TIP3    H167471   6.403   5.760  16.502 -0.4527  0.8327 -1.4053
15352TIP3    H267472   6.313   5.868  16.557 -0.1455  0.5226 -0.2542
15353TIP3   OH267473   4.141   6.539   0.400 -0.2698  0.9131  0.6373
15353TIP3    H167474   4.218   6.496   0.361  2.0728  4.1342  1.2444
15353TIP3    H267475   4.084   6.558   0.326  0.2805 -0.1212 -0.0792
15354TIP3   OH267476   3.404   5.444   4.836  0.0887 -0.2342 -0.5008
15354TIP3    H167477   3.358   5.492   4.768  2.1089  1.1308 -1.0020
15354TIP3    H267478   3.384   5.491   4.917 -1.1742 -1.0146 -0.3335
15355TIP3   OH267479   2.752   1.665   2.960 -0.2193  1.0947  0.8321
15355TIP3    H167480   2.723   1.591   2.906 -1.5224  1.4325  1.0343
15355TIP3    H267481   2.809   1.716   2.903 -0.2533  0.5622  0.3091
15356TIP3   OH267482   3.489   1.679  14.599 -0.7618  0.2656 -0.3083
15356TIP3    H167483   3.563   1.619  14.589 -1.6303 -0.7679 -0.7744
15356TIP3    H267484   3.528   1.761  14.630  0.4915 -0.4470  0.0605
15357TIP3   OH267485   1.060   5.985  11.203  0.6474 -0.1980  0.3331
15357TIP3    H167486   1.132   5.936  11.162  2.6139  0.5549  2.6138
15357TIP3    H267487   1.084   6.077  11.192 -0.2381  0.0861  0.6878
15358TIP3   OH267488   4.931   1.067  15.660  0.1730  0.6147 -0.2921
15358TIP3    H167489   4.998   1.076  15.592 -0.2528  0.0987 -0.7848
15358TIP3    H267490   4.932   1.151  15.705 -0.0602  1.2489 -1.4260
15359TIP3   OH267491   3.249   6.170  17.380  0.6312  0.1613  0.1423
15359TIP3    H167492   3.242   6.216  17.464  0.9895  2.7816 -1.1398
15359TIP3    H267493   3.344   6.164  17.364  0.5880  2.1345 -1.2187
15360TIP3   OH267494   2.393   3.025  14.491  0.2500 -0.1518  0.8433
15360TIP3    H167495   2.312   3.046  14.445  1.8351 -0.6723 -2.4348
15360TIP3    H267496   2.366   3.014  14.583 -3.5912 -1.6415 -0.2817
15361TIP3   OH267497   0.212   1.728  16.377 -0.4030  0.5483 -0.1770
15361TIP3    H167498   0.226   1.784  16.453  2.2603 -0.6762  0.3616
15361TIP3    H267499   0.269   1.764  16.310 -1.3671  0.5494 -1.0181
15362TIP3   OH267500   3.351   3.078   4.084  0.1079 -0.2159  0.0810
15362TIP3    H167501   3.308   3.022   4.019 -1.6735  1.9236 -0.6796
15362TIP3    H267502   3.434   3.103   4.042  0.6533 -1.6970  0.1865
15363TIP3   OH267503   4.627   3.077  12.020  0.2559 -0.3266 -0.4111
15363TIP3    H167504   4.659   2.990  12.045  1.6271  0.5272  0.9521
15363TIP3    H267505   4.706   3.131  12.011 -0.6005  0.9615 -0.5106
15364TIP3   OH267506   3.865   5.224  15.678 -0.1714 -0.2124 -0.9226
15364TIP3    H167507   3.786   5.175  15.654  0.6405 -1.5796 -0.8702
15364TIP3    H267508   3.877   5.286  15.606 -0.6315 -0.7905 -1.5110
15365TIP3   OH267509   2.007   3.267  13.896  0.0042  0.1513  0.2357
15365TIP3    H167510   2.061   3.314  13.959 -0.5681 -0.2202  1.0245
15365TIP3    H267511   1.980   3.187  13.942 -0.8014  0.0908 -0.3119
15366TIP3   OH267512   1.507   4.933  13.308 -0.3644  0.5327  0.0932
15366TIP3    H167513   1.603   4.935  13.301 -0.0436  0.7730  3.2128
15366TIP3    H267514   1.481   4.855  13.258  1.7863 -1.1529  1.4070
15367TIP3   OH267515   1.297   2.539   5.115 -0.1514  0.3947 -0.1329
15367TIP3    H167516   1.286   2.495   5.031 -0.4143  0.7734 -0.2954
15367TIP3    H267517   1.220   2.595   5.124 -0.3562  0.0126  0.5720
15368TIP3   OH267518   2.191   6.413   3.298 -0.8369  0.0163 -0.4387
15368TIP3    H167519   2.207   6.332   3.249  0.1129  1.0230 -1.8377
15368TIP3    H267520   2.095   6.422   3.298 -0.9073 -0.6449 -1.0308
15369TIP3   OH267521   5.781   4.448  14.434  0.0321 -0.0801  0.1470
15369TIP3    H167522   5.826   4.525  14.467  0.0555 -0.5587  1.3008
15369TIP3    H267523   5.842   4.376  14.449 -1.2377 -0.8328  2.2398
15370TIP3   OH267524   5.550   4.412  16.689  0.5776 -0.1384 -0.0738
15370TIP3    H167525   5.463   4.425  16.728  0.1725 -0.3863 -0.8758
15370TIP3    H267526   5.560   4.317  16.685  1.0154 -0.1133  0.2718
15371TIP3   OH267527   1.319   1.167  12.583  0.4336 -0.2469  0.3264
15371TIP3    H167528   1.269   1.092  12.614  0.0184 -0.1652 -0.1528
15371TIP3    H267529   1.253   1.234  12.563  0.7037 -0.2698 -0.6682
15372TIP3   OH267530   2.478   4.435   6.032  0.4434  1.0911 -0.2473
15372TIP3    H167531   2.533   4.430   5.955 -1.2506  1.1281 -1.5180
15372TIP3    H267532   2.452   4.345   6.050 -1.3481  1.3164 -1.4320
15373TIP3   OH267533   6.205   5.856  13.141 -0.2665  0.4073 -0.0108
15373TIP3    H167534   6.296   5.878  13.161  0.6485 -3.0272  0.2884
15373TIP3    H267535   6.179   5.921  13.076  2.7617  0.9260 -0.8912
15374TIP3   OH267536   4.002   1.754  15.345  0.3532 -0.2279  0.3902
15374TIP3    H167537   3.975   1.842  15.320  0.0653 -0.5443 -0.4443
15374TIP3    H267538   4.005   1.705  15.262 -1.9164 -1.6798  1.0747
15375TIP3   OH267539   4.680   3.316   1.013 -0.1998  0.0519  0.2133
15375TIP3    H167540   4.697   3.380   0.944  0.3052  0.3834  0.6374
15375TIP3    H267541   4.674   3.369   1.093 -1.9621 -0.1857  0.2793
15376TIP3   OH267542   3.964   2.856  15.101  0.4519 -0.1664 -0.1868
15376TIP3    H167543   3.943   2.945  15.128  1.9431  0.7724 -1.9145
15376TIP3    H267544   3.891   2.829  15.046  1.2896  1.1908 -2.1023
15377TIP3   OH267545   6.446   5.049   4.157  0.3561 -0.3705  0.0497
15377TIP3    H167546   6.459   4.955   4.151  1.6579 -0.1655 -0.7752
15377TIP3    H267547   6.400   5.062   4.240  1.5888 -1.5908  0.9588
15378TIP3   OH267548   2.019   5.604   5.280  0.0243 -0.4813 -0.3191
15378TIP3    H167549   1.933   5.645   5.269 -0.4605 -1.6948 -1.3712
15378TIP3    H267550   2.010   5.518   5.239  2.8694  0.7813 -4.1514
15379TIP3   OH267551   6.341   0.256   2.044  0.4677 -0.0284  0.5697
15379TIP3    H167552   6.396   0.232   2.120  1.6828 -0.5379 -0.4361
15379TIP3    H267553   6.387   0.331   2.005 -0.1631  0.2365  0.3311
15380TIP3   OH267554   2.469   1.632   2.282  0.2166 -0.0539 -0.1176
15380TIP3    H167555   2.451   1.544   2.316  0.2715 -0.0684 -0.1262
15380TIP3    H267556   2.557   1.653   2.314  1.1629 -0.9218 -1.9764
15381TIP3   OH267557   6.063   1.763   0.968  0.2049 -0.1337  0.0526
15381TIP3    H167558   5.981   1.741   1.013 -0.6557  0.3080 -1.2499
15381TIP3    H267559   6.043   1.755   0.875  0.9746  2.2040 -0.3874
15382TIP3   OH267560   5.788   3.725   2.555 -0.3918  0.6510  0.3801
15382TIP3    H167561   5.834   3.793   2.604 -0.2449  0.0043  1.1837
15382TIP3    H267562   5.697   3.756   2.550 -0.4685  0.6264  1.3042
15383TIP3   OH267563   2.510   0.449   0.805 -0.3070 -0.3290  0.0580
15383TIP3    H167564   2.457   0.393   0.749 -0.7328 -0.8812  0.9843
15383TIP3    H267565   2.551   0.389   0.867  0.4196  0.2300  0.1271
15384TIP3   OH267566   2.849   6.150   1.510  0.5900  0.0425  0.5404
15384TIP3    H167567   2.812   6.217   1.566  0.7343  1.1599 -0.6544
15384TIP3    H267568   2.940   6.175   1.498  0.8684 -0.8269  0.7370
15385TIP3   OH267569   4.767   6.568   1.602 -0.0353 -0.2004  0.2888
15385TIP3    H167570   4.732   6.650   1.568  1.0730 -0.0901 -0.6584
15385TIP3    H267571   4.690   6.513   1.615 -0.7137  0.6678  0.0590
15386TIP3   OH267572   4.692   3.550  12.991  0.1167 -0.6092 -0.2502
15386TIP3    H167573   4.717   3.493  13.063  0.1721 -1.7167 -1.1152
15386TIP3    H267574   4.674   3.491  12.919  2.2729  0.5149 -1.8580
15387TIP3   OH267575   3.649   1.453  14.611  0.0136  0.4284 -0.2560
15387TIP3    H167576   3.660   1.491  14.698  1.1437  0.1355 -0.2453
15387TIP3    H267577   3.700   1.372  14.615  0.7813  0.8279 -1.4411
15388TIP3   OH267578   0.389   0.380   0.558  0.1449  0.3079 -0.0221
15388TIP3    H167579   0.361   0.466   0.588  0.6423  0.9009 -1.2054
15388TIP3    H267580   0.344   0.368   0.474  0.2482 -0.5017  0.0249
15389TIP3   OH267581   3.040   3.619   3.500 -0.5030  0.3007 -0.0693
15389TIP3    H167582   2.956   3.665   3.504 -0.7464 -0.2076  1.1344
15389TIP3    H267583   3.056   3.606   3.406 -2.2705 -0.4801 -0.3073
15390TIP3   OH267584   5.916   3.894  11.918  0.4053 -0.1224 -0.3352
15390TIP3    H167585   5.887   3.976  11.956  0.9660  0.1166 -0.4140
15390TIP3    H267586   6.010   3.905  11.906 -0.0123  0.9326 -4.3453
15391TIP3   OH267587   4.282   0.584  16.661  0.3392 -0.1977 -0.2616
15391TIP3    H167588   4.258   0.637  16.586  1.5818  0.1222 -0.4686
15391TIP3    H267589   4.265   0.494  16.634  0.1016 -0.0349 -0.6573
15392TIP3   OH267590   0.750   1.129   6.135  0.0671  0.0815  0.3079
15392TIP3    H167591   0.785   1.049   6.174 -0.1034  0.3571  1.0409
15392TIP3    H267592   0.814   1.197   6.158  0.2011  0.1604 -0.2909
15393TIP3   OH267593   5.800   5.757   3.178  0.4979 -0.1078  0.0052
15393TIP3    H167594   5.705   5.747   3.186  0.4135  0.0880 -0.6979
15393TIP3    H267595   5.825   5.696   3.109  0.8339  0.1127 -0.0704
15394TIP3   OH267596   5.613   1.703  15.200 -0.0394 -0.2947 -0.3022
15394TIP3    H167597   5.540   1.647  15.228  0.3469 -0.7073 -0.0972
15394TIP3    H267598   5.636   1.753  15.279  2.2048 -2.7221  0.7512
15395TIP3   OH267599   3.493   1.540  12.005 -0.7656  0.2732  0.2735
15395TIP3    H167600   3.472   1.452  12.035  1.8808  0.3832  2.9168
15395TIP3    H267601   3.487   1.594  12.084  1.3010  1.6909 -0.4450
15396TIP3   OH267602   4.626   2.485   1.668  0.3045 -0.6132  0.2352
15396TIP3    H167603   4.711   2.490   1.625  2.1594 -3.8240  2.9858
15396TIP3    H267604   4.582   2.411   1.626  0.9758 -1.9986  1.8499
15397TIP3   OH267605   1.532   0.398  15.158 -0.0500  0.2288  0.4646
15397TIP3    H167606   1.586   0.398  15.237 -0.4560  0.8558  0.7539
15397TIP3    H267607   1.574   0.463  15.100 -0.2002  0.3469  0.4867
15398TIP3   OH267608   2.768   2.584   2.843  0.0215  0.0496  0.4002
15398TIP3    H167609   2.746   2.491   2.856 -0.4527  0.2873  1.4638
15398TIP3    H267610   2.708   2.613   2.774 -2.9540  0.5637  2.9251
15399TIP3   OH267611   4.953   1.102   4.987 -0.2773 -0.2156 -0.4770
15399TIP3    H167612   4.997   1.123   4.905  0.1257 -0.4452 -0.3275
15399TIP3    H267613   4.886   1.038   4.963  0.7141 -1.3140 -0.4501
15400TIP3   OH267614   2.500   5.832  16.182  0.0546 -0.0530  0.2769
15400TIP3    H167615   2.504   5.787  16.097 -2.0375  0.9280 -0.3959
15400TIP3    H267616   2.423   5.888  16.177  0.0041  0.2361  2.7616
15401TIP3   OH267617   3.548   6.395   0.353  0.0356  0.0283 -0.1560
15401TIP3    H167618   3.492   6.394   0.276 -1.5953 -1.3877  0.9654
15401TIP3    H267619   3.491   6.369   0.425  1.9192 -0.5318  1.2343
15402TIP3   OH267620   6.658   0.753   4.901  0.7082 -0.3571  0.3365
15402TIP3    H167621   6.622   0.808   4.971  2.3998 -0.2534  1.1758
15402TIP3    H267622   6.703   0.815   4.843 -0.9412 -0.3982 -1.0838
15403TIP3   OH267623   1.222   0.605  12.110 -0.4023  0.8047  0.0772
15403TIP3    H167624   1.208   0.648  12.026  2.3465 -0.9636 -1.4685
15403TIP3    H267625   1.282   0.664  12.157  0.3285  0.5035 -0.4480
15404TIP3   OH267626   6.185   3.403  15.772 -0.0220  0.0712 -0.1936
15404TIP3    H167627   6.176   3.468  15.841 -1.2984  0.6578 -0.8636
15404TIP3    H267628   6.273   3.417  15.737  0.1217  0.6928  0.3970
15405TIP3   OH267629   5.697   1.527  14.270 -0.3388 -0.2904  0.1374
15405TIP3    H167630   5.719   1.495  14.182 -0.9120  1.7497 -0.8265
15405TIP3    H267631   5.780   1.559  14.306 -0.1951 -0.6320  0.1084
15406TIP3   OH267632   1.805   4.395   5.674  0.6232  0.0996 -0.5481
15406TIP3    H167633   1.767   4.483   5.683  0.0396 -0.2332  0.3743
15406TIP3    H267634   1.819   4.385   5.580  1.6255  1.5577 -0.5823
15407TIP3   OH267635   1.712   1.642   0.770  0.2271  0.5574 -0.4704
15407TIP3    H167636   1.773   1.616   0.701  1.3151 -1.9105  1.2747
15407TIP3    H267637   1.767   1.667   0.844 -0.8256 -0.7718  0.8323
15408TIP3   OH267638   1.466   2.135  16.158 -0.2178 -0.3613 -0.1036
15408TIP3    H167639   1.524   2.102  16.227  0.3823 -0.3478 -0.5960
15408TIP3    H267640   1.524   2.181  16.098 -0.6476 -0.8860 -0.9390
15409TIP3   OH267641   0.487   5.309   3.066 -0.4566  0.1740 -0.9380
15409TIP3    H167642   0.464   5.397   3.035  0.9542  0.9786  0.1435
15409TIP3    H267643   0.578   5.297   3.037 -0.4995 -0.7621 -0.7051
15410TIP3   OH267644   3.746   5.665   2.283 -0.8133  0.0369 -0.3767
15410TIP3    H167645   3.767   5.756   2.303  0.5881 -0.6384  1.3914
15410TIP3    H267646   3.817   5.637   2.225 -0.9269 -0.0998 -0.4486
15411TIP3   OH267647   4.281   2.756  17.095 -0.3139 -0.1166 -0.2027
15411TIP3    H167648   4.256   2.846  17.113  0.6663  0.3862 -1.2562
15411TIP3    H267649   4.359   2.741  17.149  0.2714  0.0885 -0.9825
15412TIP3   OH267650   4.122   3.498   0.045  0.2630  0.4170 -0.0782
15412TIP3    H167651   4.133   3.567  -0.020  0.9644 -0.2610 -0.6898
15412TIP3    H267652   4.211   3.475   0.071  0.0838 -0.8848 -0.5466
15413TIP3   OH267653   4.102   5.077  16.723  0.1575  0.2920 -0.1317
15413TIP3    H167654   4.044   5.129  16.779  0.8727  2.1194 -0.9955
15413TIP3    H267655   4.181   5.130  16.715  1.7249 -1.8414  0.4904
15414TIP3   OH267656   1.312   6.177  13.990  0.6306  0.0643  0.1460
15414TIP3    H167657   1.407   6.177  14.005  0.9243  1.2577 -1.4151
15414TIP3    H267658   1.303   6.149  13.898 -0.4745  0.7070  0.0463
15415TIP3   OH267659   3.892   2.798  11.015 -0.2498  0.4914  0.0628
15415TIP3    H167660   3.867   2.707  11.032 -0.2872  0.7749  1.7731
15415TIP3    H267661   3.818   2.834  10.965  0.6718 -0.9064 -2.4698
15416TIP3   OH267662   2.084   0.604  11.998  0.6402 -0.3026  0.1011
15416TIP3    H167663   2.011   0.610  11.936  1.1068  0.3323 -0.4001
15416TIP3    H267664   2.160   0.635  11.949  1.0923 -0.1582  0.8777
15417TIP3   OH267665   1.149   2.880   4.806 -0.0789  0.6662 -0.5781
15417TIP3    H167666   1.161   2.973   4.789 -0.8180  0.6549 -1.2089
15417TIP3    H267667   1.055   2.869   4.817  0.0917  0.1537  0.5190
15418TIP3   OH267668   3.685   4.335  16.673 -0.1138  0.4969 -0.5362
15418TIP3    H167669   3.755   4.289  16.627  1.3664  3.1536 -1.1225
15418TIP3    H267670   3.619   4.351  16.607 -0.1787  0.1207 -0.5655
15419TIP3   OH267671   1.455   6.679  16.087  0.5375 -0.2030  0.5589
15419TIP3    H167672   1.384   6.721  16.136 -0.2030  0.5474 -1.0951
15419TIP3    H267673   1.470   6.596  16.133  0.1282  0.6124  2.2440
15420TIP3   OH267674   4.365   0.168   1.830  0.0058  0.1672 -0.5853
15420TIP3    H167675   4.359   0.168   1.734  1.8403  1.3053 -0.7389
15420TIP3    H267676   4.301   0.234   1.857  0.3289  0.7023 -1.1002
15421TIP3   OH267677   2.808   2.939  12.867 -0.0361  0.5199  0.0605
15421TIP3    H167678   2.870   2.900  12.806  1.2360 -0.6105  1.9854
15421TIP3    H267679   2.724   2.937  12.821  1.0089  0.4086 -1.9039
15422TIP3   OH267680   4.194   1.140   2.602  0.5246  0.1476 -0.1827
15422TIP3    H167681   4.248   1.124   2.524 -2.0621 -0.9120 -1.8951
15422TIP3    H267682   4.124   1.197   2.571 -0.3507  0.0286  1.4713
15423TIP3   OH267683   3.407   2.079  14.319 -0.5508 -0.5450 -0.7151
15423TIP3    H167684   3.312   2.088  14.320 -0.3454  2.7675  1.5202
15423TIP3    H267685   3.432   2.103  14.230 -1.7006 -0.4065 -1.0169
15424TIP3   OH267686   4.551   2.647  16.705 -0.0170  0.3273 -0.8448
15424TIP3    H167687   4.643   2.656  16.731 -0.1367 -3.1758  1.4498
15424TIP3    H267688   4.503   2.698  16.770  0.1845  0.3174 -0.6857
15425TIP3   OH267689   0.583   3.582  11.685  0.0278  0.2336 -0.2159
15425TIP3    H167690   0.493   3.572  11.715  0.0053 -2.0776 -0.8573
15425TIP3    H267691   0.583   3.545  11.596  1.9186 -1.5198  0.4256
15426TIP3   OH267692   0.377   6.294   0.480  0.6640  0.3262 -0.7904
15426TIP3    H167693   0.321   6.243   0.422  0.0150 -1.4358  1.2405
15426TIP3    H267694   0.412   6.230   0.542  3.0844  1.7644 -0.5618
15427TIP3   OH267695   1.458   5.932  16.708 -0.2211  0.4541  0.1062
15427TIP3    H167696   1.512   5.974  16.776  0.0987  0.7751 -0.3410
15427TIP3    H267697   1.371   5.928  16.746  0.0779  0.0916  0.7736
15428TIP3   OH267698   6.535   2.440  14.764  0.3633  0.1485  0.8988
15428TIP3    H167699   6.474   2.402  14.827 -1.2576  1.3302  0.0883
15428TIP3    H267700   6.552   2.528  14.797 -0.4728  0.7662 -0.2578
15429TIP3   OH267701   1.629   3.685  13.544 -0.9401  0.1910 -0.5083
15429TIP3    H167702   1.716   3.703  13.511 -1.3951  2.6284 -0.5326
15429TIP3    H267703   1.612   3.755  13.607 -1.8938 -1.7056  1.5189
15430TIP3   OH267704   6.283   6.202  14.250 -0.0584 -0.5442 -0.1749
15430TIP3    H167705   6.354   6.144  14.276  1.4184  1.2900  0.1502
15430TIP3    H267706   6.215   6.190  14.316 -0.1394 -2.4229 -0.5609
15431TIP3   OH267707   3.907   0.911   2.785  0.2269  0.0970 -0.7160
15431TIP3    H167708   3.925   0.977   2.853  0.6455  0.2067 -0.9257
15431TIP3    H267709   3.814   0.893   2.793  0.3032 -0.0326  0.0201
15432TIP3   OH267710   4.304   0.817   1.218 -0.1826 -0.2753  0.0647
15432TIP3    H167711   4.278   0.800   1.128  1.3215 -0.6056 -0.3260
15432TIP3    H267712   4.374   0.754   1.236  0.6290  0.8280  0.9275
15433TIP3   OH267713   4.566   3.572   2.356  0.4638 -0.0420  0.2478
15433TIP3    H167714   4.524   3.486   2.360 -0.6350  0.3121 -2.2395
15433TIP3    H267715   4.543   3.607   2.270  2.4871  1.9517  0.4134
15434TIP3   OH267716   0.914   5.093  15.430  0.3720  0.0642  0.0946
15434TIP3    H167717   0.988   5.049  15.472  0.4934  0.6165  0.4663
15434TIP3    H267718   0.949   5.177  15.401 -0.2971  0.6488  0.9470
15435TIP3   OH267719   4.286   1.418   1.834 -0.3746 -0.0728 -0.0672
15435TIP3    H167720   4.371   1.458   1.850 -0.4613  0.7800 -1.5388
15435TIP3    H267721   4.237   1.433   1.915  1.0239 -1.0509  1.0039
15436TIP3   OH267722   3.101   2.294   6.122 -0.1688  0.6771  0.1046
15436TIP3    H167723   3.185   2.315   6.080 -0.1271  0.5356  0.1174
15436TIP3    H267724   3.096   2.352   6.197  0.3044  0.0999  0.5880
15437TIP3   OH267725   2.174   6.226  16.696 -0.5798 -0.3182  0.9763
15437TIP3    H167726   2.187   6.181  16.612  0.3310 -0.4458  1.1757
15437TIP3    H267727   2.212   6.167  16.761 -1.3386 -0.2461  1.4965
15438TIP3   OH267728   2.437   0.144  10.931  0.0050 -0.0880 -0.6621
15438TIP3    H167729   2.488   0.129  11.010 -2.4384 -0.7917  0.8675
15438TIP3    H267730   2.495   0.116  10.860  1.7641 -0.7579  0.9511
15439TIP3   OH267731   4.208   5.535  13.273 -0.3197 -0.3957  0.2017
15439TIP3    H167732   4.139   5.468  13.273 -1.6006  0.8506  0.5393
15439TIP3    H267733   4.269   5.507  13.340 -1.2723 -0.8196  0.9173
15440TIP3   OH267734   1.810   1.658  13.911  0.3547 -0.0356  0.0481
15440TIP3    H167735   1.837   1.600  13.840  0.8456  0.0651  0.1472
15440TIP3    H267736   1.788   1.599  13.983 -0.7928 -0.1677 -0.3980
15441TIP3   OH267737   2.582   6.207  13.230  0.1137  0.7604  0.7696
15441TIP3    H167738   2.576   6.177  13.139 -0.9942  0.8054  0.8142
15441TIP3    H267739   2.503   6.171  13.272 -0.1487  1.9660  1.3450
15442TIP3   OH267740   5.948   4.036   5.137 -0.2797  0.1350  0.0554
15442TIP3    H167741   5.855   4.039   5.159 -0.2130  0.3304  0.3213
15442TIP3    H267742   5.956   3.964   5.075 -0.2186 -1.7241  2.0864
15443TIP3   OH267743   0.418   2.118  11.409 -0.1113 -0.4046 -0.0697
15443TIP3    H167744   0.484   2.172  11.368 -1.0044  0.0651 -0.9466
15443TIP3    H267745   0.414   2.148  11.499  0.5607 -0.1477 -0.1231
15444TIP3   OH267746   2.838   5.249  14.742 -0.1965 -0.4519  0.0270
15444TIP3    H167747   2.859   5.163  14.705  1.0335  0.2060 -0.8734
15444TIP3    H267748   2.770   5.284  14.685 -0.5899 -0.7419  0.3060
15445TIP3   OH267749   4.751   1.891   1.997  0.2791  0.4116 -0.8921
15445TIP3    H167750   4.766   1.975   2.039  0.7839  0.3198 -0.8806
15445TIP3    H267751   4.671   1.903   1.946 -0.1644  0.6108 -0.1527
15446TIP3   OH267752   2.072   5.290  10.775  0.4526 -0.7342  0.1732
15446TIP3    H167753   2.075   5.199  10.804  0.2402 -0.5986  0.6298
15446TIP3    H267754   2.057   5.340  10.855 -0.1966 -0.3525 -0.1815
15447TIP3   OH267755   4.586   6.600  11.953 -0.3268  0.2955  0.5927
15447TIP3    H167756   4.654   6.666  11.939 -1.4706  1.3892 -0.0460
15447TIP3    H267757   4.524   6.643  12.012 -0.4584 -0.6914  1.1851
15448TIP3   OH267758   5.465   1.829  12.347  1.2883 -0.0498  0.0272
15448TIP3    H167759   5.432   1.740  12.333  0.7589  0.2547 -0.7341
15448TIP3    H267760   5.532   1.820  12.414 -0.4635 -0.6801  1.7977
15449TIP3   OH267761   2.147   5.524  14.685 -0.6150  0.1711  0.0856
15449TIP3    H167762   2.100   5.528  14.602 -0.2290  2.8584 -0.0686
15449TIP3    H267763   2.078   5.512  14.751 -0.9842 -1.2147 -0.5168
15450TIP3   OH267764   6.233   4.989   0.758 -0.2959 -0.1586  0.5038
15450TIP3    H167765   6.146   4.984   0.718 -1.3134  1.9439  2.2480
15450TIP3    H267766   6.286   5.037   0.694 -1.3763  1.4983  0.8028
15451TIP3   OH267767   0.409   3.563  11.232 -0.1768 -0.1868  0.1431
15451TIP3    H167768   0.442   3.652  11.237 -1.3194  0.2433  0.1872
15451TIP3    H267769   0.461   3.514  11.296  1.0173  0.2494 -0.4702
15452TIP3   OH267770   1.582   3.295  16.082 -0.0577  0.2002 -0.5393
15452TIP3    H167771   1.660   3.263  16.126  0.3278  1.0868 -0.5730
15452TIP3    H267772   1.557   3.374  16.129 -0.6782  0.1713 -0.8008
15453TIP3   OH267773   0.657   5.747  16.695  0.0009  0.3675 -0.5014
15453TIP3    H167774   0.620   5.674  16.645  0.8963 -0.5154  0.0811
15453TIP3    H267775   0.583   5.781  16.745 -0.4656 -0.0493 -0.8879
15454TIP3   OH267776   6.669   5.647  12.065  0.1787 -0.2798  0.1908
15454TIP3    H167777   6.690   5.628  11.973 -0.6203  0.5684 -0.1780
15454TIP3    H267778   6.621   5.729  12.062  0.7534  0.1163  1.4502
15455TIP3   OH267779   2.509   3.872   6.032 -0.0175  0.4156 -0.1180
15455TIP3    H167780   2.571   3.823   5.978  0.0546 -0.7141  0.9555
15455TIP3    H267781   2.449   3.806   6.065  0.2670  0.9922  1.6363
15456TIP3   OH267782   0.935   3.071   3.760 -0.3602  0.2293 -0.6941
15456TIP3    H167783   1.020   3.036   3.734  0.5820  1.0894  1.0312
15456TIP3    H267784   0.932   3.060   3.855 -1.4773  1.6684 -0.5189
15457TIP3   OH267785   1.544   5.114  16.584  0.2015 -0.5352 -0.0667
15457TIP3    H167786   1.591   5.193  16.557  0.3898 -0.1416  1.3634
15457TIP3    H267787   1.517   5.131  16.674 -1.2427 -1.4317 -0.3026
15458TIP3   OH267788   4.747   0.453  15.789  0.3506 -0.4032  0.9449
15458TIP3    H167789   4.748   0.458  15.885  1.9121 -0.1731  0.9325
15458TIP3    H267790   4.702   0.371  15.770  0.8875 -0.9293  1.9002
15459TIP3   OH267791   2.786   5.205  16.007  0.6067  0.0353 -0.1567
15459TIP3    H167792   2.845   5.268  15.965  0.2054  0.0467 -0.7048
15459TIP3    H267793   2.815   5.120  15.975  0.7362 -0.0107  0.0803
15460TIP3   OH267794   0.827   0.038   4.778  0.0974  0.1847 -0.3195
15460TIP3    H167795   0.845  -0.008   4.696 -0.4381 -2.5783  0.9988
15460TIP3    H267796   0.733   0.055   4.775 -0.2112 -1.3026  0.3387
15461TIP3   OH267797   5.958   4.184   3.168  0.1210  0.3052  0.7952
15461TIP3    H167798   6.006   4.252   3.120 -1.5643 -0.9796 -3.1065
15461TIP3    H267799   5.988   4.102   3.130  0.2001 -1.0560  3.5671
15462TIP3   OH267800   0.630   1.217  14.377 -0.7213  0.0178  0.2042
15462TIP3    H167801   0.706   1.274  14.389 -0.7833 -0.1318  1.4079
15462TIP3    H267802   0.614   1.179  14.464 -0.0468 -2.6617 -0.7346
15463TIP3   OH267803   2.740   4.242  15.802  0.2282 -0.0171  0.4435
15463TIP3    H167804   2.704   4.219  15.888 -0.9627 -0.7210 -0.2029
15463TIP3    H267805   2.683   4.197  15.740  0.1951  1.6124 -0.7808
15464TIP3   OH267806   0.314   0.237   5.465  0.4038 -0.1156 -0.5200
15464TIP3    H167807   0.292   0.146   5.445  1.7036 -0.9199  1.4027
15464TIP3    H267808   0.405   0.233   5.496 -0.1726  1.5297  1.5670
15465TIP3   OH267809   5.820   5.339   3.679 -0.9865  0.0825 -0.3083
15465TIP3    H167810   5.755   5.290   3.730 -0.6414 -0.8683 -0.7565
15465TIP3    H267811   5.772   5.370   3.602 -0.9152 -0.6396 -0.6518
15466TIP3   OH267812   4.987   2.921   0.413 -0.4545 -0.4170 -0.4611
15466TIP3    H167813   4.913   2.978   0.433  0.4658  0.2243  1.3427
15466TIP3    H267814   5.009   2.880   0.497  0.1779 -1.9120 -1.3050
15467TIP3   OH267815   5.374   6.236  13.501  0.1559  0.1951 -0.4111
15467TIP3    H167816   5.345   6.236  13.410 -0.7669 -0.4236 -0.1323
15467TIP3    H267817   5.296   6.209  13.551  0.7308  0.2289  0.5297
15468TIP3   OH267818   5.165   1.845  11.741 -0.2474 -0.2431  0.4941
15468TIP3    H167819   5.193   1.869  11.829  0.4030  0.4825  0.0958
15468TIP3    H267820   5.069   1.847  11.745 -0.2290  1.1949  0.8200
15469TIP3   OH267821   1.129   4.746   5.942  0.0184  0.1785  0.2946
15469TIP3    H167822   1.135   4.685   5.868  0.0491 -1.2859  1.4476
15469TIP3    H267823   1.206   4.725   5.995  0.3199  1.6312  0.4537
15470TIP3   OH267824   2.335   6.048  12.608  0.3814 -0.2266 -0.3425
15470TIP3    H167825   2.395   6.120  12.589 -0.2251  0.3164 -0.2485
15470TIP3    H267826   2.391   5.971  12.614  1.3132  0.5422  1.5303
15471TIP3   OH267827   6.629   3.578  13.664 -0.4044 -0.5005  0.5664
15471TIP3    H167828   6.652   3.609  13.751  1.3005 -1.3210  0.4526
15471TIP3    H267829   6.620   3.658  13.612  0.1375 -0.0616  1.1343
15472TIP3   OH267830   3.897   3.889  14.716  0.2174 -0.1579  0.2057
15472TIP3    H167831   3.825   3.826  14.717  0.3056 -0.3531 -1.7882
15472TIP3    H267832   3.973   3.839  14.745  0.4058 -1.1965 -1.9028
15473TIP3   OH267833   5.666   3.641   1.536 -0.1907 -0.4027 -0.3289
15473TIP3    H167834   5.730   3.704   1.571  0.2898 -0.7843 -0.5044
15473TIP3    H267835   5.682   3.642   1.441  0.0795 -1.0652 -0.2936
15474TIP3   OH267836   3.532   6.204  12.712  0.1357  0.0733 -0.0409
15474TIP3    H167837   3.554   6.166  12.797  0.5739  1.3093  0.4227
15474TIP3    H267838   3.597   6.168  12.652  0.6660  0.2414  0.4276
15475TIP3   OH267839   1.677   2.982  12.244  0.3445  0.2765 -0.3393
15475TIP3    H167840   1.726   2.982  12.326 -1.1562  1.6288  0.6308
15475TIP3    H267841   1.737   3.020  12.180  0.7201  1.5332  0.7181
15476TIP3   OH267842   6.125   3.622   4.344  0.2316 -0.3188 -0.4050
15476TIP3    H167843   6.044   3.673   4.333  0.0235 -0.4091  0.6242
15476TIP3    H267844   6.102   3.534   4.314 -0.1888 -0.4559  0.2998
15477TIP3   OH267845   5.468   4.675  17.301 -0.2704 -0.2564  0.4042
15477TIP3    H167846   5.553   4.715  17.321  0.3111 -0.4578 -1.5333
15477TIP3    H267847   5.406   4.723  17.357  0.9518  0.6274  1.0477
15478TIP3   OH267848   2.767   0.031  16.566 -0.6472  0.0306  0.0093
15478TIP3    H167849   2.788   0.067  16.480 -0.8724  1.2432  0.4400
15478TIP3    H267850   2.821   0.082  16.627 -1.8225  0.4348  0.7419
15479TIP3   OH267851   0.364   1.164  15.889  0.0576 -0.2339  0.2426
15479TIP3    H167852   0.304   1.234  15.864 -1.4309 -1.3473  0.5612
15479TIP3    H267853   0.349   1.151  15.983 -0.3625 -1.5704  0.0128
15480TIP3   OH267854   6.390   3.187   5.453 -0.1720 -0.1448 -0.0905
15480TIP3    H167855   6.338   3.222   5.381 -0.7691 -3.1140 -1.2374
15480TIP3    H267856   6.458   3.135   5.410  0.2895 -0.9047  1.4808
15481TIP3   OH267857   4.639   3.147  15.842 -0.6834 -0.0376  0.0078
15481TIP3    H167858   4.625   3.239  15.817 -0.6217  0.4751  1.7459
15481TIP3    H267859   4.553   3.117  15.870 -0.4364 -0.0952  0.7169
15482TIP3   OH267860   4.779   6.299  14.876  0.0358 -0.4913 -0.0408
15482TIP3    H167861   4.693   6.293  14.835 -0.1123 -2.8212  0.4705
15482TIP3    H267862   4.838   6.258  14.813  1.1410  2.4756 -1.1079
15483TIP3   OH267863   5.784   1.969   0.116  0.1607  0.1536  0.1202
15483TIP3    H167864   5.757   1.878   0.131 -1.0443  0.6887  1.4821
15483TIP3    H267865   5.822   1.997   0.199 -2.8984  1.9700  1.0741
15484TIP3   OH267866   2.194   1.733  16.189  0.2946 -0.2296 -0.0768
15484TIP3    H167867   2.100   1.742  16.173  0.0765 -1.3861  0.4280
15484TIP3    H267868   2.199   1.688  16.273  1.3179  0.2752  0.1484
15485TIP3   OH267869   1.009   3.900   0.965 -0.0711  0.0905  0.6198
15485TIP3    H167870   1.054   3.971   0.918  0.3172 -0.1844  0.5731
15485TIP3    H267871   0.918   3.905   0.934 -0.5835  1.9575  2.2389
15486TIP3   OH267872   6.037   2.084   1.780 -0.8743  0.1320 -0.2242
15486TIP3    H167873   6.049   2.031   1.858 -2.2327 -0.9049 -0.6744
15486TIP3    H267874   6.123   2.083   1.737 -0.3054  0.1373  0.8851
15487TIP3   OH267875   6.746   0.910  15.470 -0.1026  0.0844  0.0976
15487TIP3    H167876   6.758   0.824  15.510 -0.3187 -0.3811 -0.8119
15487TIP3    H267877   6.690   0.958  15.531  0.4656 -0.2249  0.8754
15488TIP3   OH267878   4.900   2.993   1.680  0.4184 -0.3934  0.2675
15488TIP3    H167879   4.887   2.899   1.697 -0.8639 -0.3050 -0.0876
15488TIP3    H267880   4.832   3.015   1.616  1.3511  0.5747 -0.4127
15489TIP3   OH267881   2.248   1.788   0.508  0.4236  0.4537 -0.1997
15489TIP3    H167882   2.326   1.757   0.462  1.3850  2.0065  0.2653
15489TIP3    H267883   2.220   1.714   0.562  1.7793 -0.0559 -0.1546
15490TIP3   OH267884   2.350   4.246  12.460  0.0538  0.4340  0.0301
15490TIP3    H167885   2.327   4.187  12.389  0.7550  0.0681  0.0924
15490TIP3    H267886   2.356   4.189  12.537  2.3096  0.2623 -0.2049
15491TIP3   OH267887   4.138   3.454  15.933 -0.4685  0.0880  0.1553
15491TIP3    H167888   4.098   3.456  16.020  2.2953 -2.7676  1.6822
15491TIP3    H267889   4.089   3.387  15.885 -0.6319  0.1353  0.2559
15492TIP3   OH267890   2.574   0.848  12.047 -0.1981  0.2792 -0.5312
15492TIP3    H167891   2.515   0.844  12.123  0.8119 -0.8442  0.2382
15492TIP3    H267892   2.559   0.765  12.001 -0.5550  0.8051 -1.3857
15493TIP3   OH267893   2.632   1.172   5.471 -0.6135  0.0317  0.5471
15493TIP3    H167894   2.574   1.161   5.546 -0.5213  0.5685  0.7009
15493TIP3    H267895   2.697   1.102   5.481 -0.9478 -0.2652  0.6434
15494TIP3   OH267896   1.850   6.018  15.256  0.0315 -0.5161 -0.3886
15494TIP3    H167897   1.899   5.937  15.262  0.8316 -0.0867 -0.9270
15494TIP3    H267898   1.860   6.059  15.342  0.3618 -0.5747 -0.4003
15495TIP3   OH267899   2.858   2.933   0.683 -0.2789  0.2896 -0.1608
15495TIP3    H167900   2.880   2.855   0.632 -0.6041 -0.7430  1.2029
15495TIP3    H267901   2.930   2.941   0.746  0.1797  1.6034 -0.8282
15496TIP3   OH267902   1.861   3.301   4.150 -0.0749 -0.1275  0.1879
15496TIP3    H167903   1.956   3.313   4.150 -0.1536  0.5556 -0.5478
15496TIP3    H267904   1.842   3.262   4.236  0.9901 -1.3566 -0.1050
15497TIP3   OH267905   5.161   3.339  12.061 -0.1014 -0.0374 -0.0568
15497TIP3    H167906   5.194   3.313  12.147  0.6092 -1.8789 -0.8407
15497TIP3    H267907   5.153   3.257  12.012  1.2361  1.0946 -2.3487
15498TIP3   OH267908   0.612   4.514   4.117 -0.3735 -0.3267  0.9931
15498TIP3    H167909   0.549   4.527   4.046 -1.5466 -0.5514  1.9408
15498TIP3    H267910   0.569   4.449   4.174  1.0245 -0.9835  1.3293
15499TIP3   OH267911   2.089   1.210  11.679 -1.0451  0.1744  0.5149
15499TIP3    H167912   2.101   1.303  11.701  0.2065 -0.0619  0.8760
15499TIP3    H267913   2.176   1.180  11.652 -1.7959 -0.4453 -1.3916
15500TIP3   OH267914   1.523   3.526   5.472  0.0076 -0.6376  0.4113
15500TIP3    H167915   1.614   3.531   5.503 -0.1727 -1.7076  1.1518
15500TIP3    H267916   1.515   3.601   5.413  0.8556  0.5214  1.6780
15501TIP3   OH267917   0.592   2.250  12.296 -0.1024  0.0243 -0.4605
15501TIP3    H167918   0.635   2.290  12.221 -1.1059  0.3206 -0.9009
15501TIP3    H267919   0.626   2.298  12.372 -0.9217  1.4235 -0.9415
15502TIP3   OH267920   5.951   1.039   4.299  1.1590 -0.2555  0.3633
15502TIP3    H167921   5.902   0.979   4.243  0.4883  0.3970  0.2417
15502TIP3    H267922   5.920   1.020   4.388  0.1793  0.5931  0.2274
15503TIP3   OH267923   1.662   3.892  13.780 -0.4039 -0.5568  0.7064
15503TIP3    H167924   1.729   3.824  13.783 -0.4445 -0.6141  0.2862
15503TIP3    H267925   1.674   3.940  13.862 -1.0761 -1.7348  1.5279
15504TIP3   OH267926   2.300   2.399  17.291 -0.0017  0.1086 -0.1672
15504TIP3    H167927   2.224   2.457  17.301 -0.1572  0.3509 -2.2963
15504TIP3    H267928   2.374   2.458  17.277  0.6887 -0.1180  2.2026
15505TIP3   OH267929   6.510   6.000   1.174  0.6482  0.2749  0.7979
15505TIP3    H167930   6.560   5.969   1.098 -1.0424 -1.6348  0.3565
15505TIP3    H267931   6.485   6.089   1.151 -1.2145 -0.7650 -1.7717
15506TIP3   OH267932   1.799   2.732  15.257 -0.1127 -0.3275  0.2795
15506TIP3    H167933   1.790   2.651  15.308 -1.7618 -0.0899  0.4259
15506TIP3    H267934   1.807   2.702  15.167  1.3250 -0.7012  0.5081
15507TIP3   OH267935   5.193   1.160  13.632  0.6805 -0.4558 -0.0095
15507TIP3    H167936   5.239   1.121  13.558  0.0828  0.8500 -1.1028
15507TIP3    H267937   5.144   1.233  13.595 -0.7866 -0.6416  1.4315
15508TIP3   OH267938   4.616   1.732   0.184  0.6568 -0.1613  0.1630
15508TIP3    H167939   4.652   1.811   0.225 -1.4895  1.3351 -0.6287
15508TIP3    H267940   4.533   1.717   0.230  0.3010 -1.0341 -0.7233
15509TIP3   OH267941   0.907   2.593   4.416 -0.7437 -0.3687 -0.0561
15509TIP3    H167942   0.989   2.635   4.442  0.1219 -1.3087 -1.2115
15509TIP3    H267943   0.853   2.665   4.382  0.4371 -0.0497 -1.3177
15510TIP3   OH267944   0.645   5.932  14.535 -0.1810  1.0240  0.1745
15510TIP3    H167945   0.631   5.838  14.527  0.9144  0.6965  1.5849
15510TIP3    H267946   0.735   5.940  14.567  0.4191  2.6392 -1.7028
15511TIP3   OH267947   4.304   4.525   4.335 -0.3726  0.3324 -0.1115
15511TIP3    H167948   4.242   4.515   4.263  0.4618  0.9934 -0.9297
15511TIP3    H267949   4.388   4.500   4.298 -0.1744 -0.8648  1.0807
15512TIP3   OH267950   1.289   1.180   2.948  0.0466 -0.2538 -0.1873
15512TIP3    H167951   1.311   1.272   2.961  0.2898 -0.3475  0.0879
15512TIP3    H267952   1.229   1.159   3.020 -1.1359  0.0564 -1.0574
15513TIP3   OH267953   6.574   4.272  14.167 -0.3990 -0.5166  0.1120
15513TIP3    H167954   6.626   4.215  14.224  0.8118  1.8458  1.5557
15513TIP3    H267955   6.490   4.229  14.159  0.3857 -2.3720  1.2785
15514TIP3   OH267956   0.271   2.860  15.516  0.8332  0.0408  0.1702
15514TIP3    H167957   0.303   2.886  15.602 -2.3823  1.2654  1.1671
15514TIP3    H267958   0.288   2.936  15.460  0.2917  0.4264  0.5190
15515TIP3   OH267959   1.536   6.087   4.420  0.0233  0.0120 -0.0049
15515TIP3    H167960   1.480   6.084   4.498  0.1001 -0.0241  0.0485
15515TIP3    H267961   1.480   6.126   4.352  0.3021  1.0363  0.3431
15516TIP3   OH267962   4.151   5.494  17.054  0.2124 -0.2071 -0.4638
15516TIP3    H167963   4.205   5.487  16.975 -0.0098 -2.2782 -0.4873
15516TIP3    H267964   4.214   5.511  17.124  0.6504 -0.4673 -0.7877
15517TIP3   OH267965   0.485   6.241  13.975 -0.0820 -0.0419 -0.6474
15517TIP3    H167966   0.561   6.185  13.961  1.0713  1.7704 -1.9985
15517TIP3    H267967   0.517   6.329  13.959 -2.1361  0.9139  0.2096
15518TIP3   OH267968   4.760   3.494  16.263  0.3802  0.1382 -0.0763
15518TIP3    H167969   4.694   3.432  16.231 -1.1085  1.0844  1.0428
15518TIP3    H267970   4.748   3.571  16.208 -0.2137  0.7093  0.8345
15519TIP3   OH267971   0.966   0.727  16.850 -0.8996 -0.2705 -0.0950
15519TIP3    H167972   1.013   0.769  16.777 -0.3879 -1.0508 -0.2286
15519TIP3    H267973   0.883   0.699  16.812 -0.8078 -0.3002 -0.2756
15520TIP3   OH267974   0.972   1.558   4.351  0.4807 -0.4629 -0.0607
15520TIP3    H167975   0.960   1.582   4.443 -0.3783  0.8929 -0.4888
15520TIP3    H267976   0.892   1.589   4.308  1.8548  1.1406 -1.6635
15521TIP3   OH267977   6.331   1.289   4.951  0.3088 -0.1738 -0.0661
15521TIP3    H167978   6.292   1.218   4.899 -0.3802  0.1797 -0.0408
15521TIP3    H267979   6.285   1.367   4.923  0.6319  0.1743  0.3646
15522TIP3   OH267980   1.106   4.976  11.440 -0.2482 -0.4413  0.1561
15522TIP3    H167981   1.017   4.977  11.404 -0.2640 -0.5646  0.1905
15522TIP3    H267982   1.149   4.904  11.395 -1.0169 -2.2548  2.1446
15523TIP3   OH267983   3.049   5.919  12.492  0.0409  0.1311  0.7217
15523TIP3    H167984   2.985   5.855  12.461 -0.3760  0.0434  1.7475
15523TIP3    H267985   3.075   5.966  12.413 -0.0069 -0.9700  0.0230
15524TIP3   OH267986   4.211   3.328  11.965 -0.1834 -0.0170 -0.5243
15524TIP3    H167987   4.180   3.310  11.876  0.7937 -3.3494 -0.3305
15524TIP3    H267988   4.171   3.260  12.018 -1.5258  2.4666  1.8815
15525TIP3   OH267989   3.520   2.794   1.770  0.0538 -0.0068  0.5902
15525TIP3    H167990   3.565   2.711   1.785 -0.7832 -0.4544  0.7045
15525TIP3    H267991   3.520   2.805   1.675 -0.4126 -0.4801  0.5289
15526TIP3   OH267992   1.946   5.526  15.158  0.0882  0.2043  0.5031
15526TIP3    H167993   1.907   5.537  15.071  1.9548  0.6196 -0.3200
15526TIP3    H267994   1.909   5.444  15.190 -1.4560  0.5713 -0.1994
15527TIP3   OH267995   0.421   2.010  10.335 -0.1179 -0.2981  0.2942
15527TIP3    H167996   0.340   2.051  10.367 -0.0301 -0.2453  0.4513
15527TIP3    H267997   0.395   1.921  10.313 -0.1056 -0.4499  0.8668
15528TIP3   OH267998   4.104   0.589  13.483  0.0462  0.0847 -0.4624
15528TIP3    H167999   4.152   0.614  13.404  1.6339  0.4269  0.5751
15528TIP3    H268000   4.093   0.494  13.474  0.9662 -0.0112 -0.7126
15529TIP3   OH268001   2.726   4.381   5.001 -0.4446  0.0945 -0.5406
15529TIP3    H168002   2.672   4.325   4.946 -0.9318 -0.5678  0.5680
15529TIP3    H268003   2.718   4.468   4.962 -0.9241 -0.3155 -1.3943
15530TIP3   OH268004   1.272   4.830  11.278 -0.1222  0.0562  0.5640
15530TIP3    H168005   1.314   4.748  11.252  0.1414  0.2383  0.4048
15530TIP3    H268006   1.283   4.888  11.202  0.8401  0.6624  1.1311
15531TIP3   OH268007   1.818   3.277   1.703  0.3541 -0.7259 -0.0465
15531TIP3    H168008   1.806   3.333   1.627 -0.0619  0.4090  0.8198
15531TIP3    H268009   1.743   3.297   1.760  1.0192 -1.0181  0.9700
15532TIP3   OH268010   2.912   5.813   6.613 -0.5500  0.1343  0.0117
15532TIP3    H168011   2.905   5.906   6.630 -1.0475  0.3264 -1.1161
15532TIP3    H268012   2.884   5.771   6.694  0.7543  0.9425  0.9131
15533TIP3   OH268013   2.025   6.059   3.635  0.4761 -0.3151  0.1480
15533TIP3    H168014   1.948   6.091   3.589  0.7554  0.0266 -0.0872
15533TIP3    H268015   2.069   6.002   3.572  1.1693  0.6101 -0.2307
15534TIP3   OH268016   2.734   0.104  14.596 -0.1108 -0.2338 -0.3622
15534TIP3    H168017   2.723   0.065  14.683  1.2113  1.5246  0.6560
15534TIP3    H268018   2.647   0.138  14.574 -0.2460  0.1206  0.6843
15535TIP3   OH268019   2.537   3.919  14.625  0.8374 -0.2355  0.0473
15535TIP3    H168020   2.457   3.869  14.644  1.3092 -0.7399  0.7708
15535TIP3    H268021   2.514   4.010  14.646  0.7689 -0.5240  1.2861
15536TIP3   OH268022   1.461   2.702   3.468 -0.7726 -0.1730  0.2566
15536TIP3    H168023   1.392   2.706   3.403  0.3039 -0.3147 -0.9357
15536TIP3    H268024   1.431   2.635   3.530 -1.2204 -1.0198 -0.8315
15537TIP3   OH268025   3.399   1.003  12.068 -0.6879  0.1447 -0.1543
15537TIP3    H168026   3.406   1.057  12.147  0.5076 -0.4835  0.1832
15537TIP3    H268027   3.483   1.014  12.024 -0.8300 -0.6203 -0.6243
15538TIP3   OH268028   0.935   5.480   6.513 -0.0412 -0.0058 -0.3014
15538TIP3    H168029   0.845   5.511   6.503 -0.2840 -0.5481  0.1247
15538TIP3    H268030   0.979   5.507   6.433 -1.0175 -1.1916 -1.2744
15539TIP3   OH268031   5.742   5.843   5.941 -0.1726 -0.3581  0.2469
15539TIP3    H168032   5.669   5.808   5.889 -1.3675  1.1964  0.7681
15539TIP3    H268033   5.710   5.840   6.032  1.5179 -2.1789  0.8262
15540TIP3   OH268034   4.546   0.044   4.220 -0.7262 -0.7349 -0.7141
15540TIP3    H168035   4.567   0.098   4.297  0.9980 -2.0069 -0.2089
15540TIP3    H268036   4.596   0.083   4.149  0.5042 -1.5929 -0.3534
15541TIP3   OH268037   3.719   5.416  14.942  0.2247  0.3787  0.3399
15541TIP3    H168038   3.711   5.485  14.876 -0.2763  0.0621  0.0596
15541TIP3    H268039   3.633   5.373  14.943  0.4068  0.0059  0.7841
15542TIP3   OH268040   3.222   4.056   0.080  0.1428 -0.9358  0.3814
15542TIP3    H168041   3.197   3.964   0.085 -1.4641 -0.5618 -0.3628
15542TIP3    H268042   3.209   4.089   0.169 -1.2645 -0.9598  0.2044
15543TIP3   OH268043   2.725   1.547  14.458  0.4876  0.2354  0.0082
15543TIP3    H168044   2.769   1.478  14.409 -1.0253 -0.3039 -0.6697
15543TIP3    H268045   2.669   1.591  14.394  0.4328  1.2395  0.7103
15544TIP3   OH268046   3.260   2.546  16.419  0.1203  0.2346  0.2365
15544TIP3    H168047   3.193   2.614  16.406  1.4817  1.5416 -0.2226
15544TIP3    H268048   3.210   2.466  16.433 -1.5439  1.0230 -0.8463
15545TIP3   OH268049   2.231   5.512  11.606 -0.5319  0.0832  0.2192
15545TIP3    H168050   2.238   5.489  11.698  0.1326  1.1475  0.4528
15545TIP3    H268051   2.299   5.578  11.592  0.6409 -1.3531 -1.4716
15546TIP3   OH268052   6.640   0.622  11.411  0.0076 -0.6555 -0.0287
15546TIP3    H168053   6.679   0.536  11.428 -0.3069 -0.6644  0.6864
15546TIP3    H268054   6.693   0.659  11.340  0.2073 -1.3941 -0.2719
15547TIP3   OH268055   1.999   6.424   2.513  0.3285  0.2034 -0.3826
15547TIP3    H168056   1.964   6.340   2.544  0.2115  0.4497  0.1777
15547TIP3    H268057   1.928   6.486   2.528  0.2185  0.3063 -1.3105
15548TIP3   OH268058   5.794   5.022  14.030 -0.2681  0.6206 -0.0938
15548TIP3    H168059   5.861   4.992  13.969  0.6413 -1.2274  1.6566
15548TIP3    H268060   5.720   5.048  13.975  1.1235  0.7141 -1.9985
15549TIP3   OH268061   1.037   1.175   2.810  0.0533 -0.2420 -0.0168
15549TIP3    H168062   0.985   1.101   2.841 -0.3054 -0.5413 -1.2842
15549TIP3    H268063   1.123   1.162   2.850  0.1714 -1.6845 -0.6864
15550TIP3   OH268064   3.699   3.737   0.634 -0.1371 -0.0211 -0.1073
15550TIP3    H168065   3.640   3.803   0.599 -0.4772 -0.5602 -0.5750
15550TIP3    H268066   3.761   3.720   0.563  0.6900  0.6611  0.4365
15551TIP3   OH268067   4.744   1.816   2.899 -0.1257  0.2268  0.6883
15551TIP3    H168068   4.649   1.803   2.896 -0.0213 -0.6625  1.0917
15551TIP3    H268069   4.780   1.729   2.916  0.8027  0.4595 -0.0216
15552TIP3   OH268070   2.184   2.683   0.704  0.0948  0.6761  0.0518
15552TIP3    H168071   2.264   2.676   0.651  0.7315  3.0285  0.5996
15552TIP3    H268072   2.213   2.726   0.784 -1.6159  0.9564  0.5457
15553TIP3   OH268073   1.617   1.423   5.141  0.4600  0.2223 -0.5538
15553TIP3    H168074   1.535   1.473   5.141 -0.3818 -1.1006 -0.6222
15553TIP3    H268075   1.622   1.386   5.229  1.1190  0.5111 -0.4705
15554TIP3   OH268076   0.161   5.178  15.277 -0.0009  0.4297  0.3280
15554TIP3    H168077   0.155   5.154  15.184 -2.6084  0.3349  0.4558
15554TIP3    H268078   0.167   5.273  15.277 -0.7952  0.4822  0.0785
15555TIP3   OH268079   6.564   3.453  16.550  0.6846  0.0383 -0.4536
15555TIP3    H168080   6.655   3.431  16.572  0.7547 -0.5358 -1.2961
15555TIP3    H268081   6.514   3.377  16.578  0.3086  0.7661  0.9534
15556TIP3   OH268082   3.623   0.840   6.103  0.5412 -0.3575 -0.2661
15556TIP3    H168083   3.567   0.875   6.172  1.2885 -0.6842  0.5271
15556TIP3    H268084   3.683   0.912   6.082  1.5103 -0.8314  0.7511
15557TIP3   OH268085   4.405   3.061   4.279  0.1852 -0.4229  0.2988
15557TIP3    H168086   4.396   3.156   4.268  0.0456 -0.4672  0.0395
15557TIP3    H268087   4.489   3.040   4.236  0.2102 -0.4195  0.3457
15558TIP3   OH268088   3.643   3.476   0.379  0.1192 -0.5024  0.4220
15558TIP3    H168089   3.705   3.517   0.318  1.6811 -1.3524  1.3583
15558TIP3    H268090   3.595   3.549   0.418  0.7729  0.2219 -0.0940
15559TIP3   OH268091   2.394   3.381  13.941 -0.0793 -0.4963 -0.2844
15559TIP3    H168092   2.410   3.474  13.955 -0.6302 -0.4452  0.0380
15559TIP3    H268093   2.469   3.337  13.981  0.9501 -0.1468 -1.7395
15560TIP3   OH268094   2.929   3.136   4.212  0.6826 -0.6263  0.2933
15560TIP3    H168095   2.985   3.205   4.177  0.9231 -1.1450 -0.3837
15560TIP3    H268096   2.962   3.056   4.171  0.7439 -1.2169  1.4679
15561TIP3   OH268097   2.425   5.242   2.165 -0.1331  0.3816  0.8182
15561TIP3    H168098   2.480   5.309   2.207  0.9186 -0.4976  0.8895
15561TIP3    H268099   2.469   5.160   2.185  0.9204 -0.0858 -2.6056
15562TIP3   OH268100   1.000   4.553  15.375 -0.3047 -0.4127  0.3310
15562TIP3    H168101   1.020   4.529  15.465  0.0020  2.1868  1.0154
15562TIP3    H268102   0.934   4.622  15.382 -0.8815 -0.7264 -1.4769
15563TIP3   OH268103   5.074   3.899  12.837 -0.5017 -0.2297 -0.4048
15563TIP3    H168104   5.093   3.971  12.777 -0.2864  1.1666  1.2641
15563TIP3    H268105   4.978   3.894  12.838 -0.5904  1.1034  0.6222
15564TIP3   OH268106   2.432   2.515  14.605 -0.0535 -0.3756  0.2263
15564TIP3    H168107   2.377   2.547  14.534 -2.2237 -0.5475  1.7309
15564TIP3    H268108   2.453   2.593  14.657  0.7271 -0.3924 -0.0416
15565TIP3   OH268109   5.534   2.656   4.184 -0.6661  0.2296 -0.0369
15565TIP3    H168110   5.484   2.654   4.103  0.3553  0.7061 -0.7066
15565TIP3    H268111   5.602   2.722   4.168  0.9744 -1.3052  0.3474
15566TIP3   OH268112   6.659   2.910   6.212  0.3329  0.3747  0.6375
15566TIP3    H168113   6.587   2.868   6.258  0.7170  1.8451  2.7409
15566TIP3    H268114   6.619   2.948   6.134 -1.0317  0.5399  1.3844
15567TIP3   OH268115   2.422   0.889   5.028  0.6940 -0.6879 -0.2804
15567TIP3    H168116   2.488   0.887   5.098  0.1789 -0.8609  0.2139
15567TIP3    H268117   2.343   0.854   5.070  0.0436  0.3633 -0.6043
15568TIP3   OH268118   0.516   2.316   3.693 -0.5188  0.5234  0.1114
15568TIP3    H168119   0.596   2.335   3.742  0.2486 -2.3883  0.1751
15568TIP3    H268120   0.471   2.400   3.686  1.7201  1.9321  1.5356
15569TIP3   OH268121   4.018   0.219   3.469 -0.0641 -0.3566 -0.0237
15569TIP3    H168122   4.060   0.297   3.504  0.2000 -0.7130  0.4665
15569TIP3    H268123   3.977   0.177   3.545  0.1231 -0.8965 -0.2124
15570TIP3   OH268124   6.392   4.000  12.876  0.2922 -0.4339 -0.2259
15570TIP3    H168125   6.382   4.037  12.788 -0.2580  1.5425  0.6001
15570TIP3    H268126   6.417   4.075  12.930  1.1576 -1.7048  1.2242
15571TIP3   OH268127   1.962   1.359  14.021 -0.1250 -0.0827  0.1227
15571TIP3    H168128   2.008   1.366  14.105  0.5216 -0.9584 -0.1477
15571TIP3    H268129   2.017   1.406  13.959 -0.4765  0.3500  0.1353
15572TIP3   OH268130   4.812   5.045  11.890 -0.9269  1.1112  0.0584
15572TIP3    H168131   4.773   4.979  11.948 -0.5000  0.4169 -0.4212
15572TIP3    H268132   4.744   5.111  11.879 -1.3830  0.7249  0.5146
15573TIP3   OH268133   3.980   5.969  14.484  0.6188  0.5936 -0.2305
15573TIP3    H168134   4.051   6.028  14.458  1.0664 -0.1455 -0.7317
15573TIP3    H268135   4.021   5.882  14.484 -0.5168  0.0231 -1.4633
15574TIP3   OH268136   6.532   6.492   0.921 -0.1669  0.0129  0.1876
15574TIP3    H168137   6.526   6.397   0.908 -0.5094 -0.1889  1.6733
15574TIP3    H268138   6.600   6.520   0.859  0.3154 -1.2824  0.0990
15575TIP3   OH268139   4.469   4.514  12.854  0.1877  0.2361 -0.5442
15575TIP3    H168140   4.434   4.578  12.793 -0.1432  1.5841  1.0058
15575TIP3    H268141   4.405   4.511  12.925  1.1476 -0.4031  0.3148
15576TIP3   OH268142   2.523   3.178   2.762 -0.0067 -0.3405 -0.1572
15576TIP3    H168143   2.596   3.131   2.722  1.2327  0.6871  0.7830
15576TIP3    H268144   2.561   3.262   2.787 -1.6189  0.3404  0.0773
15577TIP3   OH268145   2.872   1.801  17.212  0.0134 -0.1113  0.0799
15577TIP3    H168146   2.900   1.886  17.177 -1.2431  0.7990  1.1702
15577TIP3    H268147   2.873   1.813  17.307  1.3202 -1.8525  0.3452
15578TIP3   OH268148   1.043   1.606  16.330 -0.1707  0.1019  0.5106
15578TIP3    H168149   1.073   1.696  16.344 -2.6126  1.1020 -0.0237
15578TIP3    H268150   1.056   1.591  16.236 -1.2931  0.5604  0.2660
15579TIP3   OH268151   5.757   0.840   3.328  0.3980  0.2599  0.5310
15579TIP3    H168152   5.793   0.758   3.293 -0.7234 -0.3299  0.7153
15579TIP3    H268153   5.692   0.812   3.393  0.4642  1.3090  1.0691
15580TIP3   OH268154   5.646   0.783  13.165  0.3677  0.3995  0.0574
15580TIP3    H168155   5.607   0.740  13.088  0.9359  1.3575 -0.7897
15580TIP3    H268156   5.580   0.771  13.234 -0.1194 -0.5561 -0.5362
15581TIP3   OH268157   4.339   6.073   5.794 -0.3017 -0.6832 -0.1045
15581TIP3    H168158   4.361   6.166   5.801 -1.9435 -0.1441 -1.4071
15581TIP3    H268159   4.250   6.072   5.759 -0.6507 -2.7509  0.6593
15582TIP3   OH268160   1.352   5.224   1.425  0.5633 -0.1139  0.2783
15582TIP3    H168161   1.294   5.164   1.378 -1.0134  0.5342  1.2896
15582TIP3    H268162   1.301   5.304   1.434  1.0604  0.0428  2.3855
15583TIP3   OH268163   3.759   1.791   4.930 -0.1250 -0.3972  0.2912
15583TIP3    H168164   3.772   1.716   4.872 -1.1581 -0.7764  0.5309
15583TIP3    H268165   3.720   1.858   4.875 -1.2884 -0.8242  0.5613
15584TIP3   OH268166   6.129   5.083  11.684  0.7601 -0.3254 -0.0024
15584TIP3    H168167   6.152   5.158  11.738  0.9825  0.6547 -1.4066
15584TIP3    H268168   6.143   5.007  11.741 -1.3939  0.7514  2.1342
15585TIP3   OH268169   1.251   0.125  13.269 -0.3500 -0.3135 -0.1759
15585TIP3    H168170   1.239   0.031  13.260 -2.2247 -0.0337 -1.2559
15585TIP3    H268171   1.280   0.154  13.182 -1.6303  0.3013 -0.4316
15586TIP3   OH268172   3.613   6.452   2.882 -0.5144  0.1980 -0.1117
15586TIP3    H168173   3.676   6.455   2.955  0.6246 -0.4255 -1.0367
15586TIP3    H268174   3.543   6.394   2.913  0.4607 -0.8991  0.1159
15587TIP3   OH268175   5.227   6.217   5.780 -0.0316 -0.0450 -0.3838
15587TIP3    H168176   5.141   6.203   5.741  0.1512  0.5250 -1.0326
15587TIP3    H268177   5.211   6.225   5.874 -0.4600 -1.7233 -0.2868
15588TIP3   OH268178   1.887   1.031  17.313 -0.0556 -0.1443 -0.0470
15588TIP3    H168179   1.798   1.064  17.306 -0.4025 -1.1170 -0.3622
15588TIP3    H268180   1.937   1.084  17.251 -0.3138  0.6854  0.4272
15589TIP3   OH268181   4.899   1.089   2.668 -0.1282 -0.7819 -0.1110
15589TIP3    H168182   4.971   1.135   2.711 -0.1158 -0.4019 -0.5415
15589TIP3    H268183   4.845   1.057   2.741  0.0522 -0.3968  0.1955
15590TIP3   OH268184   2.839   4.301  11.673  0.2840 -0.1738  0.1397
15590TIP3    H168185   2.865   4.288  11.764  1.4055  0.2394 -0.1140
15590TIP3    H268186   2.798   4.218  11.648  3.2067 -1.6661 -0.0796
15591TIP3   OH268187   1.443   3.937   5.000 -0.2433 -0.1999 -0.1302
15591TIP3    H168188   1.412   3.908   5.086  1.7309 -0.4601  0.5300
15591TIP3    H268189   1.511   4.001   5.020 -1.0731  1.1904 -1.5486
15592TIP3   OH268190   6.273   5.165  13.873  0.2954  0.2338  0.3471
15592TIP3    H168191   6.252   5.254  13.902 -0.2779  0.4691 -0.7029
15592TIP3    H268192   6.368   5.158  13.883  0.2944  0.8289  0.8149
15593TIP3   OH268193   3.644   0.815  12.776 -0.1263  0.1815  0.1663
15593TIP3    H168194   3.593   0.888  12.741 -1.9290 -0.1367  1.9730
15593TIP3    H268195   3.584   0.770  12.836  0.8992 -2.8173 -0.8690
15594TIP3   OH268196   2.384   2.073   1.010  0.1299 -0.1451 -0.0650
15594TIP3    H168197   2.439   2.003   1.044 -0.2066 -1.3492 -1.8176
15594TIP3    H268198   2.382   2.057   0.915  0.6528  2.7054 -0.6253
15595TIP3   OH268199   3.849   5.596   0.327  0.4020  0.3330  0.3557
15595TIP3    H168200   3.847   5.603   0.423  1.5412 -1.3526  0.5619
15595TIP3    H268201   3.921   5.535   0.310 -0.9688 -0.8869 -1.4712
15596TIP3   OH268202   4.357   0.336  15.479  0.3147  0.1483 -0.3982
15596TIP3    H168203   4.414   0.259  15.477  0.9618  0.5746  0.7288
15596TIP3    H268204   4.415   0.408  15.507 -0.9407  0.4159  1.6909
15597TIP3   OH268205   4.386   3.171  16.101 -0.0811 -0.0425 -0.3840
15597TIP3    H168206   4.365   3.196  16.191  2.9760 -2.4572  1.1821
15597TIP3    H268207   4.389   3.076  16.103  1.4367 -0.1169 -2.7061
15598TIP3   OH268208   4.178   2.730   2.495 -0.1450 -0.7567  0.0327
15598TIP3    H168209   4.088   2.698   2.500 -0.3461 -0.2345 -0.1687
15598TIP3    H268210   4.232   2.651   2.498 -0.5640 -1.0206  1.3174
15599TIP3   OH268211   1.773   6.417  14.869 -0.4258  0.3039  0.0830
15599TIP3    H168212   1.751   6.492  14.814  0.2226  0.9984  0.7632
15599TIP3    H268213   1.744   6.441  14.957  1.1569  0.4104  0.6061
15600TIP3   OH268214   3.901   6.066   4.587 -0.5665  0.0051 -0.4691
15600TIP3    H168215   3.901   5.988   4.532 -1.0602 -1.1591  1.0979
15600TIP3    H268216   3.816   6.063   4.632  0.4980 -0.1000  1.6520
15601TIP3   OH268217   6.282   0.064  11.517  0.0047  0.0413  0.2818
15601TIP3    H168218   6.295   0.118  11.595  1.4527  0.4965 -0.2285
15601TIP3    H268219   6.363   0.077  11.466 -0.7533 -0.5271 -1.1119
15602TIP3   OH268220   0.823   6.685   2.920 -0.2137 -0.3028  0.3621
15602TIP3    H168221   0.842   6.750   2.852 -2.1691  1.2022  1.1622
15602TIP3    H268222   0.894   6.621   2.911  0.8394  0.9977 -1.6082
15603TIP3   OH268223   3.409   2.465   5.133  0.6425  0.1178  0.0502
15603TIP3    H168224   3.346   2.394   5.143  0.5393  0.2725  0.5067
15603TIP3    H268225   3.399   2.518   5.212 -0.5438  1.6541 -1.0685
15604TIP3   OH268226   4.077   5.449   0.259 -0.8192  0.5337  0.2825
15604TIP3    H168227   4.158   5.431   0.307 -0.4387  1.1880 -0.1094
15604TIP3    H268228   4.087   5.401   0.177 -0.3214  1.5354 -0.2553
15605TIP3   OH268229   2.357   6.661  15.618  0.2487  0.4713  0.1535
15605TIP3    H168230   2.264   6.639  15.617 -0.3136  2.5738  0.7516
15605TIP3    H268231   2.386   6.640  15.707  0.8252 -1.7994 -0.5172
15606TIP3   OH268232   5.776   6.238   4.155  0.4171  0.0439 -0.0132
15606TIP3    H168233   5.834   6.267   4.225 -0.8364  2.9305 -0.0134
15606TIP3    H268234   5.693   6.219   4.199 -0.2077  1.3227 -0.5751
15607TIP3   OH268235   2.516   1.604  12.636  0.6215 -0.3205 -0.0575
15607TIP3    H168236   2.442   1.544  12.648  0.0013  0.3701 -0.3191
15607TIP3    H268237   2.558   1.574  12.556  0.2389 -0.3290 -0.2581
15608TIP3   OH268238   4.393   3.496   5.769  0.4968 -0.3582 -0.2494
15608TIP3    H168239   4.447   3.535   5.700  1.4093 -1.1546  0.0014
15608TIP3    H268240   4.446   3.501   5.848 -0.6990  0.9079  0.5168
15609TIP3   OH268241   4.589   3.910  11.438  0.0836 -0.3924 -0.0537
15609TIP3    H168242   4.635   3.928  11.356 -0.8992  1.3498 -0.2839
15609TIP3    H268243   4.510   3.864  11.411  0.0467 -0.3403 -0.0370
15610TIP3   OH268244   6.569   2.871   1.534 -0.3718  0.2023  0.5825
15610TIP3    H168245   6.506   2.875   1.606 -0.3768 -0.3377  0.6089
15610TIP3    H268246   6.547   2.791   1.486  0.0896  0.1770  0.4016
15611TIP3   OH268247   4.334   4.299  15.019 -0.4261  0.4770 -0.2045
15611TIP3    H168248   4.401   4.340  15.073 -0.0933  0.7781 -0.8378
15611TIP3    H268249   4.294   4.371  14.972 -0.2199  0.1392 -0.9064
15612TIP3   OH268250   4.386   4.232  15.844  0.1956 -0.1257  0.1384
15612TIP3    H168251   4.442   4.215  15.768  0.4701 -0.6558  0.4475
15612TIP3    H268252   4.410   4.320  15.873 -0.8338  0.6096 -1.1558
15613TIP3   OH268253   2.413   0.965   4.586  0.3210  0.0913 -0.6632
15613TIP3    H168254   2.481   0.969   4.653 -0.6218 -1.6205  0.4642
15613TIP3    H268255   2.435   0.887   4.534 -1.4812 -1.3543  0.6034
15614TIP3   OH268256   1.599   2.426  16.698  0.5192  0.3327  0.5498
15614TIP3    H168257   1.558   2.424  16.611  2.3863 -0.3635 -0.3587
15614TIP3    H268258   1.606   2.333  16.722 -0.6714  0.5424  1.8138
15615TIP3   OH268259   4.205   1.990  12.783 -0.5472  0.3415 -0.2339
15615TIP3    H168260   4.121   1.960  12.818  1.0803 -1.3273  2.5918
15615TIP3    H268261   4.231   2.062  12.842  0.4846  0.1110 -0.3907
15616TIP3   OH268262   5.722   1.725   5.799  0.1080  0.3615 -0.1028
15616TIP3    H168263   5.710   1.780   5.722 -1.0268  1.7341  1.0127
15616TIP3    H268264   5.813   1.695   5.792  0.0672  0.5215 -1.9043
15617TIP3   OH268265   3.759   3.489   0.078  0.3600  0.2818 -0.4431
15617TIP3    H168266   3.769   3.550   0.005  2.3361 -0.6042 -0.9769
15617TIP3    H268267   3.737   3.405   0.037  2.5418 -0.4857 -0.2135
15618TIP3   OH268268   3.339   0.717  13.377 -0.2480 -0.3963 -0.1635
15618TIP3    H168269   3.358   0.746  13.466 -0.1530 -1.4618  0.1772
15618TIP3    H268270   3.424   0.699  13.339 -0.3387 -0.8911 -0.1358
15619TIP3   OH268271   6.338   2.057  12.144 -0.1612 -0.1128 -0.8806
15619TIP3    H168272   6.327   2.021  12.056  2.7156 -0.0298 -1.3575
15619TIP3    H268273   6.402   2.127  12.134  2.3543 -1.8335  1.5812
15620TIP3   OH268274   3.030   0.856  13.906 -0.6115 -0.2258  0.4538
15620TIP3    H168275   3.006   0.797  13.978 -1.3333 -2.8384 -1.7519
15620TIP3    H268276   2.999   0.811  13.827 -0.4262  2.7776 -1.4866
15621TIP3   OH268277   2.299   2.900  11.385  0.0882 -0.6286  0.1827
15621TIP3    H168278   2.336   2.890  11.298 -0.1054 -1.2111  0.1612
15621TIP3    H268279   2.341   2.832  11.438 -0.2571 -0.6927  0.3837
15622TIP3   OH268280   3.329   2.649   4.851 -0.2713 -0.7551 -0.0631
15622TIP3    H168281   3.278   2.586   4.902 -1.5540  1.5845  1.7146
15622TIP3    H268282   3.419   2.635   4.878 -0.4194 -2.2897 -0.2708
15623TIP3   OH268283   4.764   1.991   1.210 -0.3286  0.1050 -0.1406
15623TIP3    H168284   4.676   2.025   1.225 -1.2001 -2.0608  0.0453
15623TIP3    H268285   4.820   2.068   1.208 -2.3854  1.6756 -1.5633
15624TIP3   OH268286   6.166   2.265   1.545 -0.4974  0.1623  0.0736
15624TIP3    H168287   6.080   2.281   1.507 -0.4236 -0.8709 -0.5443
15624TIP3    H268288   6.173   2.170   1.552  0.3843  0.2493  0.6223
15625TIP3   OH268289   2.845   0.652   4.044  0.0964 -0.8196 -0.4265
15625TIP3    H168290   2.783   0.581   4.061  0.4268 -1.2278 -0.8875
15625TIP3    H268291   2.791   0.725   4.014 -0.1265 -1.3252 -1.2833
15626TIP3   OH268292   4.154   5.080   4.762  0.2912 -0.1508  0.2249
15626TIP3    H168293   4.232   5.107   4.809 -0.6725 -1.9779  3.0774
15626TIP3    H268294   4.178   4.998   4.719  0.3277  0.0568 -0.1644
15627TIP3   OH268295   5.079   2.734  15.132  0.3650 -0.2240 -0.3404
15627TIP3    H168296   5.109   2.798  15.068 -0.8214  1.4646  0.7026
15627TIP3    H268297   5.107   2.650  15.097 -0.1538  0.6298 -3.0139
15628TIP3   OH268298   4.062   0.068  11.422 -0.4469 -0.1983  0.1983
15628TIP3    H168299   3.984   0.016  11.402 -0.4680  0.4964 -1.8477
15628TIP3    H268300   4.040   0.156  11.392  0.4218  0.4774  1.4547
15629TIP3   OH268301   1.862   0.498   1.709  0.0164 -0.2404 -0.2518
15629TIP3    H168302   1.891   0.521   1.797  0.4320  0.6606 -0.6015
15629TIP3    H268303   1.933   0.529   1.652 -0.0197 -1.2513 -0.8723
15630TIP3   OH268304   0.049   0.171   0.184  0.1792  0.4187  0.0621
15630TIP3    H168305  -0.007   0.239   0.147  0.1665 -0.2153 -1.1220
15630TIP3    H268306  -0.003   0.134   0.256  0.0088  1.3449  0.4350
15631TIP3   OH268307   5.498   3.791   5.010 -0.3450 -0.4936  0.0793
15631TIP3    H168308   5.557   3.750   5.073 -1.1772 -0.4477  0.9095
15631TIP3    H268309   5.487   3.725   4.941  2.8350  0.5073 -1.5713
15632TIP3   OH268310   6.697   5.873   0.714 -0.1253  0.5849  0.1380
15632TIP3    H168311   6.696   5.965   0.689  1.5277  0.7217  0.4671
15632TIP3    H268312   6.722   5.827   0.633  0.1492  0.5425  0.2452
15633TIP3   OH268313   2.178   6.439  16.542  0.3916 -1.0872  0.0940
15633TIP3    H168314   2.190   6.363  16.599 -0.2818 -0.9506  0.4336
15633TIP3    H268315   2.224   6.510  16.587 -2.2457 -0.3450  1.8504
15634TIP3   OH268316   5.722   1.885  16.498  0.3308  0.1314 -0.2163
15634TIP3    H168317   5.756   1.826  16.431  0.4758 -1.6314  1.3395
15634TIP3    H268318   5.735   1.972  16.462  3.3193 -0.5937 -1.1598
15635TIP3   OH268319   1.147   2.602  15.625  0.2478  0.0472 -0.0098
15635TIP3    H168320   1.237   2.568  15.622  0.6092  0.9958 -0.3929
15635TIP3    H268321   1.152   2.674  15.688 -0.1308  0.4353 -0.4281
15636TIP3   OH268322   1.276   1.675   0.963  1.1340 -0.2462 -0.5065
15636TIP3    H168323   1.230   1.758   0.979  0.4889 -0.3677 -1.5928
15636TIP3    H268324   1.237   1.614   1.026  0.5474 -0.0809 -0.6963
15637TIP3   OH268325   3.494   2.343  15.680 -0.1990  0.1347  0.3463
15637TIP3    H168326   3.450   2.375  15.601  1.8599  1.1959 -0.4685
15637TIP3    H268327   3.571   2.400  15.689 -0.2856 -0.0424  3.0695
15638TIP3   OH268328   5.267   0.565  16.211  0.3546 -0.0619 -0.4743
15638TIP3    H168329   5.193   0.548  16.268  0.3062  0.2447 -0.4425
15638TIP3    H268330   5.322   0.488  16.219 -0.1425 -0.4550 -0.7871
15639TIP3   OH268331   1.619   4.613  16.395 -0.3442  0.2500 -0.1845
15639TIP3    H168332   1.674   4.670  16.449  0.2250  1.3808 -1.8650
15639TIP3    H268333   1.589   4.544  16.455 -0.7013  2.0519  1.8255
15640TIP3   OH268334   5.230   5.285   0.635  0.1585  0.2518 -0.4122
15640TIP3    H168335   5.271   5.199   0.650  0.9434  0.5525 -0.7739
15640TIP3    H268336   5.144   5.264   0.597  0.3779 -0.3717 -0.5807
15641TIP3   OH268337   1.909   2.148  12.746  0.1609 -0.4390  0.5047
15641TIP3    H168338   1.884   2.137  12.838 -2.3258 -1.2735 -0.1905
15641TIP3    H268339   1.846   2.095  12.698  1.8013 -0.5366 -1.6758
15642TIP3   OH268340   0.606   4.809  11.687 -0.1737 -0.1580 -0.5166
15642TIP3    H168341   0.544   4.859  11.740 -1.6915  1.2404 -3.3602
15642TIP3    H268342   0.565   4.723  11.677 -1.4500  0.5740 -1.9029
15643TIP3   OH268343   5.326   1.008   5.691  0.2190 -0.0324 -0.1167
15643TIP3    H168344   5.391   1.076   5.707  0.9059 -0.0754 -2.3112
15643TIP3    H268345   5.322   0.958   5.772  2.9922 -0.0509  0.0983
15644TIP3   OH268346   4.466   4.003   5.497  0.4560  0.2659  0.0262
15644TIP3    H168347   4.431   3.930   5.549 -0.3384 -1.0760 -2.2629
15644TIP3    H268348   4.547   3.970   5.460 -0.1926  0.2976 -1.4854
15645TIP3   OH268349   3.192   1.542   1.852 -0.3326 -0.5244 -0.2439
15645TIP3    H168350   3.123   1.565   1.790 -0.7444 -0.6762  0.1552
15645TIP3    H268351   3.257   1.612   1.842  0.2546 -1.2549 -1.8133
15646TIP3   OH268352   0.906   6.267  14.878 -0.3332 -0.4712 -0.1306
15646TIP3    H168353   0.863   6.319  14.946 -0.8362 -0.6156 -0.3379
15646TIP3    H268354   0.987   6.314  14.860 -0.4882 -0.0971  0.1296
15647TIP3   OH268355   6.401   3.927   1.235  0.3720 -0.2254 -0.5895
15647TIP3    H168356   6.313   3.953   1.207  0.4174 -0.7213 -1.2052
15647TIP3    H268357   6.403   3.948   1.328 -0.4664 -0.3920 -0.5223
15648TIP3   OH268358   5.439   2.548   3.383  0.4233  0.3427 -0.2824
15648TIP3    H168359   5.422   2.499   3.302  1.3590 -0.0939 -0.2329
15648TIP3    H268360   5.371   2.518   3.444  0.4800 -0.2753 -0.5140
15649TIP3   OH268361   3.394   4.604   3.338 -0.1786 -0.2748  0.2196
15649TIP3    H168362   3.304   4.600   3.305 -0.6464  0.6018  1.3325
15649TIP3    H268363   3.413   4.698   3.341  0.6928 -0.4498  0.2162
15650TIP3   OH268364   2.132   0.340   1.627  0.0646  0.1200 -0.0019
15650TIP3    H168365   2.039   0.319   1.618 -0.0265  0.7853 -0.6872
15650TIP3    H268366   2.174   0.255   1.642 -0.2999 -0.6037 -2.6132
15651TIP3   OH268367   4.234   0.323  12.667 -0.1091 -0.1770  0.2391
15651TIP3    H168368   4.275   0.397  12.621  1.8498 -1.1801  0.2755
15651TIP3    H268369   4.269   0.246  12.622 -2.0151 -1.1021  0.2895
15652TIP3   OH268370   0.336   1.076  14.568  0.0786  0.4032 -0.5416
15652TIP3    H168371   0.406   1.066  14.633 -0.0891 -0.5008 -0.4889
15652TIP3    H268372   0.285   0.995  14.575 -1.7846  1.5821  0.3576
15653TIP3   OH268373   4.143   1.042   3.613 -0.3144 -0.0806 -0.2299
15653TIP3    H168374   4.143   1.017   3.521 -1.3316 -0.0433 -0.2469
15653TIP3    H268375   4.055   1.021   3.644 -0.3051  0.8628  0.4733
15654TIP3   OH268376   4.497   6.487  15.759 -0.9053 -0.2706  0.1019
15654TIP3    H168377   4.417   6.525  15.721 -0.8357  1.0331  1.1617
15654TIP3    H268378   4.540   6.443  15.686 -1.6760  0.5948 -0.9158
15655TIP3   OH268379   3.189   5.981  15.144 -0.3231 -0.0493  0.3537
15655TIP3    H168380   3.165   5.982  15.051 -2.1404  2.0535  0.7512
15655TIP3    H268381   3.272   6.030  15.147 -0.0819 -0.4135 -0.1907
15656TIP3   OH268382   2.637   0.268   0.944  0.0851 -0.3989 -0.2100
15656TIP3    H168383   2.660   0.288   1.035 -1.2429  1.0811 -0.1553
15656TIP3    H268384   2.586   0.188   0.949  0.3697 -0.5534  0.2905
15657TIP3   OH268385   2.519   2.324  13.146  0.0393  0.2875  0.3931
15657TIP3    H168386   2.456   2.384  13.184 -0.3752  0.5911 -0.7374
15657TIP3    H268387   2.596   2.331  13.202 -0.6287  0.5449  1.2888
15658TIP3   OH268388   1.191   4.643   0.526 -0.1889  0.3321 -0.3011
15658TIP3    H168389   1.213   4.553   0.504 -0.2733  0.3985 -0.6555
15658TIP3    H268390   1.209   4.650   0.620 -4.5196 -1.4390  0.9154
15659TIP3   OH268391   5.130   5.137   1.677 -0.0412 -0.6317  0.6788
15659TIP3    H168392   5.053   5.135   1.734 -0.9768  2.1193 -0.3315
15659TIP3    H268393   5.155   5.229   1.673  1.3405 -1.0278 -1.5971
15660TIP3   OH268394   0.246   3.008  12.959 -0.2608  0.0882 -0.2365
15660TIP3    H168395   0.191   2.963  13.024 -0.3414  1.1429  0.4540
15660TIP3    H268396   0.239   2.954  12.880  0.3584 -1.5787  0.8067
15661TIP3   OH268397   5.492   0.120  15.632 -0.3540 -0.4169 -0.0186
15661TIP3    H168398   5.456   0.197  15.589 -0.4979  0.2236  1.2005
15661TIP3    H268399   5.568   0.153  15.681 -0.8751 -0.8834  1.1402
15662TIP3   OH268400   1.687   6.150   6.801  0.0383  0.3281  0.1449
15662TIP3    H168401   1.636   6.095   6.742 -0.6368  0.8524  0.2268
15662TIP3    H268402   1.656   6.127   6.888  0.7115 -0.1160  0.2809
15663TIP3   OH268403   2.446   6.730  17.201  0.9233 -0.0073 -0.0693
15663TIP3    H168404   2.468   6.647  17.158  0.7876  0.3369 -0.8314
15663TIP3    H268405   2.357   6.749  17.172  1.4414  1.0929 -1.0716
15664TIP3   OH268406   0.155   2.489  11.966  0.0725 -0.3629 -0.1275
15664TIP3    H168407   0.093   2.463  12.034  0.9712  1.0322  1.3133
15664TIP3    H268408   0.118   2.568  11.928  0.5071 -0.0441  0.1016
15665TIP3   OH268409   3.569   5.400  12.887  0.3632  0.0176  0.3227
15665TIP3    H168410   3.549   5.457  12.961 -0.3942 -2.0708  1.8433
15665TIP3    H268411   3.487   5.353  12.870  0.3620  0.7821 -2.2392
15666TIP3   OH268412   6.419   4.042   5.781 -0.0607 -0.5949 -0.5088
15666TIP3    H168413   6.444   3.972   5.841  0.2665  1.7389  2.2608
15666TIP3    H268414   6.503   4.077   5.750 -0.2226 -1.8334 -2.5634
15667TIP3   OH268415   3.632   4.293   0.504  0.7119 -0.3166  0.1194
15667TIP3    H168416   3.621   4.202   0.478  1.8967 -0.5994  0.5678
15667TIP3    H268417   3.543   4.322   0.527  0.2509 -1.2048 -0.4563
15668TIP3   OH268418   0.000   2.382   4.419  0.1259 -0.3852  0.2526
15668TIP3    H168419  -0.015   2.470   4.453 -1.6931 -0.7571  0.4840
15668TIP3    H268420   0.079   2.391   4.364  1.2214  0.9011  1.9450
15669TIP3   OH268421   1.195   6.514  13.639 -0.2398  0.2875 -0.3413
15669TIP3    H168422   1.149   6.459  13.702  1.1812 -0.0967  0.4065
15669TIP3    H268423   1.288   6.506  13.663  0.3483  0.1922 -2.4439
15670TIP3   OH268424   2.777   2.463   3.482  0.4367  0.5578 -0.6260
15670TIP3    H168425   2.867   2.493   3.470  0.0089  1.9812 -0.3779
15670TIP3    H268426   2.736   2.476   3.396  0.5613 -0.4847 -0.8586
15671TIP3   OH268427   4.758   2.207  14.464  0.7402  0.4186 -0.0211
15671TIP3    H168428   4.716   2.121  14.471 -0.3983  0.9453 -0.1705
15671TIP3    H268429   4.827   2.195  14.399 -0.2396 -0.0715 -0.9890
15672TIP3   OH268430   4.805   0.873   2.561  0.1940  0.5772  0.2757
15672TIP3    H168431   4.857   0.940   2.606 -0.9877  1.7871 -0.0925
15672TIP3    H268432   4.785   0.913   2.476 -1.4659  0.2253  0.4726
15673TIP3   OH268433   3.080   4.714  12.178  0.1076  0.0289 -0.4228
15673TIP3    H168434   3.033   4.789  12.215  0.8585 -0.4820  1.6606
15673TIP3    H268435   3.167   4.718  12.216  0.5565 -1.2144 -1.2514
15674TIP3   OH268436   5.941   5.465  13.253  0.7467  0.3031  0.3332
15674TIP3    H168437   5.967   5.430  13.168  0.0109 -2.8790  1.2723
15674TIP3    H268438   5.907   5.552  13.235  0.5538 -0.3089 -2.6238
15675TIP3   OH268439   3.094   2.681   2.875  0.2628  0.7627  0.3321
15675TIP3    H168440   3.180   2.690   2.833 -0.3835 -1.5049 -1.6666
15675TIP3    H268441   3.031   2.698   2.806 -0.8445 -2.1084  0.4803
15676TIP3   OH268442   6.034   5.094  14.565  0.0713  0.1315  0.2204
15676TIP3    H168443   6.045   5.045  14.646 -2.0143  0.3987  0.7288
15676TIP3    H268444   5.958   5.150  14.580  0.3683  1.0896 -1.5006
15677TIP3   OH268445   6.188   2.581  11.620  0.3792  0.0592 -0.4387
15677TIP3    H168446   6.213   2.627  11.540  0.1076  0.7688 -0.1258
15677TIP3    H268447   6.269   2.543  11.653  0.3153 -1.1797 -1.6230
15678TIP3   OH268448   0.834   4.078  16.166  0.0523  0.2805 -0.0301
15678TIP3    H168449   0.808   4.005  16.111 -0.7258  0.2096  0.4288
15678TIP3    H268450   0.920   4.103  16.132  0.4508 -1.0051 -0.0307
15679TIP3   OH268451   2.068   6.748   3.239 -0.0854 -0.1042  0.4311
15679TIP3    H168452   2.045   6.819   3.298  0.0058 -0.9550  1.5248
15679TIP3    H268453   2.008   6.677   3.261 -0.7667 -0.0923 -1.2486
15680TIP3   OH268454   4.308   2.729   2.871  0.1490 -0.0886  0.5277
15680TIP3    H168455   4.272   2.742   2.959  0.4342 -0.8836  0.7685
15680TIP3    H268456   4.302   2.815   2.830 -1.1204  0.0122  0.8947
15681TIP3   OH268457   4.537   2.328   2.470 -0.4742 -0.0541 -0.4569
15681TIP3    H168458   4.501   2.260   2.413  1.1994  0.1703 -1.8572
15681TIP3    H268459   4.517   2.410   2.425  1.9125  0.0685 -1.4632
15682TIP3   OH268460   6.258   5.607   3.745  0.3482  0.3756  0.0359
15682TIP3    H168461   6.340   5.649   3.772  0.5127 -0.9987  1.7832
15682TIP3    H268462   6.260   5.521   3.785 -0.9486 -0.5566 -1.7667
15683TIP3   OH268463   3.803   5.241  12.096 -0.1878 -0.0832 -0.3775
15683TIP3    H168464   3.732   5.302  12.077 -0.1987 -0.2606 -0.9047
15683TIP3    H268465   3.788   5.167  12.038  0.4398 -0.1159 -0.5031
15684TIP3   OH268466   0.772   1.825  13.903  0.4205 -0.2506 -0.2619
15684TIP3    H168467   0.821   1.756  13.947  0.4120  0.0059  0.1563
15684TIP3    H268468   0.717   1.863  13.971  0.7836  0.4927 -0.3717
15685TIP3   OH268469   2.345   4.737  11.202  0.1574  0.3057 -0.2532
15685TIP3    H168470   2.373   4.650  11.232 -0.8927  0.2453  0.5821
15685TIP3    H268471   2.255   4.746  11.234 -0.5600  0.7944 -2.2240
15686TIP3   OH268472   4.114   0.051  14.749 -0.3662 -0.6200  0.1238
15686TIP3    H168473   4.047   0.020  14.688 -0.9281 -0.9743  0.9160
15686TIP3    H268474   4.181   0.090  14.692 -0.8138 -1.0630 -0.7266
15687TIP3   OH268475   3.633   5.603  16.999  0.0272  0.0040  0.2077
15687TIP3    H168476   3.613   5.583  16.907  0.0984 -0.9946  0.3972
15687TIP3    H268477   3.723   5.572  17.011 -1.3332 -4.0454  1.7179
15688TIP3   OH268478   0.632   0.646  15.167  0.1442 -0.4614 -0.5763
15688TIP3    H168479   0.685   0.596  15.229  0.6129  0.6336 -0.0653
15688TIP3    H268480   0.542   0.620  15.186  0.4438 -1.9670 -1.1102
15689TIP3   OH268481   3.794   2.007   3.731  0.7885  0.3804 -0.1086
15689TIP3    H168482   3.820   1.915   3.734 -1.1629 -0.1847  1.1978
15689TIP3    H268483   3.786   2.027   3.638 -0.9508 -1.4545 -0.4180
15690TIP3   OH268484   0.866   0.981   2.898  0.3453 -0.0732 -0.0841
15690TIP3    H168485   0.800   0.925   2.856 -0.6871  0.7069  0.4442
15690TIP3    H268486   0.817   1.031   2.963  1.5790  0.1302  0.7188
15691TIP3   OH268487   1.784   1.129  15.507 -0.4381  0.0447 -0.0684
15691TIP3    H168488   1.835   1.206  15.532  1.8220 -1.4145  0.1402
15691TIP3    H268489   1.740   1.101  15.587  0.8919 -0.3953  0.5280
15692TIP3   OH268490   1.265   4.432  14.700  0.2510 -0.3430 -0.2181
15692TIP3    H168491   1.276   4.378  14.621  1.8516  2.3743 -1.9949
15692TIP3    H268492   1.349   4.425  14.746  0.8304  1.3003 -0.9686
15693TIP3   OH268493   3.656   3.025   0.614  0.6270 -0.4975  0.0960
15693TIP3    H168494   3.571   2.995   0.583 -0.3981  1.4135  0.8581
15693TIP3    H268495   3.663   2.989   0.703 -0.7101  1.5420  1.1055
15694TIP3   OH268496   2.591   6.545   4.416  0.7033 -0.4396  0.8767
15694TIP3    H168497   2.588   6.615   4.480 -0.1651  2.3426 -1.9503
15694TIP3    H268498   2.529   6.480   4.449 -0.4794  1.3285  2.3363
15695TIP3   OH268499   2.154   1.343  17.052 -0.1755  0.4404 -0.7648
15695TIP3    H168500   2.232   1.344  17.108 -2.2294 -0.3726  2.4188
15695TIP3    H268501   2.165   1.417  16.994  1.4896  2.4308  1.8479
15696TIP3   OH268502   0.920   3.038   4.313  0.1754  0.0131 -0.5628
15696TIP3    H168503   1.005   3.012   4.347  1.7210  1.6378 -2.8608
15696TIP3    H268504   0.912   3.131   4.337 -1.3588 -0.3372  0.3682
15697TIP3   OH268505   3.496   4.183   0.073  0.1693  0.5739 -0.4856
15697TIP3    H168506   3.407   4.160   0.048  0.0521 -1.0268  1.2127
15697TIP3    H268507   3.486   4.252   0.139 -0.1808 -2.3824  2.8365
15698TIP3   OH268508   1.727   6.290   3.814 -0.1644  0.0547 -0.4358
15698TIP3    H168509   1.791   6.311   3.746  0.4659 -2.5577 -0.7716
15698TIP3    H268510   1.643   6.288   3.769 -0.0068  0.1949 -0.7380
15699TIP3   OH268511   0.761   4.296  13.808  0.5420 -0.1276  0.5100
15699TIP3    H168512   0.805   4.342  13.736  0.9062  0.5747  1.1650
15699TIP3    H268513   0.832   4.258  13.859  0.2949 -0.4009  0.6515
15700TIP3   OH268514   3.652   5.814  15.101 -0.5265 -0.1551 -0.1189
15700TIP3    H168515   3.602   5.872  15.158 -0.4969 -1.2294  1.0148
15700TIP3    H268516   3.604   5.732  15.100  1.1068 -1.1764  0.8885
15701TIP3   OH268517   0.561   3.983   0.425  0.0934 -0.3987  0.0144
15701TIP3    H168518   0.638   3.950   0.470 -1.0278 -1.1874  1.4300
15701TIP3    H268519   0.559   4.077   0.444 -0.2878 -0.6982  1.5489
15702TIP3   OH268520   4.903   5.611   6.445 -0.0840 -0.1179  0.6479
15702TIP3    H168521   4.944   5.698   6.449 -1.7798  0.6620  1.9092
15702TIP3    H268522   4.957   5.556   6.503 -0.6768  0.8493  2.1641
15703TIP3   OH268523   0.579   3.203   1.444  0.2250  0.5456  0.4437
15703TIP3    H168524   0.586   3.274   1.507 -1.7847  0.5032  0.7699
15703TIP3    H268525   0.630   3.232   1.368  1.2217  1.3532  1.4049
15704TIP3   OH268526   2.548   0.599   3.876  0.1308  0.5250  0.0278
15704TIP3    H168527   2.479   0.646   3.922  0.0637  1.2991 -0.8358
15704TIP3    H268528   2.608   0.668   3.846  1.7606 -0.1769  1.5027
15705TIP3   OH268529   5.496   3.210  12.321 -0.1053  0.1840 -0.3107
15705TIP3    H168530   5.447   3.132  12.296  0.7518  0.6256 -3.9352
15705TIP3    H268531   5.579   3.177  12.356 -0.1135 -0.5395 -0.9699
15706TIP3   OH268532   5.396   3.364  11.469 -0.8429 -0.0036 -0.0503
15706TIP3    H168533   5.402   3.351  11.563 -0.5169 -1.1508 -0.2125
15706TIP3    H268534   5.466   3.309  11.433 -0.8462  0.5637 -0.9463
15707TIP3   OH268535   0.518   5.462   5.425  0.0977 -0.0796  0.0915
15707TIP3    H168536   0.573   5.526   5.470  1.7804 -0.3336 -1.4878
15707TIP3    H268537   0.516   5.387   5.484  0.6045  0.3044  0.6148
15708TIP3   OH268538   1.575   3.101  13.113 -0.5505  0.2318  0.0348
15708TIP3    H168539   1.555   3.172  13.052 -0.1689  1.4126  1.2272
15708TIP3    H268540   1.490   3.065  13.138 -0.7596  0.3871 -0.4575
15709TIP3   OH268541   0.155   6.396   0.179 -0.0784  0.7567  0.3797
15709TIP3    H168542   0.184   6.347   0.102  0.4582 -0.3999  1.2769
15709TIP3    H268543   0.197   6.481   0.172 -0.4758  0.8616 -0.8737
15710TIP3   OH268544   2.742   6.256   0.270  0.5861  0.7989 -0.0083
15710TIP3    H168545   2.752   6.243   0.176 -0.5847  1.1488 -0.1913
15710TIP3    H268546   2.740   6.351   0.282 -2.9317  0.8869 -0.1214
15711TIP3   OH268547   0.895   4.385  13.146 -0.2159  0.3217 -0.2270
15711TIP3    H168548   0.941   4.367  13.228 -1.0184 -0.4484  0.0734
15711TIP3    H268549   0.964   4.405  13.083  0.5682 -1.2989  0.0752
15712TIP3   OH268550   4.937   4.193  13.520 -0.1364  0.6824  0.4704
15712TIP3    H168551   4.919   4.193  13.614  1.6435 -0.6323  0.8760
15712TIP3    H268552   5.032   4.177  13.514 -0.4273 -0.7570 -1.5593
15713TIP3   OH268553   1.696   4.244  12.114  0.0321 -0.0655  0.0692
15713TIP3    H168554   1.618   4.191  12.127 -0.5937  0.2691 -2.0669
15713TIP3    H268555   1.673   4.329  12.152 -0.4366 -0.1212 -0.0887
15714TIP3   OH268556   6.639   2.403   5.606  0.3049 -0.5223  0.2736
15714TIP3    H168557   6.686   2.487   5.605 -0.2162 -0.2085  1.0419
15714TIP3    H268558   6.620   2.385   5.514 -1.7382  1.4363  0.2413
15715TIP3   OH268559   2.667   0.378   2.373 -0.2130 -0.0575 -0.2012
15715TIP3    H168560   2.676   0.389   2.468 -1.5261  0.1649 -0.0838
15715TIP3    H268561   2.691   0.463   2.336 -1.2772  0.3724  0.0596
15716TIP3   OH268562   5.800   5.240  13.450 -0.0356  0.1348  0.3169
15716TIP3    H168563   5.881   5.272  13.412  1.4341 -0.6348  2.6110
15716TIP3    H268564   5.813   5.146  13.461 -0.6642  0.2121  1.9802
15717TIP3   OH268565   0.668   1.956  11.386  0.0190 -0.0124  0.1783
15717TIP3    H168566   0.648   1.864  11.400 -0.0250 -0.0658 -0.2472
15717TIP3    H268567   0.624   2.001  11.458 -0.0927 -0.3040  0.2939
15718TIP3   OH268568   6.082   1.161   1.608 -0.2605  0.0758 -0.7095
15718TIP3    H168569   6.138   1.084   1.609  0.5685  0.6487 -1.2285
15718TIP3    H268570   6.011   1.139   1.547 -0.8027 -0.7846  0.2214
15719TIP3   OH268571   1.188   1.423   1.975 -0.5179 -0.3132 -0.3308
15719TIP3    H168572   1.219   1.400   1.887  0.5423  1.3052 -0.4368
15719TIP3    H268573   1.258   1.394   2.034 -0.7823 -0.5265 -0.1213
15720TIP3   OH268574   2.803   4.350  13.583 -0.1134 -0.3523  0.3670
15720TIP3    H168575   2.810   4.430  13.531  1.7353 -0.4987  0.3266
15720TIP3    H268576   2.886   4.345  13.631  0.6824 -3.1743 -1.0405
15721TIP3   OH268577   1.412   0.784   0.746 -0.3890 -0.4752  0.4492
15721TIP3    H168578   1.367   0.765   0.663  1.2861  1.8661 -1.1016
15721TIP3    H268579   1.352   0.843   0.792  0.7334  2.3874 -1.4767
15722TIP3   OH268580   0.520   3.790   0.815 -0.3275 -0.2043  0.3306
15722TIP3    H168581   0.547   3.747   0.734 -0.4573  0.1902  0.0735
15722TIP3    H268582   0.582   3.759   0.881 -0.5734 -0.9820  0.2130
15723TIP3   OH268583   1.117   5.553   0.168  0.2254  0.2845 -0.2450
15723TIP3    H168584   1.200   5.506   0.163 -0.8752 -1.7405 -0.2948
15723TIP3    H268585   1.107   5.593   0.082 -0.1451 -1.8077 -1.2213
15724TIP3   OH268586   0.515   2.721  12.612 -0.2868  0.0342  0.0526
15724TIP3    H168587   0.442   2.665  12.637  1.8438 -2.4119  1.2619
15724TIP3    H268588   0.509   2.728  12.517 -1.3174 -1.2568 -0.0004
15725TIP3   OH268589   2.176   2.914  16.863  0.3047 -0.2769  0.3346
15725TIP3    H168590   2.145   2.855  16.932 -2.8659  1.4255  0.5851
15725TIP3    H268591   2.179   2.859  16.784  0.4642 -1.4378  1.1275
15726TIP3   OH268592   5.441   2.665   2.450  0.3989  0.2594  0.5123
15726TIP3    H168593   5.474   2.704   2.531  1.4194  0.3770  0.0639
15726TIP3    H268594   5.353   2.700   2.440  0.8846  1.5949  0.6943
15727TIP3   OH268595   2.883   5.330  12.132  0.5077  0.3003 -0.1806
15727TIP3    H168596   2.847   5.252  12.088 -0.1896  1.0717 -1.0208
15727TIP3    H268597   2.874   5.311  12.225  0.9496 -0.8917 -0.3525
15728TIP3   OH268598   4.186   3.176   5.250 -0.0292  0.0047  0.2204
15728TIP3    H168599   4.255   3.170   5.316  0.9277 -1.5467 -0.8650
15728TIP3    H268600   4.232   3.199   5.169 -1.3203  3.0656  0.2171
15729TIP3   OH268601   1.037   2.938  13.188 -0.4222  0.1354 -0.1406
15729TIP3    H168602   0.963   2.887  13.155 -0.0935  0.3774 -1.2953
15729TIP3    H268603   1.104   2.873  13.210 -0.3088  0.0176 -0.8262
15730TIP3   OH268604   1.821   2.961   1.455 -0.3531 -0.2729  0.2286
15730TIP3    H168605   1.900   2.970   1.403 -0.4900  0.7342  0.1794
15730TIP3    H268606   1.846   2.991   1.543 -0.8369  0.6758  0.0540
15731TIP3   OH268607   4.243   2.229  12.598 -0.3924  0.5293 -0.3444
15731TIP3    H168608   4.151   2.206  12.588 -0.3154 -0.5830  1.0730
15731TIP3    H268609   4.284   2.150  12.633  1.3912  0.5581 -2.1727
15732TIP3   OH268610   0.054   3.297  15.254  0.3789  0.0697  0.3566
15732TIP3    H168611   0.078   3.234  15.186 -1.3473  0.1151 -0.3434
15732TIP3    H268612   0.091   3.380  15.225  0.5841 -0.1399  0.0189
15733TIP3   OH268613   5.442   4.280  12.712  0.0222  0.1565 -0.4190
15733TIP3    H168614   5.500   4.279  12.636  0.5744 -0.4002  0.0018
15733TIP3    H268615   5.491   4.327  12.779 -1.2218  2.3984 -0.9666
15734TIP3   OH268616   0.746   5.691  13.791  0.0158 -0.1990 -0.4037
15734TIP3    H168617   0.673   5.663  13.846 -0.6995  0.8367 -0.7855
15734TIP3    H268618   0.791   5.757  13.843 -0.8803  1.0538 -1.1519
15735TIP3   OH268619   0.824   5.988   1.868  0.7229  0.6139  0.0913
15735TIP3    H168620   0.876   6.062   1.838  1.4845  0.4686  0.9842
15735TIP3    H268621   0.858   5.969   1.956 -0.6025  0.2830  0.5572
15736TIP3   OH268622   5.187   2.225   2.618  0.5858 -1.1342  0.4932
15736TIP3    H168623   5.271   2.192   2.584  0.6265  1.5261 -2.3343
15736TIP3    H268624   5.212   2.299   2.674  0.1948  1.2706 -2.3098
15737TIP3   OH268625   4.137   6.529  16.061  0.1407 -0.9093  0.5288
15737TIP3    H168626   4.206   6.463  16.048 -1.1388 -2.2260  0.1594
15737TIP3    H268627   4.158   6.598  15.998  1.1213 -1.2678  0.4352
15738TIP3   OH268628   0.350   5.941   3.903 -0.2821  0.3134 -0.0060
15738TIP3    H168629   0.272   5.977   3.861  1.2076  2.8468 -0.8778
15738TIP3    H268630   0.361   5.994   3.982  0.0273 -0.6726  0.6244
15739TIP3   OH268631   4.125   1.561  11.972 -0.3135 -0.1625 -0.5597
15739TIP3    H168632   4.125   1.535  12.064 -0.1828 -0.2188 -0.5754
15739TIP3    H268633   4.042   1.527  11.938 -1.0046  1.0336 -0.1341
15740TIP3   OH268634   2.892   5.470  12.472 -0.1291 -0.2838 -0.5937
15740TIP3    H168635   2.885   5.375  12.464 -1.1958 -0.3202  0.4802
15740TIP3    H268636   2.933   5.484  12.558 -1.1388  0.2317 -0.1794
15741TIP3   OH268637   4.134   1.047   4.383  0.5146 -0.3320 -0.0464
15741TIP3    H168638   4.067   1.115   4.381  1.1615  0.3856  1.4296
15741TIP3    H268639   4.192   1.068   4.310  0.1295  0.0964 -0.2319
15742TIP3   OH268640   3.935   1.455   0.298 -0.7513  0.0244 -0.5773
15742TIP3    H168641   3.940   1.523   0.366  1.8340  2.2615 -2.7849
15742TIP3    H268642   3.841   1.443   0.284 -1.3838 -0.2875  3.0506
15743TIP3   OH268643   5.861   4.183   0.240  0.0705 -0.3938 -0.0899
15743TIP3    H168644   5.899   4.179   0.153  2.1283 -2.4040  0.7670
15743TIP3    H268645   5.936   4.173   0.299 -1.4607 -1.4445  1.8281
15744TIP3   OH268646   2.339   6.638  11.334 -0.4626  1.1879 -0.1554
15744TIP3    H168647   2.306   6.548  11.342  0.2854  1.0363  1.7206
15744TIP3    H268648   2.433   6.628  11.319 -0.3528  1.6582  0.2050
15745TIP3   OH268649   1.260   0.541   1.944  0.6504 -0.5119 -0.1063
15745TIP3    H168650   1.347   0.538   1.904  0.8482 -0.8019  0.3352
15745TIP3    H268651   1.222   0.623   1.913  1.8470  0.6142  1.2168
15746TIP3   OH268652   0.717   1.596   4.285 -0.5675 -0.2578 -0.1267
15746TIP3    H168653   0.682   1.527   4.228  0.1749 -0.4363 -0.3774
15746TIP3    H268654   0.655   1.600   4.358 -0.5604 -1.2718 -0.0511
15747TIP3   OH268655   1.005   0.542   0.724 -0.0395  0.0110  0.3071
15747TIP3    H168656   1.054   0.528   0.644  0.5471 -2.2282  0.9936
15747TIP3    H268657   0.930   0.483   0.717  0.3151 -0.6304  1.6160
15748TIP3   OH268658   5.450   5.954  17.248  0.1554  0.1592  0.2191
15748TIP3    H168659   5.407   5.912  17.173 -0.7228 -0.1695  0.8875
15748TIP3    H268660   5.384   5.950  17.318  0.8864  0.6502  0.9432
15749TIP3   OH268661   2.593   2.087   5.646  0.2783 -0.2102 -0.2171
15749TIP3    H168662   2.661   2.141   5.605  0.5787 -0.3220  0.1288
15749TIP3    H268663   2.512   2.133   5.627  0.7488  2.2048  2.8236
15750TIP3   OH268664   1.737   4.750  15.491 -0.1013 -0.3018  0.1918
15750TIP3    H168665   1.752   4.701  15.571 -1.8876 -1.3189 -0.0308
15750TIP3    H268666   1.643   4.742  15.475 -0.5259  3.2297  0.1213
15751TIP3   OH268667   4.923   4.534  12.162 -0.1622 -0.3584  0.0646
15751TIP3    H168668   4.994   4.568  12.108 -0.2842 -0.0504  0.0912
15751TIP3    H268669   4.874   4.476  12.104 -1.3659  1.3621 -0.7320
15752TIP3   OH268670   3.454   0.169   3.944  0.6329  0.0097  0.3153
15752TIP3    H168671   3.468   0.264   3.935 -2.0642  0.3398 -1.7371
15752TIP3    H268672   3.365   0.161   3.978 -0.2980 -1.6874 -2.2152
15753TIP3   OH268673   2.253   5.941  14.419  0.3468 -0.0965  0.3478
15753TIP3    H168674   2.314   5.950  14.346  0.7183  0.6149  0.7401
15753TIP3    H268675   2.231   5.848  14.420  1.3740 -0.3540  0.1613
15754TIP3   OH268676   0.968   4.765  17.147  0.2675  0.1712  0.4836
15754TIP3    H168677   0.959   4.680  17.103  1.8115 -0.4633  1.3128
15754TIP3    H268678   1.018   4.819  17.086  0.3411  0.0812  0.4643
15755TIP3   OH268679   2.646   4.637  15.226 -0.1022 -0.1439 -0.3360
15755TIP3    H168680   2.703   4.591  15.288 -0.5455  0.3650  0.4710
15755TIP3    H268681   2.600   4.702  15.280  0.2138  0.9724 -1.3852
15756TIP3   OH268682   2.944   0.989  15.823 -0.6163  0.4541 -0.1321
15756TIP3    H168683   2.923   1.062  15.765 -2.0431 -0.6323 -1.0405
15756TIP3    H268684   2.924   1.021  15.911 -1.1773  1.1643 -0.5145
15757TIP3   OH268685   4.220   4.805  14.564 -0.1793  0.1854  0.8465
15757TIP3    H168686   4.236   4.897  14.588  1.1666  0.3294 -0.4625
15757TIP3    H268687   4.291   4.757  14.607  1.2972  0.2544 -1.3598
15758TIP3   OH268688   5.672   0.058  14.435  0.5039 -0.6187 -0.2359
15758TIP3    H168689   5.692   0.150  14.453 -0.1891 -0.4164 -0.4426
15758TIP3    H268690   5.586   0.044  14.474  0.3378 -1.0159 -0.7274
15759TIP3   OH268691   2.878   3.088   0.209  0.1093 -0.3053 -0.2396
15759TIP3    H168692   2.941   3.047   0.269  1.1504  0.5524 -0.6975
15759TIP3    H268693   2.799   3.035   0.216  0.4925 -0.7226  1.2507
15760TIP3   OH268694   3.265   2.180  17.026  0.5828  0.7229  0.2085
15760TIP3    H168695   3.278   2.091  17.059  0.0377  0.8604  0.8330
15760TIP3    H268696   3.349   2.223  17.040  1.1466  0.0586 -0.9576
15761TIP3   OH268697   6.446   3.881  11.557 -0.0824 -0.2613  0.0494
15761TIP3    H168698   6.540   3.890  11.571  0.0371  1.5395 -1.4151
15761TIP3    H268699   6.430   3.787  11.556  1.8022 -0.6115 -0.1953
15762TIP3   OH268700   1.274   2.819   5.324  0.9502  0.1400  0.1040
15762TIP3    H168701   1.200   2.864   5.366  0.6065 -1.2574  1.0494
15762TIP3    H268702   1.348   2.878   5.337  0.2866  0.9380  0.3634
15763TIP3   OH268703   6.672   4.022  13.089  0.0432  0.0395  0.3198
15763TIP3    H168704   6.653   4.064  13.173 -1.4313  1.1117 -0.4936
15763TIP3    H268705   6.676   3.929  13.109 -0.9085  0.2219  1.4780
15764TIP3   OH268706   1.878   1.807   3.464  0.0900 -0.4921 -0.2128
15764TIP3    H168707   1.961   1.761   3.476  1.7178  1.8725 -1.6662
15764TIP3    H268708   1.891   1.891   3.509 -0.8868  0.5456 -1.7698
15765TIP3   OH268709   4.733   3.452   5.454 -0.1740 -0.1995  0.0331
15765TIP3    H168710   4.758   3.381   5.511 -1.0054  0.4963  1.3099
15765TIP3    H268711   4.672   3.413   5.391  0.0172 -0.7817  0.2120
15766TIP3   OH268712   3.469   2.532  14.113  0.2743  0.2241 -0.3249
15766TIP3    H168713   3.428   2.574  14.037  0.3928  0.0344 -0.4954
15766TIP3    H268714   3.398   2.483  14.154  0.4508 -0.5900 -0.9629
15767TIP3   OH268715   6.329   2.489   3.131  0.2475  0.0294  0.2393
15767TIP3    H168716   6.363   2.459   3.047  0.2036  0.7543 -0.0412
15767TIP3    H268717   6.245   2.530   3.110  0.3452  0.4298  0.6040
15768TIP3   OH268718   3.791   0.202   4.805  1.1007  0.0782  0.0411
15768TIP3    H168719   3.868   0.211   4.748  1.2431 -0.7320  0.0981
15768TIP3    H268720   3.745   0.125   4.772  1.1368 -0.3493  0.9473
15769TIP3   OH268721   3.379   0.234  13.760 -0.0605 -0.0517 -1.0770
15769TIP3    H168722   3.388   0.162  13.698  1.5839 -0.0336 -0.9027
15769TIP3    H268723   3.363   0.311  13.706  1.7770  0.0366 -1.5572
15770TIP3   OH268724   6.111   3.406   1.138 -0.1380 -0.0869  0.5462
15770TIP3    H168725   6.194   3.362   1.158  1.5719  2.2414 -0.9708
15770TIP3    H268726   6.067   3.348   1.076  0.1053 -1.5349  1.6588
15771TIP3   OH268727   5.697   1.890   4.581 -0.1073 -0.4265 -0.3984
15771TIP3    H168728   5.607   1.865   4.602 -0.2390  0.5594  0.3120
15771TIP3    H268729   5.689   1.971   4.530  0.3546 -0.5989 -0.7469
15772TIP3   OH268730   1.509   0.577  12.878 -1.1941  0.7387 -0.2610
15772TIP3    H168731   1.516   0.592  12.783  0.3675 -1.5650 -0.6157
15772TIP3    H268732   1.445   0.507  12.886 -1.5732  1.1629  0.4305
15773TIP3   OH268733   3.752   3.550  12.204 -0.3861 -0.0535 -0.1350
15773TIP3    H168734   3.726   3.621  12.263 -1.3663 -0.9190  0.5153
15773TIP3    H268735   3.671   3.522  12.163 -0.3789 -2.1247  1.1406
15774TIP3   OH268736   0.357   4.976   3.282  0.0707 -0.3355  0.2086
15774TIP3    H168737   0.382   4.936   3.199 -2.5453 -0.1225 -0.7665
15774TIP3    H268738   0.433   4.962   3.339  1.5533 -1.3642 -1.8898
15775TIP3   OH268739   1.877   3.623   0.377 -0.5575  0.3525  0.1904
15775TIP3    H168740   1.931   3.655   0.304 -0.6758 -0.1599 -0.1282
15775TIP3    H268741   1.880   3.693   0.442  0.7280  0.2079  0.3036
15776TIP3   OH268742   0.304   6.327  12.975  0.1066 -0.3121  0.0260
15776TIP3    H168743   0.297   6.307  12.881 -0.1607  2.3236 -0.5874
15776TIP3    H268744   0.224   6.290  13.012 -0.0641 -0.9012 -0.8733
15777TIP3   OH268745   3.120   5.170   2.027  0.3805 -0.2671 -0.0035
15777TIP3    H168746   3.121   5.096   2.089  1.6502 -0.7579 -0.5768
15777TIP3    H268747   3.051   5.227   2.060  1.2420 -0.3294  2.1004
15778TIP3   OH268748   5.104   0.250   2.903  0.5274 -1.3810  0.6031
15778TIP3    H168749   5.084   0.279   2.815 -0.3814  2.8455  1.9724
15778TIP3    H268750   5.021   0.216   2.937  0.7602 -2.5595  0.0123
15779TIP3   OH268751   3.401   3.423   1.218 -0.5808  0.2603 -0.1745
15779TIP3    H168752   3.459   3.498   1.229  0.6960 -0.6694 -0.3045
15779TIP3    H268753   3.460   3.349   1.206 -1.7805 -0.9016  0.7877
15780TIP3   OH268754   5.875   3.269  14.071  0.4250  0.1551 -0.3106
15780TIP3    H168755   5.787   3.230  14.072  0.2595  0.5162  0.6354
15780TIP3    H268756   5.891   3.289  13.979 -0.2467 -0.4346 -0.5740
15781TIP3   OH268757   1.158   6.145   3.460  0.3860 -0.3045 -0.2864
15781TIP3    H168758   1.066   6.160   3.483  0.0745 -0.0497 -1.6001
15781TIP3    H268759   1.160   6.056   3.425  0.5398 -0.1285 -0.7283
15782TIP3   OH268760   4.027   1.833  12.489  0.1925  0.7071 -0.1599
15782TIP3    H168761   4.000   1.923  12.510 -0.8252  0.1948  0.8340
15782TIP3    H268762   4.004   1.782  12.567 -0.4989 -0.6674 -1.2133
15783TIP3   OH268763   6.724   2.513   6.281  0.5506 -0.5794 -0.0866
15783TIP3    H168764   6.629   2.518   6.298  0.6859  0.8068  0.4581
15783TIP3    H268765   6.752   2.433   6.325 -0.5445 -1.6702 -1.2842
15784TIP3   OH268766   0.569   2.786  12.095  0.1543 -0.1000  0.0589
15784TIP3    H168767   0.585   2.725  12.023  2.2278  0.5420 -0.0846
15784TIP3    H268768   0.511   2.852  12.058  0.6561 -0.1410 -0.8365
15785TIP3   OH268769   4.400   1.375  15.110  0.7093  0.8318 -0.0594
15785TIP3    H168770   4.316   1.390  15.068  0.7799  1.1569 -0.0847
15785TIP3    H268771   4.394   1.286  15.145  1.1946 -0.0632 -2.0773
15786TIP3   OH268772   3.155   3.656   2.302  0.2073  0.2838  0.0299
15786TIP3    H168773   3.195   3.741   2.323 -0.2494  1.1707 -2.3585
15786TIP3    H268774   3.224   3.608   2.257 -0.1959  0.2828 -0.6005
15787TIP3   OH268775   2.583   5.460  12.019 -0.1313 -0.1714  0.1810
15787TIP3    H168776   2.559   5.461  12.112 -1.3357  2.2188 -0.0798
15787TIP3    H268777   2.652   5.394  12.013  1.5619  1.0875  3.1997
15788TIP3   OH268778   5.317   0.189   1.876 -0.3548  0.1951  0.1608
15788TIP3    H168779   5.387   0.206   1.938  1.4832 -0.0428 -1.7183
15788TIP3    H268780   5.342   0.106   1.834 -2.7714 -0.9063  0.7212
15789TIP3   OH268781   4.564   2.702   3.164 -0.0491 -0.4339  0.5969
15789TIP3    H168782   4.541   2.625   3.110 -1.3951  0.7214 -0.5730
15789TIP3    H268783   4.636   2.743   3.116  0.1647 -0.5578  0.8141
15790TIP3   OH268784   3.191   2.310   5.247  0.2758 -0.3384  0.8010
15790TIP3    H168785   3.173   2.225   5.206  0.1140 -1.3735  2.8678
15790TIP3    H268786   3.229   2.288   5.333  0.9369  1.7003  1.1007
15791TIP3   OH268787   5.811   2.838   3.465 -0.0557 -0.2958  0.0304
15791TIP3    H168788   5.829   2.814   3.374  1.0862  0.4628  0.0306
15791TIP3    H268789   5.768   2.761   3.502 -0.1899 -0.7570 -1.0445
15792TIP3   OH268790   1.392   5.571   0.470  0.2396  0.0871 -0.6307
15792TIP3    H168791   1.380   5.511   0.543  0.0577  0.8236 -0.0395
15792TIP3    H268792   1.385   5.516   0.392 -0.0261 -0.6339 -0.1089
15793TIP3   OH268793   1.644   3.324  15.394 -0.5264 -0.0970  0.0583
15793TIP3    H168794   1.590   3.363  15.463  1.5911 -0.5405  2.0775
15793TIP3    H268795   1.727   3.303  15.436  1.3429  0.6546 -2.9262
15794TIP3   OH268796   4.463   6.540   2.353 -0.2540  0.6106 -0.4051
15794TIP3    H168797   4.535   6.593   2.388  0.5691 -1.2623  0.9125
15794TIP3    H268798   4.415   6.512   2.431 -1.5706  0.6553 -1.1860
15795TIP3   OH268799   2.188   1.132   2.411  0.2995  0.5240 -0.0519
15795TIP3    H168800   2.252   1.062   2.394 -0.2298 -0.1136  0.4779
15795TIP3    H268801   2.126   1.092   2.473 -0.2095  1.3600 -0.0111
15796TIP3   OH268802   4.029   1.475   1.224  0.1868 -0.5419 -0.0957
15796TIP3    H168803   4.093   1.534   1.183 -2.0909  1.7282 -0.5967
15796TIP3    H268804   4.009   1.411   1.156  0.3415  0.0154 -0.6782
15797TIP3   OH268805   0.994   4.565   3.642 -0.0110 -0.0422  0.5676
15797TIP3    H168806   0.943   4.534   3.568 -0.0609  3.4748 -1.0656
15797TIP3    H268807   1.053   4.492   3.662 -1.7155 -2.0567 -1.2454
15798TIP3   OH268808   6.023   1.126  15.244  0.5912 -0.6163 -0.3331
15798TIP3    H168809   6.097   1.174  15.280  1.9074 -1.3330 -1.9387
15798TIP3    H268810   5.995   1.068  15.316  0.8804  0.4100  0.6338
15799TIP3   OH268811   2.865   4.120  17.243  0.4365  0.6993  0.3340
15799TIP3    H168812   2.868   4.130  17.338  0.4804 -1.8229  0.6578
15799TIP3    H268813   2.956   4.101  17.219  0.1366 -0.4552  0.0573
15800TIP3   OH268814   4.827   2.379   1.269  0.2598 -0.1823 -0.3079
15800TIP3    H168815   4.769   2.341   1.335 -1.9988  1.4273 -1.2685
15800TIP3    H268816   4.892   2.310   1.252 -0.8853 -1.7658  1.3658
15801TIP3   OH268817   5.518   5.063  13.519  0.0661 -0.5732  0.4094
15801TIP3    H168818   5.438   5.087  13.472  0.3942 -0.4184 -0.0724
15801TIP3    H268819   5.524   4.968  13.508 -0.5521 -0.7258  1.2484
15802TIP3   OH268820   0.682   5.488   3.983  0.3486 -0.7473  0.0467
15802TIP3    H168821   0.673   5.580   3.957  3.4234 -0.9045 -2.1625
15802TIP3    H268822   0.593   5.461   4.007 -1.0374  2.2189 -1.2061
15803TIP3   OH268823   1.110   2.391  12.548  0.4645  0.0257  0.4604
15803TIP3    H168824   1.026   2.395  12.595  0.5112  1.8785  0.4796
15803TIP3    H268825   1.093   2.333  12.474 -1.5694  2.0517 -0.8121
15804TIP3   OH268826   1.216   1.053   5.985  0.4761  0.0655  0.4758
15804TIP3    H168827   1.189   1.008   6.065  1.4255 -1.2194  0.1049
15804TIP3    H268828   1.137   1.053   5.930  0.0491  0.2198  1.0785
15805TIP3   OH268829   2.543   2.967   1.268 -0.4149 -0.6562  0.1885
15805TIP3    H168830   2.566   2.931   1.353  0.7288 -0.4339 -0.0170
15805TIP3    H268831   2.486   3.041   1.288 -0.2561 -0.6849  0.7532
15806TIP3   OH268832   0.373   3.622   2.359 -0.1940 -0.1442  0.0156
15806TIP3    H168833   0.388   3.716   2.370  0.2588 -0.0944 -0.9198
15806TIP3    H268834   0.437   3.596   2.293  0.9873 -1.4826  1.6125
15807TIP3   OH268835   5.265   5.084   0.048  0.0967 -0.4513 -0.4902
15807TIP3    H168836   5.191   5.062  -0.010 -0.3995 -0.9380  0.3079
15807TIP3    H268837   5.309   5.157   0.004  0.3758 -1.4899 -2.0387
15808TIP3   OH268838   1.392   4.139  14.597  0.0730  0.1745  0.2168
15808TIP3    H168839   1.454   4.128  14.525 -1.1880  0.4838 -0.9800
15808TIP3    H268840   1.308   4.109  14.561 -0.6432  0.5755  1.4818
15809TIP3   OH268841   3.524   2.834  12.821  0.0321  0.2154 -0.0009
15809TIP3    H168842   3.533   2.834  12.726  0.3352 -0.0041  0.0275
15809TIP3    H268843   3.541   2.744  12.847 -1.6108 -0.0940  0.1255
15810TIP3   OH268844   2.449   4.934   3.354 -0.6021  0.0526  0.3243
15810TIP3    H168845   2.385   4.870   3.323 -0.6519  0.5548 -0.6541
15810TIP3    H268846   2.421   4.956   3.442 -1.4977 -0.1038  0.0833
15811TIP3   OH268847   0.538   5.676  13.242  0.2578  0.0263 -0.3854
15811TIP3    H168848   0.474   5.604  13.242 -3.3719  2.9531 -0.9836
15811TIP3    H268849   0.544   5.703  13.151  0.7419  1.1687 -0.0344
15812TIP3   OH268850   5.695   2.775  13.628  0.5192 -0.2199  0.0744
15812TIP3    H168851   5.608   2.814  13.619 -1.7345 -4.2507  1.5495
15812TIP3    H268852   5.710   2.770  13.722  1.7127 -0.8049 -0.1258
15813TIP3   OH268853   3.892   4.398   2.552 -0.1531  0.3755 -0.6007
15813TIP3    H168854   3.930   4.311   2.550 -0.3733  0.1154  2.1282
15813TIP3    H268855   3.797   4.384   2.549 -0.2293  0.3876  0.9083
15814TIP3   OH268856   1.323   1.663   0.548  0.2381 -0.3054  0.1246
15814TIP3    H168857   1.351   1.750   0.577 -1.2191 -0.4046  2.0259
15814TIP3    H268858   1.361   1.653   0.461  1.4280  1.7408  0.3507
15815TIP3   OH268859   0.037   6.080  14.948  0.0596 -0.4724 -0.2352
15815TIP3    H168860   0.035   6.175  14.960 -0.1484 -0.6124  0.9193
15815TIP3    H268861  -0.007   6.066  14.863  0.8270  0.5033 -0.8134
15816TIP3   OH268862   4.329   0.175  15.190 -0.1967 -0.1070  1.0429
15816TIP3    H168863   4.394   0.107  15.208  0.1204 -0.0084  0.3037
15816TIP3    H268864   4.254   0.152  15.244 -1.1496 -2.5629 -1.1114
15817TIP3   OH268865   3.481   2.172   4.843 -0.1283  0.5455 -0.0694
15817TIP3    H168866   3.522   2.253   4.813  0.4076  0.4246  0.3327
15817TIP3    H268867   3.402   2.164   4.789  0.4952  0.6488 -1.0181
15818TIP3   OH268868   2.287   6.149  12.917  0.0924  0.2548 -0.1972
15818TIP3    H168869   2.362   6.092  12.935  0.2226  0.2023 -0.8849
15818TIP3    H268870   2.270   6.137  12.824  0.8784  2.2657 -0.6404
15819TIP3   OH268871   5.904   5.823   0.493 -0.3179  0.4914  0.1672
15819TIP3    H168872   5.928   5.745   0.444 -1.6336  0.3936 -0.3513
15819TIP3    H268873   5.838   5.866   0.438 -1.2950  0.7589  1.5131
15820TIP3   OH268874   1.833   3.347   2.864 -0.5928  0.2124  0.0897
15820TIP3    H168875   1.743   3.379   2.871 -1.3865 -1.7817 -0.5451
15820TIP3    H268876   1.869   3.356   2.953 -1.7738  0.0262  0.6024
15821TIP3   OH268877   4.505   5.394   5.928 -0.4065 -0.0050 -0.3924
15821TIP3    H168878   4.422   5.367   5.887 -0.4218  1.2342 -1.2550
15821TIP3    H268879   4.551   5.442   5.859  0.9729 -0.5195  0.1282
15822TIP3   OH268880   3.497   1.075   5.804 -0.3231  0.8302 -0.0021
15822TIP3    H168881   3.515   1.122   5.885 -0.5486 -0.5093  0.8577
15822TIP3    H268882   3.582   1.066   5.762 -0.0328  0.5989  0.6225
15823TIP3   OH268883   0.926   2.987   1.940 -0.5540  0.2783 -0.2069
15823TIP3    H168884   0.856   3.032   1.894  0.2385  1.6244 -0.1665
15823TIP3    H268885   0.957   2.921   1.878 -1.8712 -0.3743 -0.1966
15824TIP3   OH268886   5.125   6.607   3.864  0.0263 -0.0785  0.0952
15824TIP3    H168887   5.210   6.567   3.882 -0.3313 -1.7105 -1.5424
15824TIP3    H268888   5.129   6.631   3.771 -1.1486  0.2322  0.1089
15825TIP3   OH268889   5.263   2.063   1.558 -0.5177  0.4497 -0.2127
15825TIP3    H168890   5.312   1.998   1.608 -0.8775  0.9951  0.8954
15825TIP3    H268891   5.221   2.014   1.488 -0.1990 -0.3881  0.1774
15826TIP3   OH268892   0.649   6.469   0.330 -0.1377  0.0291 -0.0507
15826TIP3    H168893   0.700   6.545   0.358  0.6653 -0.4273 -0.2349
15826TIP3    H268894   0.558   6.498   0.336  0.0585  0.4267  1.5793
15827TIP3   OH268895   3.985   3.097  15.606  0.0920  0.3600 -0.0442
15827TIP3    H168896   3.927   3.049  15.548  0.8125 -1.4224  0.6359
15827TIP3    H268897   4.074   3.074  15.577  0.4566  0.1733  1.1443
15828TIP3   OH268898   6.749   6.024   2.539 -0.1634  0.1128 -0.0884
15828TIP3    H168899   6.828   6.027   2.593  0.0987 -1.2386 -0.3666
15828TIP3    H268900   6.680   6.056   2.597  0.4064  0.2998  0.4983
15829TIP3   OH268901   5.205   0.478  14.997  0.3695 -0.2066 -0.1662
15829TIP3    H168902   5.131   0.418  14.984  0.5830 -0.5284  0.0960
15829TIP3    H268903   5.241   0.489  14.909 -1.4330  1.8638 -0.7430
15830TIP3   OH268904   2.542   6.087   5.688  0.3687  0.2832 -0.8511
15830TIP3    H168905   2.582   6.169   5.717  2.6869 -0.5987 -1.3612
15830TIP3    H268906   2.591   6.063   5.609 -0.6212 -1.3215 -1.0171
15831TIP3   OH268907   0.731   5.408  10.868 -0.0366 -0.6542 -0.4723
15831TIP3    H168908   0.699   5.447  10.787 -0.8041 -0.2337  0.0234
15831TIP3    H268909   0.682   5.326  10.876  0.0419 -0.6977 -0.4372
15832TIP3   OH268910   6.643   5.820  16.981  0.5629  0.4026  0.6567
15832TIP3    H168911   6.699   5.897  16.966 -1.5098  1.8150 -0.1880
15832TIP3    H268912   6.647   5.772  16.899  0.4429  0.5625  0.5575
15833TIP3   OH268913   2.631   4.455   0.487 -0.0160  0.1182 -0.5279
15833TIP3    H168914   2.545   4.497   0.491 -0.0606 -0.0293  1.4379
15833TIP3    H268915   2.624   4.380   0.547  1.2305 -0.4063 -0.9850
15834TIP3   OH268916   0.678   3.460  16.024 -0.0786 -0.0099  0.2310
15834TIP3    H168917   0.637   3.470  15.938 -1.3358  1.2469  0.9393
15834TIP3    H268918   0.753   3.519  16.022 -0.0348 -0.0756 -0.0481
15835TIP3   OH268919   2.612   2.297  10.836 -0.4638 -0.1214 -0.2372
15835TIP3    H168920   2.562   2.360  10.784 -2.0389 -0.0992  1.1988
15835TIP3    H268921   2.600   2.326  10.927  1.1235 -0.8886  0.2506
15836TIP3   OH268922   2.372   4.147   3.817  0.0579 -0.3480 -0.4614
15836TIP3    H168923   2.360   4.242   3.819  0.2399 -0.2894 -1.5519
15836TIP3    H268924   2.365   4.120   3.908  0.0247  0.7155 -0.1370
15837TIP3   OH268925   1.832   1.520   3.644 -0.2510  0.0080 -0.1948
15837TIP3    H168926   1.917   1.559   3.663  0.2057 -0.8479 -0.4253
15837TIP3    H268927   1.823   1.448   3.707 -1.0085  0.3687  0.1266
15838TIP3   OH268928   3.700   5.847   4.971 -0.5579 -0.2278 -0.1974
15838TIP3    H168929   3.646   5.816   4.898 -1.9061  3.2832 -0.8997
15838TIP3    H268930   3.639   5.897   5.025  1.6609  2.8733 -0.3220
15839TIP3   OH268931   3.830   3.347   5.222  0.1484 -0.3525  1.0136
15839TIP3    H168932   3.911   3.390   5.195 -0.9707  0.2678 -1.7108
15839TIP3    H268933   3.771   3.420   5.244 -0.4314 -0.6601  0.5059
15840TIP3   OH268934   0.444   0.805   2.894  0.5591 -0.5206  0.0786
15840TIP3    H168935   0.432   0.713   2.919 -0.9665 -0.6662 -1.0357
15840TIP3    H268936   0.527   0.830   2.935  0.2989 -1.9614  1.6043
15841TIP3   OH268937   2.226   6.420  12.862  0.1922  0.4369 -0.1555
15841TIP3    H168938   2.254   6.330  12.879  1.0951  0.2929 -2.0586
15841TIP3    H268939   2.187   6.416  12.775  0.6343  1.9567 -0.4392
15842TIP3   OH268940   1.388   3.114  11.624 -0.2995  0.0935  0.2192
15842TIP3    H168941   1.382   3.183  11.690 -0.4443  0.3687 -0.0829
15842TIP3    H268942   1.402   3.160  11.542 -0.5514 -0.2278 -0.0052
15843TIP3   OH268943   3.560   6.109  13.866  0.3132 -0.7069  0.0331
15843TIP3    H168944   3.620   6.076  13.933  0.9624  1.0139  0.3554
15843TIP3    H268945   3.561   6.042  13.798  1.1578 -1.5863  0.8855
15844TIP3   OH268946   3.088   0.100  11.436 -0.6919  0.6381 -0.0203
15844TIP3    H168947   3.033   0.176  11.456  1.7449  2.6622 -0.5205
15844TIP3    H268948   3.141   0.128  11.362 -0.1975 -1.8764 -0.7095
15845TIP3   OH268949   1.042   6.491  14.086  0.3201  0.3000 -0.0649
15845TIP3    H168950   1.007   6.425  14.027  1.0815  1.4334 -1.8849
15845TIP3    H268951   1.129   6.459  14.110  0.2954  0.1734 -0.1475
15846TIP3   OH268952   0.963   1.758   2.019 -0.1430 -0.0496  0.1540
15846TIP3    H168953   1.017   1.829   1.984 -2.9378  1.3110 -1.8125
15846TIP3    H268954   0.904   1.801   2.081 -0.3377 -1.0780  0.6963
15847TIP3   OH268955   0.224   0.778   0.856  0.1074 -0.0894 -0.2340
15847TIP3    H168956   0.155   0.830   0.897 -0.0529 -0.7660  0.3808
15847TIP3    H268957   0.185   0.746   0.775  0.4077  1.2097 -0.9186
15848TIP3   OH268958   0.282   3.766  11.729  0.9780  0.1885 -0.1198
15848TIP3    H168959   0.301   3.855  11.760 -0.4322  0.9558 -1.2971
15848TIP3    H268960   0.246   3.779  11.641 -0.1930 -1.4713  0.0734
15849TIP3   OH268961   6.100   6.484  12.055 -0.2212  0.3964  0.5684
15849TIP3    H168962   6.121   6.478  12.148 -0.8807 -3.6893  0.6081
15849TIP3    H268963   6.004   6.478  12.052 -0.4237  2.9550 -0.3547
15850TIP3   OH268964   3.452   2.434  13.117 -0.4758  0.3139 -0.6244
15850TIP3    H168965   3.435   2.454  13.209 -1.0344  2.0211 -1.0632
15850TIP3    H268966   3.374   2.386  13.087  0.0004 -0.8582 -0.0736
15851TIP3   OH268967   1.401   2.204  11.045 -0.2451  1.2056  0.2570
15851TIP3    H168968   1.487   2.221  11.083  0.2988  1.7468 -1.1801
15851TIP3    H268969   1.412   2.215  10.951 -0.9267 -2.7199 -0.4747
15852TIP3   OH268970   0.728   1.818  16.836 -0.4416  0.3870 -0.4972
15852TIP3    H168971   0.725   1.802  16.741 -0.2890 -1.4546 -0.2357
15852TIP3    H268972   0.755   1.734  16.873  0.3447  1.3146  1.1285
15853TIP3   OH268973   2.514   2.256   2.238 -0.0604  0.0071  0.3529
15853TIP3    H168974   2.478   2.168   2.253  0.6833 -0.5250 -0.8148
15853TIP3    H268975   2.497   2.273   2.145  1.3417  0.3558  0.1362
15854TIP3   OH268976   4.336   0.343  13.156 -0.0244  0.1540 -1.2091
15854TIP3    H168977   4.355   0.292  13.077 -0.1279  1.5149 -2.1466
15854TIP3    H268978   4.422   0.367  13.190  0.0356 -1.0278 -0.4835
15855TIP3   OH268979   5.192   3.816   1.080 -0.0149 -0.0704 -0.0601
15855TIP3    H168980   5.151   3.729   1.080  0.3061 -0.2590  1.6918
15855TIP3    H268981   5.123   3.875   1.111  0.2250  0.0460  0.2592
15856TIP3   OH268982   1.377   2.054  15.809 -0.1310  0.9104 -0.1493
15856TIP3    H168983   1.385   1.999  15.887 -2.8224  0.2160 -0.2685
15856TIP3    H268984   1.285   2.046  15.783  0.5157  1.6200 -3.0476
15857TIP3   OH268985   3.412   1.579  13.460  0.0270 -0.1134  0.1733
15857TIP3    H168986   3.360   1.519  13.407 -0.6427 -0.1885  0.8993
15857TIP3    H268987   3.365   1.586  13.542  0.2210  1.2180  0.2010
15858TIP3   OH268988   6.586   6.709  13.995 -0.9303  0.8356 -0.2218
15858TIP3    H168989   6.633   6.683  13.916 -2.9697 -0.6712 -1.0351
15858TIP3    H268990   6.537   6.787  13.969 -1.2182  0.6278 -0.3088
15859TIP3   OH268991   2.600   5.392  15.580  0.4552  0.2269  0.2301
15859TIP3    H168992   2.609   5.479  15.619  1.3550  0.2080  0.0955
15859TIP3    H268993   2.569   5.408  15.491 -0.2487  0.3545  0.4981
15860TIP3   OH268994   4.126   1.811  16.186  0.0178 -0.1167 -0.4253
15860TIP3    H168995   4.050   1.867  16.174  0.5070  0.3921 -1.2515
15860TIP3    H268996   4.117   1.777  16.275 -1.1817 -0.0892 -0.5159
15861TIP3   OH268997   2.185   6.734  13.279  0.0752 -1.1566 -0.3702
15861TIP3    H168998   2.271   6.730  13.321  0.1473 -1.1620 -0.5196
15861TIP3    H268999   2.177   6.652  13.232 -0.0699 -1.2154 -0.2449
15862TIP3   OH269000   3.337   1.912  17.030  0.2001  0.1906 -0.7027
15862TIP3    H169001   3.315   1.899  16.938  0.7606  0.0910 -0.8261
15862TIP3    H269002   3.432   1.900  17.034  0.4612  2.0714 -0.4483
15863TIP3   OH269003   1.399   0.429   0.572 -0.2541  0.3945 -0.0262
15863TIP3    H169004   1.445   0.364   0.626  1.0646  1.6599  0.4586
15863TIP3    H269005   1.469   0.478   0.530 -1.1973  1.6733 -0.1637
15864TIP3   OH269006   5.360   5.633  16.824 -0.6894  0.2884  0.2920
15864TIP3    H169007   5.440   5.580  16.825 -0.8507 -0.1479  3.8143
15864TIP3    H269008   5.311   5.601  16.748  1.1421 -1.5765 -0.1979
15865TIP3   OH269009   6.254   5.918  13.427  0.1279 -0.4696  0.7242
15865TIP3    H169010   6.174   5.909  13.376  0.7409 -1.0166 -0.1834
15865TIP3    H269011   6.252   6.008  13.460 -1.1186 -0.6545  1.1991
15866TIP3   OH269012   0.201   2.635   1.091  0.0555  0.0576  0.0057
15866TIP3    H169013   0.292   2.630   1.122  0.1420  2.9776  0.5015
15866TIP3    H269014   0.164   2.710   1.138 -1.8322  0.5274 -2.0847
15867TIP3   OH269015   1.593   5.547   5.763  0.1944 -0.3772 -0.0894
15867TIP3    H169016   1.660   5.586   5.819 -0.2974 -0.6577  0.7100
15867TIP3    H269017   1.581   5.459   5.798 -0.2404 -0.5011 -0.5403
15868TIP3   OH269018   1.992   0.443   1.266 -0.0887 -0.2888 -0.4250
15868TIP3    H169019   1.943   0.493   1.331  1.2601 -0.3126  0.6400
15868TIP3    H269020   2.064   0.404   1.314  0.1038 -1.5401 -1.6525
15869TIP3   OH269021   2.482   1.558  11.775  0.5983 -0.4559  0.5271
15869TIP3    H169022   2.482   1.572  11.870  0.3616  5.1329  0.0402
15869TIP3    H269023   2.572   1.580  11.749  0.7469 -2.2432 -0.6233
15870TIP3   OH269024   3.212   0.337   5.546 -0.1682  0.0560 -0.3233
15870TIP3    H169025   3.127   0.333   5.589  0.2332 -0.5292  0.4487
15870TIP3    H269026   3.238   0.245   5.535 -0.9277  0.0964 -3.2415
15871TIP3   OH269027   4.195   2.942   0.824  0.1000  0.4941 -0.0690
15871TIP3    H169028   4.220   2.857   0.788  2.3649  0.1371  2.0810
15871TIP3    H269029   4.100   2.936   0.834  0.1462 -1.6272 -0.3782
15872TIP3   OH269030   0.137   0.652  15.350 -0.6587 -0.0688  0.3082
15872TIP3    H169031   0.105   0.626  15.436 -2.5916 -1.1552 -0.6792
15872TIP3    H269032   0.224   0.690  15.367  0.0808 -2.4421  2.4758
15873TIP3   OH269033   4.737   0.445  16.983  0.3218 -0.0949  0.4951
15873TIP3    H169034   4.664   0.476  16.929  0.6290 -1.0997 -0.5279
15873TIP3    H269035   4.767   0.524  17.029 -1.8785  0.2123  1.5612
15874TIP3   OH269036   1.148   4.695  16.071 -0.0476  0.0512 -0.7451
15874TIP3    H169037   1.078   4.759  16.061 -1.6700 -1.0620  2.0939
15874TIP3    H269038   1.115   4.617  16.026 -0.6576 -0.4369  0.4949
15875TIP3   OH269039   4.726   1.634  10.358 -0.4409 -0.0322  0.0019
15875TIP3    H169040   4.653   1.573  10.349 -0.9145  0.3998  0.8093
15875TIP3    H269041   4.686   1.716  10.385  0.4171 -0.0390  1.4114
15876TIP3   OH269042   6.178   4.832  14.930 -0.0834  0.4690  0.3509
15876TIP3    H169043   6.151   4.923  14.933 -1.0064  0.2139  0.0246
15876TIP3    H269044   6.137   4.792  15.006  2.4932  0.8621  2.0770
15877TIP3   OH269045   0.621   2.646   0.603  0.6178 -0.2084 -0.5559
15877TIP3    H169046   0.620   2.652   0.507  1.6357 -0.5838 -0.6061
15877TIP3    H269047   0.607   2.554   0.621 -0.1027 -0.0578 -0.3138
15878TIP3   OH269048   2.475   4.736  10.952 -0.5483 -0.4479 -0.0430
15878TIP3    H169049   2.428   4.692  11.023  1.5080 -0.5321  1.3466
15878TIP3    H269050   2.524   4.667  10.909  0.0533 -0.0429 -0.0171
15879TIP3   OH269051   5.584   0.380  15.845  0.0623  0.1005  0.0398
15879TIP3    H169052   5.510   0.332  15.809 -0.7594 -1.1740  3.0848
15879TIP3    H269053   5.556   0.472  15.844 -1.6140 -0.3535  1.1141
15880TIP3   OH269054   5.039   0.173  15.765  0.0964 -0.4819 -1.1579
15880TIP3    H169055   4.973   0.163  15.834 -0.6450  1.2034 -1.5718
15880TIP3    H269056   5.023   0.099  15.706  0.2742 -1.5429  0.0618
15881TIP3   OH269057   3.457   1.162  15.489  0.2224 -0.1666  0.0449
15881TIP3    H169058   3.533   1.208  15.524  0.3061  1.0298 -1.5951
15881TIP3    H269059   3.383   1.200  15.536  0.3773  1.0219 -0.6286
15882TIP3   OH269060   6.044   3.860  13.501 -0.2240  0.3122 -0.1909
15882TIP3    H169061   6.035   3.765  13.514 -1.7612  0.5080  0.3953
15882TIP3    H269062   6.107   3.887  13.568  1.5590 -0.5039 -1.4513
15883TIP3   OH269063   3.174   5.253   0.879  0.0138  0.1727 -0.5994
15883TIP3    H169064   3.186   5.161   0.857 -0.2205  0.3859 -1.6776
15883TIP3    H269065   3.161   5.297   0.795 -1.9346  0.8901  0.0215
15884TIP3   OH269066   4.526   4.196   5.099 -0.6122  0.3579 -0.4018
15884TIP3    H169067   4.522   4.247   5.180 -0.1351  1.6478 -1.1750
15884TIP3    H269068   4.598   4.134   5.114 -2.2276 -1.2715  1.1656
15885TIP3   OH269069   4.059   4.251   4.654 -0.1160  0.0694 -0.7146
15885TIP3    H169070   4.068   4.346   4.651 -1.5618  0.2087 -3.5305
15885TIP3    H269071   4.128   4.219   4.596  0.1719 -0.6120 -0.0162
15886TIP3   OH269072   3.786   5.826  13.790 -0.2583 -0.5145  0.0610
15886TIP3    H169073   3.767   5.868  13.874 -1.7474 -3.1102  1.1243
15886TIP3    H269074   3.878   5.801  13.796 -0.5127 -1.2451  1.2286
15887TIP3   OH269075   1.774   0.549   1.027  0.1315 -0.3049  0.6231
15887TIP3    H169076   1.736   0.572   0.942 -1.2631 -1.5113  0.8669
15887TIP3    H269077   1.728   0.469   1.053  0.6779 -0.0966  2.4127
15888TIP3   OH269078   3.644   3.861   2.307  0.3289  0.0406 -0.0427
15888TIP3    H169079   3.689   3.804   2.243  0.4074  0.1575 -0.0919
15888TIP3    H269080   3.668   3.950   2.281 -0.9810  0.1809 -0.8583
15889TIP3   OH269081   5.372   1.640  17.314  0.1995 -0.4279  0.0803
15889TIP3    H169082   5.461   1.671  17.297 -0.4583  0.3068 -2.5469
15889TIP3    H269083   5.320   1.720  17.322 -0.3572 -0.8545  0.8370
15890TIP3   OH269084   1.636   3.647  15.944 -0.7407 -0.0588 -0.0093
15890TIP3    H169085   1.721   3.623  15.982 -0.3244  0.4768 -0.5758
15890TIP3    H269086   1.624   3.587  15.870 -0.1084  0.8576 -0.8883
15891TIP3   OH269087   2.864   6.587   4.585 -0.4530 -0.2847  0.5900
15891TIP3    H169088   2.811   6.555   4.659 -0.4703 -2.3453 -0.2615
15891TIP3    H269089   2.813   6.563   4.507  0.1708  0.7296 -0.1464
15892TIP3   OH269090   1.437   4.285  15.617  0.0830 -0.4436  0.1998
15892TIP3    H169091   1.507   4.264  15.555 -0.4929  0.8674 -0.9459
15892TIP3    H269092   1.431   4.380  15.615 -2.4736 -0.5538 -0.6089
15893TIP3   OH269093   5.492   3.918   0.171  0.1714 -0.7266  0.0676
15893TIP3    H169094   5.551   3.899   0.245 -0.1737  0.2559  0.6145
15893TIP3    H269095   5.410   3.945   0.212  0.0078 -0.0616 -0.6730
15894TIP3   OH269096   0.192   4.375   4.464  0.0598  0.6085 -0.1242
15894TIP3    H169097   0.100   4.375   4.488  0.1219  0.7574  0.1223
15894TIP3    H269098   0.193   4.367   4.369 -0.2277  1.2679 -0.1875
15895TIP3   OH269099   4.762   4.228  11.572  0.1121  0.6676 -0.2644
15895TIP3    H169100   4.808   4.146  11.553 -0.1204  0.3797  0.3924
15895TIP3    H269101   4.781   4.283  11.497  0.8807  0.2713 -0.3771
15896TIP3   OH269102   4.451   4.109   3.857 -0.2929 -0.1546  0.1999
15896TIP3    H169103   4.412   4.103   3.944 -0.4311  1.5041  0.2819
15896TIP3    H269104   4.377   4.101   3.797 -0.5266  1.0127  0.3099
15897TIP3   OH269105   6.306   3.129   4.317  0.0468  0.0325 -0.3804
15897TIP3    H169106   6.244   3.080   4.369  1.9334 -0.8397  1.1815
15897TIP3    H269107   6.364   3.171   4.381  0.2617  1.9381 -1.7278
15898TIP3   OH269108   3.017   1.536  17.290 -0.2999 -0.1119 -0.3734
15898TIP3    H169109   2.934   1.585  17.293 -0.3337  0.0125 -2.2692
15898TIP3    H269110   3.074   1.589  17.236  0.9855 -0.3081  0.7509
15899TIP3   OH269111   2.690   3.734   5.881 -0.2045 -0.4993  0.2295
15899TIP3    H169112   2.783   3.742   5.901 -0.2820  1.1941  0.0224
15899TIP3    H269113   2.684   3.749   5.786 -0.6506 -1.0139  0.1698
15900TIP3   OH269114   5.869   4.057   3.477  0.4491  0.7514  0.4339
15900TIP3    H169115   5.938   4.121   3.457 -1.0122  1.6154 -2.2740
15900TIP3    H269116   5.829   4.090   3.557  1.8787  1.3182  0.9548
15901TIP3   OH269117   3.913   3.116  15.157  0.0875  0.2312 -0.0834
15901TIP3    H169118   3.939   3.181  15.091  1.7256  0.0083  0.2928
15901TIP3    H269119   3.902   3.166  15.237  0.1820  0.2122 -0.0582
15902TIP3   OH269120   0.154   0.370  15.151 -0.5890  0.8562  0.8610
15902TIP3    H169121   0.123   0.283  15.126 -1.7071  1.9466 -1.9494
15902TIP3    H269122   0.139   0.374  15.246 -0.2195 -2.0685  1.1435
15903TIP3   OH269123   3.174   3.454  13.533  0.0085 -0.0870 -0.0760
15903TIP3    H169124   3.143   3.527  13.479 -0.8370 -1.7732 -2.0345
15903TIP3    H269125   3.267   3.449  13.514 -0.2809 -0.6746 -1.5111
15904TIP3   OH269126   3.366   5.792   0.878  0.2692  0.0245 -0.1165
15904TIP3    H169127   3.416   5.721   0.839  0.0410  0.4408 -1.2057
15904TIP3    H269128   3.316   5.829   0.805  0.5012  1.4034  0.4004
15905TIP3   OH269129   0.395   5.033  15.327 -0.0893  0.7088  0.9693
15905TIP3    H169130   0.439   5.038  15.242 -1.0241  0.1365  0.4352
15905TIP3    H269131   0.308   5.068  15.311 -0.5683 -0.2333  1.4739
15906TIP3   OH269132   4.300   4.199   2.842  0.1157  0.1357  0.1831
15906TIP3    H169133   4.353   4.237   2.771  1.2309  0.4513  1.1525
15906TIP3    H269134   4.223   4.255   2.846 -0.7781 -0.8387 -1.8339
15907TIP3   OH269135   4.163   5.346  11.836  0.1758 -0.1062  0.1319
15907TIP3    H169136   4.258   5.361  11.828  0.3805 -1.8035 -0.9421
15907TIP3    H269137   4.156   5.254  11.863 -1.2055 -0.7242 -2.1353
15908TIP3   OH269138   1.580   0.630   2.222 -0.4609 -0.5390 -0.3109
15908TIP3    H169139   1.551   0.713   2.259 -2.2245 -1.0249 -0.5185
15908TIP3    H269140   1.660   0.609   2.270 -0.4908  0.8184  0.3861
15909TIP3   OH269141   1.571   5.762   5.076  0.5521 -1.1053 -0.3156
15909TIP3    H169142   1.560   5.800   5.163 -1.7073  0.1943 -1.0875
15909TIP3    H269143   1.577   5.838   5.017  1.6233 -1.9591 -1.3682
15910TIP3   OH269144   4.874   4.892  13.133  0.0699  0.5127  0.2524
15910TIP3    H169145   4.838   4.955  13.195  1.6885  1.2053  0.5564
15910TIP3    H269146   4.938   4.942  13.083  1.5395 -0.9030  0.6258
15911TIP3   OH269147   2.262   4.120  14.081  0.1909  0.2535  0.1540
15911TIP3    H169148   2.257   4.173  14.002 -1.4817  0.3039  0.2572
15911TIP3    H269149   2.356   4.103  14.093  0.4493 -0.5376 -2.3350
15912TIP3   OH269150   5.362   6.735  11.737  0.1195  0.8066  0.3130
15912TIP3    H169151   5.423   6.808  11.737  1.0000  0.0924  0.1056
15912TIP3    H269152   5.288   6.765  11.685  0.8688  1.2304 -0.5457
15913TIP3   OH269153   4.134   1.398  13.721 -0.6038  0.2227 -0.0982
15913TIP3    H169154   4.148   1.318  13.670  3.0720  0.0132  0.9914
15913TIP3    H269155   4.126   1.368  13.812 -0.1923  1.0184  0.2130
15914TIP3   OH269156   5.835   6.741   3.016 -0.5582 -0.7703  0.7263
15914TIP3    H169157   5.833   6.657   2.970 -0.0476  1.6130 -4.2675
15914TIP3    H269158   5.744   6.766   3.026 -0.6701 -1.1618  0.6787
15915TIP3   OH269159   2.408   1.693   1.056  0.2118  0.0182  0.0015
15915TIP3    H169160   2.346   1.668   0.988 -0.9214 -0.6315  1.2259
15915TIP3    H269161   2.355   1.703   1.135  1.5455  0.3220  0.9037
15916TIP3   OH269162   2.211   5.295  15.068  0.2105 -0.4565  0.5111
15916TIP3    H169163   2.131   5.256  15.034  1.2861 -0.9172 -1.7161
15916TIP3    H269164   2.188   5.327  15.155 -1.8180 -2.4138  0.7861
15917TIP3   OH269165   4.461   2.503  14.367  0.0603  0.2204  0.6851
15917TIP3    H169166   4.400   2.482  14.297  0.4639  0.6335  0.2014
15917TIP3    H269167   4.418   2.474  14.447 -0.9028  0.8156  0.3883
15918TIP3   OH269168   1.686   1.315  13.115  0.1277 -0.2583 -0.1431
15918TIP3    H169169   1.614   1.377  13.108  0.4925  0.0618 -1.3051
15918TIP3    H269170   1.725   1.333  13.201 -1.1613 -0.4489  0.5057
15919TIP3   OH269171   2.527   5.064  14.734  0.2920  0.2373  0.2536
15919TIP3    H169172   2.444   5.096  14.771  0.0327 -0.4059  0.2297
15919TIP3    H269173   2.566   5.142  14.693 -0.0612  0.6534  0.7021
15920TIP3   OH269174   1.093   5.429   6.750  0.3784 -0.3272 -0.3619
15920TIP3    H169175   1.175   5.413   6.703 -0.2956 -0.2017 -1.6119
15920TIP3    H269176   1.031   5.457   6.683 -1.1429 -1.9271  0.2753
15921TIP3   OH269177   3.713   6.108  12.267  0.1579 -0.3014 -0.5183
15921TIP3    H169178   3.651   6.166  12.312  0.1705 -0.8889  0.2824
15921TIP3    H269179   3.714   6.029  12.320  1.7132 -0.2574 -0.4478
15922TIP3   OH269180   6.457   4.669   0.356  0.2339 -0.4590  0.2618
15922TIP3    H169181   6.534   4.622   0.389 -0.6129 -0.7498  1.9035
15922TIP3    H269182   6.403   4.602   0.316  0.7980 -0.2500 -0.9162
15923TIP3   OH269183   6.699   5.307   2.344  0.4402  0.3273 -0.1274
15923TIP3    H169184   6.687   5.319   2.439 -1.9891  0.7124 -0.4063
15923TIP3    H269185   6.735   5.391   2.314 -2.2515  1.6564  0.0297
15924TIP3   OH269186   4.937   5.572  11.145  0.4995  0.2690  0.8307
15924TIP3    H169187   4.909   5.493  11.100  1.0820  0.2630  0.4617
15924TIP3    H269188   4.869   5.637  11.125  0.7531  0.2682 -0.0796
15925TIP3   OH269189   5.248   5.922  12.866  0.1635  0.3006  0.1844
15925TIP3    H169190   5.226   5.841  12.912  1.2584  1.1767  2.4255
15925TIP3    H269191   5.337   5.907  12.832 -0.2801 -0.0019 -0.8945
15926TIP3   OH269192   2.838   1.394   0.684 -0.1712  0.0863  0.7339
15926TIP3    H169193   2.806   1.471   0.732 -0.6084  1.4573 -1.6249
15926TIP3    H269194   2.783   1.322   0.715 -2.6530  1.5360  0.0067
15927TIP3   OH269195   0.589   2.595   1.818 -0.1679  0.0061 -0.6789
15927TIP3    H169196   0.507   2.559   1.852 -2.0569  1.5464 -3.2399
15927TIP3    H269197   0.654   2.527   1.836 -2.4097 -2.2444 -0.4497
15928TIP3   OH269198   5.184   1.128   6.161  0.6737  0.7424 -0.1730
15928TIP3    H169199   5.165   1.106   6.070 -1.3299  0.6065  0.2521
15928TIP3    H269200   5.132   1.206   6.178  0.2929  0.2216  1.1240
15929TIP3   OH269201   2.540   6.535   1.639 -0.0544  0.2341 -0.0373
15929TIP3    H169202   2.464   6.480   1.621  1.3089 -1.7504 -0.0186
15929TIP3    H269203   2.525   6.569   1.727 -1.3541  0.6744 -0.4084
15930TIP3   OH269204   0.023   0.802  11.883 -0.5764 -0.6448  0.1941
15930TIP3    H169205   0.002   0.799  11.790 -0.2683 -2.5599  0.1394
15930TIP3    H269206   0.057   0.715  11.902  0.7064  0.1543  1.7938
15931TIP3   OH269207   0.711   0.407   6.691 -0.0694  0.2891  0.0609
15931TIP3    H169208   0.689   0.319   6.723 -0.3243 -0.0026 -0.8813
15931TIP3    H269209   0.714   0.397   6.596 -3.3960  1.9905 -0.3702
15932TIP3   OH269210   4.480   6.184   0.420  0.0147 -0.0406 -0.3171
15932TIP3    H169211   4.442   6.241   0.354 -0.3624 -1.0742 -1.0119
15932TIP3    H269212   4.565   6.224   0.440  0.4075 -0.0358 -1.8758
15933TIP3   OH269213   6.676   0.496   3.595 -0.0615 -0.0022  0.1149
15933TIP3    H169214   6.636   0.516   3.680  1.4689  0.5737  0.7329
15933TIP3    H269215   6.710   0.407   3.606  0.2650  0.1274  0.1652
15934TIP3   OH269216   0.395   0.465   1.687 -0.1192 -0.2403  0.5194
15934TIP3    H169217   0.474   0.445   1.737 -0.2435  0.8414  1.1736
15934TIP3    H269218   0.386   0.560   1.692 -1.9702 -0.4093  1.2476
15935TIP3   OH269219   0.557   0.330   1.513 -0.1640 -0.1455  0.7948
15935TIP3    H169220   0.549   0.272   1.589 -0.8144 -2.5489 -1.0122
15935TIP3    H269221   0.477   0.382   1.515  0.0555  0.1930  1.9953
15936TIP3   OH269222   3.871   4.488   5.489 -0.4863  0.5436  0.1817
15936TIP3    H169223   3.868   4.472   5.583 -1.5516  1.1829  0.2788
15936TIP3    H269224   3.872   4.401   5.449  1.1520  0.2530  0.7836
15937TIP3   OH269225   4.071   6.562   4.578 -0.3934  0.0589 -0.6775
15937TIP3    H169226   4.026   6.612   4.510  2.0904  1.7857 -1.1755
15937TIP3    H269227   4.076   6.473   4.544 -0.3755  0.6036 -2.1483
15938TIP3   OH269228   6.193   2.194  10.871  0.3552  0.1592  0.2169
15938TIP3    H169229   6.119   2.210  10.813  1.1460  0.3837 -0.7552
15938TIP3    H269230   6.235   2.280  10.880 -0.0051  0.2184  1.4826
15939TIP3   OH269231   3.448   6.295  16.958 -0.1076  0.2225  0.1237
15939TIP3    H169232   3.541   6.282  16.974 -0.0177 -1.7799 -1.5538
15939TIP3    H269233   3.421   6.218  16.908 -1.7144  2.7294 -3.2509
15940TIP3   OH269234   5.668   5.251   0.042  0.0619 -0.0177 -0.3703
15940TIP3    H169235   5.620   5.235   0.124  0.6624 -0.6754 -0.1447
15940TIP3    H269236   5.712   5.168   0.023  0.7050  0.4252 -0.8459
15941TIP3   OH269237   1.748   4.657   3.289 -0.7525  0.0579 -0.3895
15941TIP3    H169238   1.827   4.621   3.249 -0.4335  0.3723 -0.0437
15941TIP3    H269239   1.676   4.616   3.240 -0.4161 -1.4438  0.3038
15942TIP3   OH269240   2.021   4.292  16.892 -0.1137 -0.3590  0.1524
15942TIP3    H169241   1.940   4.242  16.900 -1.0517  0.7722 -1.6893
15942TIP3    H269242   2.037   4.298  16.798 -0.1438  2.8781  0.2445
15943TIP3   OH269243   0.030   4.995  11.774  0.2400  0.0722 -0.1987
15943TIP3    H169244  -0.041   4.935  11.799  0.3273 -0.0069 -0.1405
15943TIP3    H269245  -0.009   5.082  11.779 -0.4209 -0.0638 -1.9654
15944TIP3   OH269246   5.850   0.024   4.343  0.5323 -0.0592  0.1923
15944TIP3    H169247   5.798  -0.053   4.368  0.7092  0.3752  2.0494
15944TIP3    H269248   5.935  -0.011   4.317  1.8606 -0.4722  4.2684
15945TIP3   OH269249   6.671   2.448  12.934 -0.2054 -0.0004 -0.4235
15945TIP3    H169250   6.723   2.370  12.950  0.5120  0.1263 -1.9942
15945TIP3    H269251   6.674   2.497  13.017 -0.4921 -1.4988  0.5065
15946TIP3   OH269252   6.715   5.475  15.603  0.2757 -0.2404 -0.2911
15946TIP3    H169253   6.678   5.468  15.515 -0.8123  0.2282  0.1130
15946TIP3    H269254   6.806   5.448  15.593 -0.7009 -3.8101 -0.8844
15947TIP3   OH269255   1.989   5.539   2.651 -0.2392  0.0349  0.0618
15947TIP3    H169256   1.974   5.634   2.654  1.0292  0.2923 -0.7620
15947TIP3    H269257   2.063   5.525   2.711  0.7529 -0.1453 -1.1606
15948TIP3   OH269258   0.874   1.436   5.685  0.0592 -0.0742  0.3984
15948TIP3    H169259   0.804   1.401   5.740  0.6651 -1.8925  0.0838
15948TIP3    H269260   0.829   1.466   5.606 -0.6416  1.1977  1.2458
15949TIP3   OH269261   0.010   5.580   6.638  0.3141 -0.1642  0.6653
15949TIP3    H169262  -0.049   5.528   6.692  0.8309 -0.6413  0.7760
15949TIP3    H269263   0.065   5.516   6.593 -0.3779  0.2082 -0.7527
15950TIP3   OH269264   3.596   3.718  12.378 -0.2324 -0.6799 -0.4025
15950TIP3    H169265   3.503   3.696  12.367 -0.3788 -1.1904  1.5405
15950TIP3    H269266   3.595   3.806  12.416 -0.1086 -1.7402  2.2989
15951TIP3   OH269267   2.652   3.217  16.305 -0.0136 -0.2191 -0.0645
15951TIP3    H169268   2.705   3.143  16.335  0.0485 -0.1270  0.0559
15951TIP3    H269269   2.713   3.291  16.305 -0.3627  0.0894  0.9847
15952TIP3   OH269270   2.046   3.613  15.423 -0.0944  0.2699 -0.2314
15952TIP3    H169271   2.138   3.627  15.398  0.2563 -0.1413  0.7809
15952TIP3    H269272   2.004   3.583  15.342  1.0486 -1.1729 -0.3354
15953TIP3   OH269273   5.685   4.111   2.355 -0.2163  0.4383  0.2944
15953TIP3    H169274   5.743   4.124   2.430  2.8929 -0.1465 -1.7688
15953TIP3    H269275   5.646   4.025   2.369 -0.3056  0.6792  1.5941
15954TIP3   OH269276   3.354   6.686   0.219  0.1346 -0.7223  0.0649
15954TIP3    H169277   3.357   6.665   0.313 -0.9779 -1.6598 -0.0923
15954TIP3    H269278   3.320   6.776   0.216 -0.1457 -0.8069  0.5543
15955TIP3   OH269279   4.451   3.238   0.645 -0.2007 -0.3091  0.4251
15955TIP3    H169280   4.457   3.208   0.554 -0.0365  0.8522  0.0368
15955TIP3    H269281   4.377   3.299   0.645 -1.6623 -1.9838  1.5860
15956TIP3   OH269282   4.795   2.119  15.502 -0.5244  0.8419  0.1622
15956TIP3    H169283   4.813   2.213  15.513 -0.3892  0.6319  2.0834
15956TIP3    H269284   4.769   2.089  15.589  1.0658 -1.2467  0.0110
15957TIP3   OH269285   5.949   5.422  15.558  0.2987  0.1392 -0.0954
15957TIP3    H169286   5.921   5.424  15.466 -0.2544 -0.7432  0.0367
15957TIP3    H269287   5.981   5.332  15.570 -0.0855  0.1030  0.7012
15958TIP3   OH269288   3.824   4.170   4.809  0.5672 -0.1419  0.3000
15958TIP3    H169289   3.905   4.209   4.776 -0.0601 -0.2480 -1.4539
15958TIP3    H269290   3.783   4.239   4.861  1.3987  0.1738  0.5467
15959TIP3   OH269291   3.980   1.378  16.876 -0.0426  0.1492  0.5276
15959TIP3    H169292   4.017   1.290  16.868  2.2527  1.0691  0.2444
15959TIP3    H269293   3.952   1.400  16.787  2.1416  0.7683 -0.0753
15960TIP3   OH269294   5.660   0.870   3.040  0.2186 -0.0441  0.2103
15960TIP3    H169295   5.723   0.912   2.981  1.0810 -1.2175  0.2670
15960TIP3    H269296   5.644   0.936   3.108  0.7595  0.5695 -0.2364
15961TIP3   OH269297   0.542   3.681  13.903  0.3386  0.5000  0.0658
15961TIP3    H169298   0.514   3.639  13.822  0.4383 -0.0238  0.2959
15961TIP3    H269299   0.594   3.756  13.875  1.6447 -0.5300 -0.3695
15962TIP3   OH269300   6.510   6.281   5.011 -0.4646  0.1386  0.4458
15962TIP3    H169301   6.474   6.239   5.090  1.3341  0.2737  1.3990
15962TIP3    H269302   6.600   6.247   5.006 -0.3124  0.7348 -1.1239
15963TIP3   OH269303   1.428   4.541  16.163 -0.3349  0.1055 -0.4167
15963TIP3    H169304   1.452   4.575  16.249  0.8155 -2.6563  0.4881
15963TIP3    H269305   1.348   4.587  16.140 -0.2699  1.4696  1.7758
15964TIP3   OH269306   0.443   1.184   1.473 -0.1030  0.3956 -0.2676
15964TIP3    H169307   0.509   1.251   1.491 -1.6804  1.5019  1.7926
15964TIP3    H269308   0.413   1.203   1.384  1.7813  0.2930 -0.9818
15965TIP3   OH269309   2.965   0.797   5.127 -0.4036 -0.6444  0.3436
15965TIP3    H169310   2.915   0.851   5.188 -0.8825 -0.3863 -0.2631
15965TIP3    H269311   2.909   0.789   5.049  0.4031 -0.5258 -0.2718
15966TIP3   OH269312   2.929   4.560  13.443  0.3083  0.1541  0.2439
15966TIP3    H169313   2.987   4.498  13.486  0.8688 -0.1661 -0.9338
15966TIP3    H269314   2.967   4.572  13.355  0.2644  2.2088  0.4552
15967TIP3   OH269315   0.923   6.368  12.505 -0.0450 -0.2379  0.2154
15967TIP3    H169316   0.948   6.387  12.415 -1.7815  0.6894 -0.0970
15967TIP3    H269317   0.914   6.453  12.547 -2.7332 -0.4656  0.2558
15968TIP3   OH269318   0.447   6.325   6.136 -0.5938  0.3837  0.2727
15968TIP3    H169319   0.481   6.361   6.218  1.8383 -3.4166  1.1960
15968TIP3    H269320   0.375   6.268   6.163  0.0023 -0.6257 -0.1962
15969TIP3   OH269321   3.441   5.446  17.096  0.8311  0.0820  0.3906
15969TIP3    H169322   3.492   5.522  17.068  0.4817  0.6866  1.3542
15969TIP3    H269323   3.468   5.376  17.036  2.4620  0.4949  0.5890
15970TIP3   OH269324   4.543   0.021   2.162  0.7261  0.2514 -0.2260
15970TIP3    H169325   4.612   0.030   2.227  1.2880 -0.4151 -0.7117
15970TIP3    H269326   4.546   0.103   2.111  1.0894  0.2686 -0.1776
15971TIP3   OH269327   3.032   2.555  16.671 -0.7081  0.1649 -0.3637
15971TIP3    H169328   3.115   2.511  16.655  0.3351  0.8826  2.4665
15971TIP3    H269329   2.981   2.493  16.723 -0.3453  1.1155  1.2168
15972TIP3   OH269330   1.402   1.622  13.673  0.7856  0.7918  0.3647
15972TIP3    H169331   1.447   1.702  13.700 -1.1027  1.9563  0.1818
15972TIP3    H269332   1.309   1.645  13.672  0.3024 -0.9645 -1.1672
15973TIP3   OH269333   4.335   1.250  15.922  0.2214 -0.4288  0.3453
15973TIP3    H169334   4.375   1.325  15.965 -0.4752 -0.4292  1.0213
15973TIP3    H269335   4.400   1.180  15.929  0.7333  0.0076  0.0151
15974TIP3   OH269336   2.998   0.985  16.583 -0.3788  0.8334  0.0131
15974TIP3    H169337   3.088   0.975  16.554 -0.5836 -0.9296 -0.0945
15974TIP3    H269338   2.949   1.002  16.502 -0.3988 -0.1717 -0.1995
15975TIP3   OH269339   4.877   2.083   2.917 -0.5435  0.2951 -0.0139
15975TIP3    H169340   4.839   2.000   2.888 -0.6682  0.3022  0.1284
15975TIP3    H269341   4.901   2.128   2.836 -0.1171 -0.0484 -0.0840
15976TIP3   OH269342   4.005   1.528   0.035  0.5619 -0.8843  0.2079
15976TIP3    H169343   3.997   1.622   0.051  2.0792 -0.7227  0.1125
15976TIP3    H269344   3.979   1.487   0.117 -1.5835 -0.4777 -0.2047
15977TIP3   OH269345   0.650   1.645  11.795 -0.3968 -0.4045  0.2503
15977TIP3    H169346   0.678   1.734  11.777 -1.5399  0.0854  0.8067
15977TIP3    H269347   0.569   1.635  11.745 -0.0783 -1.2752 -0.1257
15978TIP3   OH269348   1.980   1.384   0.630  0.4319 -0.2892  0.3726
15978TIP3    H169349   1.892   1.347   0.625  0.4188 -0.0510 -1.9911
15978TIP3    H269350   2.017   1.345   0.709 -1.1324 -1.8496  0.4021
15979TIP3   OH269351   6.232   6.687  11.917  0.3321 -0.1224  0.4791
15979TIP3    H169352   6.317   6.643  11.918 -0.0917 -0.9514  0.5019
15979TIP3    H269353   6.172   6.626  11.959 -0.1279  0.7951  1.2041
15980TIP3   OH269354   1.801   1.899   0.213  0.6161 -0.5170  0.0373
15980TIP3    H169355   1.725   1.844   0.194  2.1214 -2.5142 -0.5080
15980TIP3    H269356   1.860   1.842   0.261  2.0773  0.7784 -0.1501
15981TIP3   OH269357   5.727   3.403  13.222  0.0256 -0.5202 -0.0407
15981TIP3    H169358   5.634   3.378  13.228  0.2323 -1.2165  0.4313
15981TIP3    H269359   5.747   3.396  13.128 -0.4833 -0.0415 -0.1883
15982TIP3   OH269360   5.122   0.151   1.142 -0.0916  0.1081 -0.1761
15982TIP3    H169361   5.110   0.246   1.148 -0.7920  0.1027 -1.2275
15982TIP3    H269362   5.176   0.129   1.218  1.0432  1.5000 -0.5350
15983TIP3   OH269363   6.652   0.001   4.281 -0.1247 -0.3736 -0.2570
15983TIP3    H169364   6.683  -0.062   4.346 -0.2450 -0.7022 -0.5159
15983TIP3    H269365   6.622  -0.053   4.208  0.7648  0.0265 -0.9247
15984TIP3   OH269366   0.485   6.505   6.671 -0.0586 -0.1167  0.3310
15984TIP3    H169367   0.513   6.570   6.606 -0.0399  0.4557  0.8909
15984TIP3    H269368   0.441   6.557   6.738 -0.2133 -0.7149  0.6968
15985TIP3   OH269369   5.845   6.316   1.934  0.5835  0.3933  0.0485
15985TIP3    H169370   5.923   6.289   1.885  0.3833 -1.9248  0.8829
15985TIP3    H269371   5.864   6.292   2.025 -0.2550  1.8340  0.6417
15986TIP3   OH269372   6.721   1.463   2.318  0.3034  0.2408  0.0142
15986TIP3    H169373   6.633   1.485   2.350 -0.7082 -1.2053 -1.6151
15986TIP3    H269374   6.770   1.442   2.397 -0.7701  1.1395  0.9694
15987TIP3   OH269375   1.983   0.546   3.262  0.0944 -0.4810 -0.0821
15987TIP3    H169376   1.903   0.594   3.239  0.9670  0.5527 -1.0730
15987TIP3    H269377   2.053   0.592   3.216  1.0081 -2.6158 -0.9573
15988TIP3   OH269378   1.965   4.100  13.828  0.2531 -0.4012  0.0332
15988TIP3    H169379   1.900   4.052  13.878 -0.6512 -0.2808 -0.9878
15988TIP3    H269380   2.004   4.034  13.770  1.6366 -0.6450  1.1944
15989TIP3   OH269381   4.424   5.904  11.883 -0.6942 -0.0381 -0.4607
15989TIP3    H169382   4.422   5.947  11.798  2.5206 -1.6015 -1.4760
15989TIP3    H269383   4.332   5.886  11.903 -1.6382  1.5216 -2.9366
15990TIP3   OH269384   6.200   3.991  17.375 -0.3401  0.2270  0.2041
15990TIP3    H169385   6.212   3.990  17.470 -0.9398 -1.8902  0.3204
15990TIP3    H269386   6.284   3.960  17.340  0.4446  2.5556 -0.0985
15991TIP3   OH269387   1.477   6.593  14.207 -0.0242  0.7758 -0.6454
15991TIP3    H169388   1.475   6.682  14.173 -2.3780  1.0862  0.1045
15991TIP3    H269389   1.531   6.598  14.285  1.7138  1.0103 -1.8087
15992TIP3   OH269390   6.735   0.763   1.681 -0.2918  0.5617  0.4283
15992TIP3    H169391   6.644   0.735   1.670 -0.0032 -0.2639  0.0828
15992TIP3    H269392   6.784   0.711   1.618  0.6629 -0.3105  1.8102
15993TIP3   OH269393   6.568   5.578   0.034 -0.2688  0.1148  0.0088
15993TIP3    H169394   6.494   5.522   0.009 -0.6263 -0.1596  1.5874
15993TIP3    H269395   6.529   5.651   0.082  0.2865  1.2558 -1.2139
15994TIP3   OH269396   3.951   3.873   4.544  0.0791 -0.2274 -0.4575
15994TIP3    H169397   3.883   3.888   4.478 -0.5099 -0.0612  0.1689
15994TIP3    H269398   4.028   3.920   4.511  0.0379 -0.8057 -1.4018
15995TIP3   OH269399   4.422   1.556  12.023  0.0200  0.1347 -0.3962
15995TIP3    H169400   4.327   1.550  12.015  0.2302 -1.1193 -2.7211
15995TIP3    H269401   4.454   1.553  11.933  2.2386  1.6197  0.2671
15996TIP3   OH269402   2.325   4.572   2.191  0.1568  0.1463  0.0534
15996TIP3    H169403   2.280   4.650   2.156  0.8728 -0.6293 -2.8856
15996TIP3    H269404   2.417   4.596   2.192  0.2512 -0.2267  0.4098
15997TIP3   OH269405   2.785   1.941  12.455 -0.2519 -0.4760 -0.1297
15997TIP3    H169406   2.834   1.890  12.520  0.5048 -0.8770 -0.9860
15997TIP3    H269407   2.723   1.878  12.417 -1.0266 -0.1230  0.5197
15998TIP3   OH269408   2.303   4.606  13.025  0.0687 -0.0870  0.5997
15998TIP3    H169409   2.281   4.699  13.035  1.6599  0.2180  1.5948
15998TIP3    H269410   2.255   4.579  12.947 -0.3953  1.5776  0.2527
15999TIP3   OH269411   5.803   3.407   5.272  0.0239  0.0410 -0.7564
15999TIP3    H169412   5.818   3.387   5.180  0.1512 -2.1183 -0.3214
15999TIP3    H269413   5.722   3.361   5.294 -0.0273  0.5642  0.1943
16000TIP3   OH269414   0.403   5.978   4.764 -0.3703 -0.3324  0.3047
16000TIP3    H169415   0.417   6.071   4.786 -0.0999 -0.1047 -0.7749
16000TIP3    H269416   0.332   5.979   4.700  0.6652 -0.7047 -0.8975
16001TIP3   OH269417   5.494   4.034  12.277  0.3351  0.1519  0.0250
16001TIP3    H169418   5.437   3.972  12.232  0.3363  0.6980 -0.7450
16001TIP3    H269419   5.527   3.986  12.353  0.5315 -0.8622 -0.6922
16002TIP3   OH269420   4.161   2.058  14.770 -0.4159 -0.4269 -0.3155
16002TIP3    H169421   4.082   2.023  14.811 -1.1886  0.8362 -0.6788
16002TIP3    H269422   4.196   2.120  14.834 -0.9248  0.6135 -1.0332
16003TIP3   OH269423   4.722   0.108   3.362  0.1517  0.7385 -0.0924
16003TIP3    H169424   4.702   0.192   3.403  1.0167  1.3154 -0.8039
16003TIP3    H269425   4.638   0.064   3.353 -0.4068  1.8388 -0.3415
16004TIP3   OH269426   2.882   5.867   5.586  0.4847  0.2278 -0.2341
16004TIP3    H169427   2.879   5.952   5.542 -0.4845  0.8287  0.9460
16004TIP3    H269428   2.936   5.881   5.663  1.1189 -0.5000 -0.5223
16005TIP3   OH269429   0.221   1.872  11.636  0.3951 -0.0451 -0.2096
16005TIP3    H169430   0.138   1.850  11.678  0.3560 -0.8806 -0.7057
16005TIP3    H269431   0.240   1.961  11.666 -0.3148 -0.1152  0.4762
16006TIP3   OH269432   0.656   3.754  14.160 -0.3643 -0.4698  0.3506
16006TIP3    H169433   0.598   3.738  14.085  0.0348  0.2326 -0.1206
16006TIP3    H269434   0.744   3.751  14.124 -0.2128  1.3285  0.4809
16007TIP3   OH269435   0.082   5.110   3.131  0.1715 -0.8748  0.2876
16007TIP3    H169436   0.138   5.143   3.062 -0.5519 -0.9609 -0.3529
16007TIP3    H269437   0.106   5.160   3.209 -0.1167  0.3595 -0.4013
16008TIP3   OH269438   0.902   4.435  11.603 -0.2276  0.1079  0.0150
16008TIP3    H169439   0.990   4.442  11.641  0.1567 -1.8271 -0.4259
16008TIP3    H269440   0.880   4.525  11.576  1.0665  0.8499  1.2810
16009TIP3   OH269441   0.722   1.384  13.714 -0.5054  0.6518 -0.1456
16009TIP3    H169442   0.732   1.356  13.806 -0.1373  1.5501  0.0969
16009TIP3    H269443   0.638   1.347  13.687 -1.0236  1.0826  0.8225
16010TIP3   OH269444   0.531   4.644   5.318 -0.1974 -0.1806 -0.5616
16010TIP3    H169445   0.530   4.573   5.381  0.4209 -0.7140 -1.1395
16010TIP3    H269446   0.608   4.627   5.263  0.8874  1.7689  0.2371
16011TIP3   OH269447   4.775   1.537   0.718  0.0593 -0.0011  0.5271
16011TIP3    H169448   4.774   1.492   0.803  0.5095  0.2434  0.6657
16011TIP3    H269449   4.730   1.620   0.734  0.2828  0.1134  0.5675
16012TIP3   OH269450   2.939   2.074  11.404  0.3672 -0.0971 -0.4102
16012TIP3    H169451   2.880   2.146  11.427  0.3773 -0.0479 -0.5377
16012TIP3    H269452   2.963   2.091  11.313 -0.1198 -0.5954 -0.6339
16013TIP3   OH269453   1.396   0.400   2.530 -0.0259  0.4594 -0.4897
16013TIP3    H169454   1.453   0.340   2.482  0.2909  2.3526 -2.5957
16013TIP3    H269455   1.315   0.350   2.543  0.8987 -1.0927 -0.3769
16014TIP3   OH269456   3.634   2.776   1.459 -0.1612 -0.0862  0.5700
16014TIP3    H169457   3.651   2.858   1.505  0.2776  0.4948 -0.5733
16014TIP3    H269458   3.701   2.716   1.493  1.7134  1.0226 -0.9659
16015TIP3   OH269459   5.220   0.942   3.173  0.4403  0.1248 -0.4912
16015TIP3    H169460   5.126   0.929   3.161  0.4003  0.7916 -0.9313
16015TIP3    H269461   5.258   0.924   3.087  0.8055 -0.8595 -0.1415
16016TIP3   OH269462   0.428   6.092  11.976  0.3637  0.0794  0.2906
16016TIP3    H169463   0.386   6.041  11.907  0.7208 -0.1208  0.2213
16016TIP3    H269464   0.514   6.114  11.941  0.4712  0.1424  0.5927
16017TIP3   OH269465   2.642   3.906   3.937 -0.4494  0.3832  0.3612
16017TIP3    H169466   2.731   3.942   3.929 -1.1124  1.7829 -1.5019
16017TIP3    H269467   2.618   3.921   4.028  1.0374  0.3934  0.7827
16018TIP3   OH269468   0.844   5.772  16.893 -0.7084  0.1954 -0.2349
16018TIP3    H169469   0.854   5.818  16.810  0.1282 -0.1780 -0.3447
16018TIP3    H269470   0.770   5.713  16.879 -1.4588  1.1143 -0.2614
16019TIP3   OH269471   5.906   3.786   5.003 -0.6551  0.3381  0.2269
16019TIP3    H169472   5.987   3.737   4.986  0.6511  2.7172 -0.8299
16019TIP3    H269473   5.847   3.721   5.041  2.3275 -1.1109  2.8300
16020TIP3   OH269474   2.069   5.850   0.691 -0.1181  0.4789  0.5649
16020TIP3    H169475   1.984   5.837   0.649 -0.6697 -2.3115  2.3008
16020TIP3    H269476   2.133   5.829   0.623 -0.9122 -0.3937  0.0640
16021TIP3   OH269477   2.824   4.484   3.924 -0.3797  0.9135 -0.2330
16021TIP3    H169478   2.856   4.513   4.010  0.0521 -0.7245  0.1960
16021TIP3    H269479   2.729   4.476   3.937 -0.1848 -0.5650  0.5270
16022TIP3   OH269480   4.236   3.293  16.995 -0.1681  0.4760 -0.1316
16022TIP3    H169481   4.246   3.385  17.020 -0.9947  0.8337 -1.0739
16022TIP3    H269482   4.206   3.250  17.075 -0.9363  1.2518  0.0131
16023TIP3   OH269483   3.535   2.022  13.146  0.4895  0.3023 -0.0717
16023TIP3    H169484   3.481   1.945  13.127  1.7661 -0.4191 -1.0414
16023TIP3    H269485   3.563   2.053  13.059 -0.7920  2.4928  0.2349
16024TIP3   OH269486   0.969   1.240  13.313  0.5308 -0.1069 -0.1850
16024TIP3    H169487   1.001   1.174  13.252 -1.3449 -1.0852 -0.1818
16024TIP3    H269488   0.909   1.193  13.371 -0.6819  1.5333 -0.0219
16025TIP3   OH269489   4.377   3.187   5.464  0.0826 -0.6376 -0.2775
16025TIP3    H169490   4.331   3.262   5.503  0.8930 -0.6977  0.8245
16025TIP3    H269491   4.397   3.130   5.537  1.2951 -0.9451 -0.8238
16026TIP3   OH269492   2.072   6.042  13.939  0.1019  0.5550 -0.2317
16026TIP3    H169493   2.046   5.978  13.874 -0.3245 -1.0350  1.4243
16026TIP3    H269494   2.118   6.110  13.889 -0.7807 -0.2449 -2.2368
16027TIP3   OH269495   4.780   3.453  13.222 -0.2806  0.1921  0.5753
16027TIP3    H169496   4.846   3.487  13.283  2.5076  1.2312 -2.6792
16027TIP3    H269497   4.772   3.361  13.244  0.4381  0.5710  2.6226
16028TIP3   OH269498   5.118   6.093   3.112  0.0685  0.2873 -0.2183
16028TIP3    H169499   5.185   6.034   3.148  0.7160  0.9800 -0.2689
16028TIP3    H269500   5.166   6.173   3.090 -0.5526  0.3379 -1.4331
16029TIP3   OH269501   0.660   6.223   5.983 -0.5334  0.3324  0.0296
16029TIP3    H169502   0.726   6.275   6.030 -0.3060  0.6231 -0.6087
16029TIP3    H269503   0.585   6.224   6.042  0.6177 -1.6037  1.6746
16030TIP3   OH269504   3.871   6.722   0.628 -0.0474  0.3303 -0.0979
16030TIP3    H169505   3.828   6.723   0.713 -0.4825  3.0651 -0.2633
16030TIP3    H269506   3.807   6.681   0.569 -1.5685  2.2394  0.1159
16031TIP3   OH269507   5.887   0.935  10.479  0.3718 -0.4787  0.3468
16031TIP3    H169508   5.955   0.868  10.469  0.2080 -0.3589 -2.5004
16031TIP3    H269509   5.826   0.918  10.407 -2.2169 -0.0522  2.3024
16032TIP3   OH269510   2.810   0.819   3.457 -0.2863  0.5202 -0.1595
16032TIP3    H169511   2.902   0.796   3.443 -0.2156  0.0142  0.9895
16032TIP3    H269512   2.796   0.897   3.403  0.4584 -0.1305 -1.3446
16033TIP3   OH269513   2.799   6.378   3.895  0.5007 -0.1313 -0.6400
16033TIP3    H169514   2.724   6.320   3.883  0.1770  0.3942 -1.2198
16033TIP3    H269515   2.760   6.463   3.914  0.9617 -0.4394  2.0613
16034TIP3   OH269516   0.738   5.236  14.828 -0.3184 -0.4512 -0.0436
16034TIP3    H169517   0.820   5.194  14.852 -0.8641 -1.0522  0.8398
16034TIP3    H269518   0.730   5.310  14.888  0.2598  0.4675 -1.0789
16035TIP3   OH269519   1.546   6.415  16.203 -0.8258  0.0622  0.6468
16035TIP3    H169520   1.569   6.324  16.183  2.8482  1.0458 -0.3645
16035TIP3    H269521   1.623   6.450  16.249 -2.0463  2.7012  0.8755
16036TIP3   OH269522   3.535   1.202  14.427 -0.7000 -0.0752  0.3792
16036TIP3    H169523   3.610   1.171  14.478 -0.1618 -1.0438 -0.9441
16036TIP3    H269524   3.556   1.294  14.407  0.8389 -0.6953 -1.1277
16037TIP3   OH269525   4.475   0.025  10.860  0.4167  0.1816  0.3594
16037TIP3    H169526   4.513   0.061  10.941  0.4007 -1.0985  0.9624
16037TIP3    H269527   4.551   0.008  10.804  0.5796 -0.3999  0.7388
16038TIP3   OH269528   3.474   0.952  13.161  0.0881 -0.7169 -0.0321
16038TIP3    H169529   3.414   0.995  13.221 -0.2993 -2.0934  0.6126
16038TIP3    H269530   3.558   0.997  13.173 -0.9485  1.8750 -1.6326
16039TIP3   OH269531   4.525   3.023   5.665 -0.5652 -0.5916 -0.3451
16039TIP3    H169532   4.520   3.034   5.760  0.4165 -1.6294 -0.1505
16039TIP3    H269533   4.617   3.039   5.644 -1.1770  2.0158 -1.4927
16040TIP3   OH269534   0.759   5.963   4.289  0.1970 -0.2646  0.2419
16040TIP3    H169535   0.781   5.872   4.270  0.9312  0.1255 -0.8670
16040TIP3    H269536   0.679   5.980   4.239  1.8951  0.6366 -2.3790
16041TIP3   OH269537   5.457   3.889   3.129  0.1105 -0.4066 -0.3270
16041TIP3    H169538   5.477   3.911   3.220  0.1947  3.1375 -1.0775
16041TIP3    H269539   5.370   3.850   3.132  0.3203 -0.8369  1.2755
16042TIP3   OH269540   2.407   1.345   5.716  0.0738  0.2332  0.6298
16042TIP3    H169541   2.364   1.361   5.632 -0.2799 -0.4905  0.6703
16042TIP3    H269542   2.495   1.381   5.705  0.2487 -0.4489 -0.2841
16043TIP3   OH269543   3.965   1.794   4.104 -0.0580 -0.3435 -0.1733
16043TIP3    H169544   3.878   1.755   4.113  1.7005 -4.6135  0.9277
16043TIP3    H269545   3.984   1.830   4.191  0.7861 -3.3072  0.9628
16044TIP3   OH269546   0.557   2.343   0.580  0.5097 -0.4712  0.0071
16044TIP3    H169547   0.585   2.255   0.606  0.3390 -0.1609  1.3316
16044TIP3    H269548   0.468   2.331   0.545  0.7210 -0.9039 -0.3789
16045TIP3   OH269549   5.320   4.613  15.431 -0.0769 -0.0106  0.1036
16045TIP3    H169550   5.251   4.599  15.366 -0.7960  1.2170  0.5741
16045TIP3    H269551   5.396   4.641  15.380  1.1044 -4.0740 -0.7752
16046TIP3   OH269552   2.274   3.757   0.420 -0.3370  0.1950  0.5211
16046TIP3    H169553   2.309   3.678   0.379  0.2960  0.7604 -0.0640
16046TIP3    H269554   2.191   3.773   0.376  0.1068  0.5221 -0.2224
16047TIP3   OH269555   3.326   6.751  15.362  0.2842  0.2012  0.4179
16047TIP3    H169556   3.353   6.766  15.453 -0.7475 -0.4866  0.8566
16047TIP3    H269557   3.289   6.835  15.334  0.6903  0.4439  0.5985
16048TIP3   OH269558   1.928   4.806   0.402 -0.8134 -0.3568 -0.1992
16048TIP3    H169559   1.957   4.716   0.417  1.5278  0.2342 -0.8007
16048TIP3    H269560   1.865   4.799   0.330  0.1163 -1.4232 -0.9458
16049TIP3   OH269561   4.800   3.149  13.372  0.2468  0.0508 -0.0018
16049TIP3    H169562   4.712   3.153  13.408  0.1790 -0.5939 -0.0780
16049TIP3    H269563   4.791   3.097  13.292  0.4195  1.3221 -0.8893
16050TIP3   OH269564   6.148   6.148  12.320 -0.0216  0.1972 -0.0967
16050TIP3    H169565   6.175   6.131  12.410  0.1596  1.1071  0.0227
16050TIP3    H269566   6.079   6.083  12.304  0.0936 -0.1148  0.6158
16051TIP3   OH269567   4.477   4.869   5.899 -0.1002  0.0128 -0.4554
16051TIP3    H169568   4.553   4.811   5.906 -1.3063 -1.5141  0.9205
16051TIP3    H269569   4.402   4.809   5.893 -1.1977  1.4610 -2.3131
16052TIP3   OH269570   0.606   4.874   1.599  0.4552  0.0596  0.4399
16052TIP3    H169571   0.658   4.810   1.647  1.0058  0.4225  0.3334
16052TIP3    H269572   0.521   4.831   1.586  0.4672 -0.2353  1.2941
16053TIP3   OH269573   5.704   6.423   6.738 -0.1077  0.1988  0.8647
16053TIP3    H169574   5.636   6.378   6.789 -0.3923  1.0465  1.2443
16053TIP3    H269575   5.691   6.515   6.758  0.4474  0.4529  0.0532
16054TIP3   OH269576   6.752   3.866   2.867 -0.6400  0.2927 -0.0331
16054TIP3    H169577   6.799   3.791   2.905  0.4931  1.4121  0.8933
16054TIP3    H269578   6.734   3.839   2.777  2.6076  0.0765 -0.7589
16055TIP3   OH269579   3.231   3.803  15.031  0.2204 -0.4229  0.4620
16055TIP3    H169580   3.147   3.805  14.985  1.1324  0.1805 -1.2906
16055TIP3    H269581   3.285   3.744  14.978  0.7610 -1.2847  1.8997
16056TIP3   OH269582   0.627   4.161   2.394 -1.1328  0.5073  0.7054
16056TIP3    H169583   0.564   4.212   2.343 -0.2581 -0.1685 -1.1489
16056TIP3    H269584   0.712   4.200   2.374 -0.4571 -1.4814 -0.6503
16057TIP3   OH269585   5.991   5.175   4.808  0.0118  0.1751  0.4771
16057TIP3    H169586   6.078   5.169   4.848 -0.2933 -2.8124  0.9002
16057TIP3    H269587   5.991   5.107   4.741 -2.5583 -1.1820  1.7207
16058TIP3   OH269588   0.398   0.781  14.841 -0.0098  0.0069 -0.2780
16058TIP3    H169589   0.421   0.692  14.869 -0.8776 -0.1311  0.0177
16058TIP3    H269590   0.472   0.834  14.869  1.4505 -0.8980 -2.1800
16059TIP3   OH269591   5.870   4.532  16.052 -0.4182 -0.4436  0.0301
16059TIP3    H169592   5.928   4.459  16.033 -0.1799 -0.8669  2.1060
16059TIP3    H269593   5.929   4.603  16.079 -0.5931  0.8198 -2.5824
16060TIP3   OH269594   6.637   1.651   4.884  0.3604  0.0381  0.0793
16060TIP3    H169595   6.644   1.745   4.865 -0.0070 -0.4402 -2.8398
16060TIP3    H269596   6.727   1.622   4.894  0.5987  0.3816 -0.9512
16061TIP3   OH269597   1.243   5.493   4.493  0.2103  0.0410 -0.0923
16061TIP3    H169598   1.213   5.510   4.404  1.1361  2.3907 -0.0417
16061TIP3    H269599   1.338   5.492   4.486  0.2644 -1.3029  0.6517
16062TIP3   OH269600   6.665   1.409   5.395  0.1783 -0.1544  0.5097
16062TIP3    H169601   6.745   1.388   5.347  0.2956  1.8123 -0.2498
16062TIP3    H269602   6.647   1.501   5.373 -0.2423  0.6244  3.5493
16063TIP3   OH269603   4.082   0.865   2.370  0.5528  0.4428  0.3671
16063TIP3    H169604   4.124   0.781   2.388 -1.2827 -0.5504  0.3524
16063TIP3    H269605   4.152   0.930   2.377  1.7386 -0.9152  1.9076
16064TIP3   OH269606   1.707   6.559  16.471  0.0092 -0.0459 -0.1060
16064TIP3    H169607   1.706   6.649  16.440  1.7754  0.6503  1.6074
16064TIP3    H269608   1.792   6.525  16.442  0.2155 -0.4836  0.9691
16065TIP3   OH269609   5.194   5.944  13.698 -0.1833 -0.7551 -0.2457
16065TIP3    H169610   5.220   5.965  13.608 -0.4493  0.7003 -0.0151
16065TIP3    H269611   5.236   5.861  13.717  1.6784 -0.0265 -0.9801
16066TIP3   OH269612   5.630   1.604   2.950 -0.1901 -0.0963 -0.7902
16066TIP3    H169613   5.694   1.660   2.993  0.3329 -1.2290 -0.0335
16066TIP3    H269614   5.566   1.585   3.019 -1.1947  0.7616 -1.4485
16067TIP3   OH269615   0.577   1.950   5.716 -0.0890 -0.2963  0.0381
16067TIP3    H169616   0.632   1.968   5.792 -0.7945  2.3049  0.0333
16067TIP3    H269617   0.639   1.937   5.644  0.5340 -0.3885  0.5822
16068TIP3   OH269618   2.387   3.912   0.068 -0.2234  0.4211  0.0034
16068TIP3    H169619   2.481   3.922   0.079 -0.2053  1.3844 -0.9094
16068TIP3    H269620   2.349   3.990   0.108 -0.2826  2.8545 -4.2548
16069TIP3   OH269621   2.850   4.037   4.525  0.3980  0.0332 -0.0587
16069TIP3    H169622   2.895   4.056   4.608  0.8744  0.0611 -0.3180
16069TIP3    H269623   2.776   4.097   4.523  1.0394  0.8385 -0.1765
16070TIP3   OH269624   3.824   2.579  12.979  0.0243  0.6950  0.4020
16070TIP3    H169625   3.890   2.589  12.910  0.3357  1.2736  0.7731
16070TIP3    H269626   3.875   2.570  13.060 -0.3486  0.8418  0.6555
16071TIP3   OH269627   3.660   0.462  12.750  0.2204 -0.4646 -0.2671
16071TIP3    H169628   3.600   0.523  12.708  0.1877 -0.9011 -0.8684
16071TIP3    H269629   3.627   0.453  12.839  0.0585  0.1653 -0.2563
16072TIP3   OH269630   6.151   0.452   2.221 -0.4847  0.6025 -0.1936
16072TIP3    H169631   6.126   0.503   2.298  0.7559  1.8677 -0.5843
16072TIP3    H269632   6.238   0.485   2.197  0.5584 -1.9830 -0.2563
16073TIP3   OH269633   2.927   4.177   2.216  0.5006  0.6184 -0.2079
16073TIP3    H169634   2.857   4.242   2.210 -0.4396 -0.1262  1.8887
16073TIP3    H269635   2.894   4.110   2.275  3.2836  0.6246  1.5647
16074TIP3   OH269636   5.916   5.440   4.758  0.1695 -0.0809 -0.4159
16074TIP3    H169637   5.956   5.473   4.677  0.1699  0.5322 -0.1699
16074TIP3    H269638   5.922   5.345   4.750  1.7449 -0.0097 -0.3534
16075TIP3   OH269639   4.872   5.531   5.309  1.2378 -0.0195 -0.1989
16075TIP3    H169640   4.941   5.466   5.294  1.6089 -0.0841  1.6289
16075TIP3    H269641   4.804   5.484   5.357  2.1614  1.2357  2.5044
16076TIP3   OH269642   1.124   1.013  14.737  0.6537  0.3701  0.1470
16076TIP3    H169643   1.032   0.988  14.750  1.0861 -0.9845  0.8469
16076TIP3    H269644   1.137   1.010  14.642  0.4881 -1.5868  0.1343
16077TIP3   OH269645   0.739   5.091  12.269  0.6205  0.2789  0.5724
16077TIP3    H169646   0.694   5.071  12.187  0.5570  1.3936  0.3168
16077TIP3    H269647   0.786   5.011  12.292 -0.0003 -0.2910 -0.1388
16078TIP3   OH269648   5.866   5.575  11.974  0.4000  0.1459  0.0992
16078TIP3    H169649   5.837   5.663  12.002 -0.9228 -0.6228  1.3122
16078TIP3    H269650   5.961   5.582  11.969  0.3832  1.4652  0.8716
16079TIP3   OH269651   3.881   1.626  11.310 -0.4989 -0.4912 -0.3774
16079TIP3    H169652   3.798   1.644  11.264 -0.4391 -0.8629 -0.6284
16079TIP3    H269653   3.860   1.554  11.370 -0.4406 -0.3580 -0.1957
16080TIP3   OH269654   0.382   1.687   6.198 -0.1056 -0.0424  0.3000
16080TIP3    H169655   0.432   1.708   6.277  0.2435 -1.0189  0.3485
16080TIP3    H269656   0.388   1.592   6.190 -0.4512  0.0068 -0.6946
16081TIP3   OH269657   5.624   0.081   4.224 -0.5016 -0.0563 -0.3120
16081TIP3    H169658   5.712   0.068   4.259  0.9309  2.0509 -2.8055
16081TIP3    H269659   5.594   0.163   4.261 -0.6422  0.1556 -0.8782
16082TIP3   OH269660   4.627   3.441   1.522  0.0793  0.2489 -0.4225
16082TIP3    H169661   4.670   3.416   1.440  0.8357  0.3259 -0.0542
16082TIP3    H269662   4.643   3.368   1.581  0.1963  0.5272 -0.1069
16083TIP3   OH269663   2.888   0.320  11.494  0.5207 -0.3566 -0.4631
16083TIP3    H169664   2.894   0.371  11.575  2.5364 -0.1326 -0.6988
16083TIP3    H269665   2.811   0.354  11.450 -0.1498  0.0751  0.9753
16084TIP3   OH269666   4.551   6.047  16.826  0.1608 -0.8539  0.0408
16084TIP3    H169667   4.584   6.098  16.900 -1.0668  0.3490 -0.2016
16084TIP3    H269668   4.563   6.105  16.750 -0.3239 -1.3192 -0.3952
16085TIP3   OH269669   1.479   0.240  14.051 -0.1636  0.6348 -0.1985
16085TIP3    H169670   1.507   0.269  13.965 -1.9120  0.6634 -0.7989
16085TIP3    H269671   1.384   0.234  14.045 -0.3567  0.8209  1.7835
16086TIP3   OH269672   0.089   4.107   1.520 -0.2401 -0.5164  0.6028
16086TIP3    H169673  -0.001   4.111   1.553 -0.3586  0.5031  0.2138
16086TIP3    H269674   0.101   4.017   1.490 -0.4000 -1.2726  2.6304
16087TIP3   OH269675   4.191   6.113   0.817 -0.0042 -0.1015  0.2592
16087TIP3    H169676   4.223   6.026   0.840  0.2645 -0.3530 -1.0143
16087TIP3    H269677   4.200   6.118   0.722  0.5381  1.5346  0.3630
16088TIP3   OH269678   5.607   5.307   4.433 -0.4075  0.2498 -0.6154
16088TIP3    H169679   5.527   5.256   4.423 -1.3360  1.2411  1.2512
16088TIP3    H269680   5.628   5.300   4.527 -0.3575  2.8901 -0.3578
16089TIP3   OH269681   1.204   2.402  17.178  0.1048 -0.2606  0.0872
16089TIP3    H169682   1.255   2.335  17.131  0.5882  0.3139 -0.2200
16089TIP3    H269683   1.270   2.459  17.218 -0.2387 -1.6147  2.8501
16090TIP3   OH269684   2.735   4.288  12.750  0.4413  0.4130 -0.4363
16090TIP3    H169685   2.802   4.262  12.813  0.3438  2.3632  0.5301
16090TIP3    H269686   2.777   4.281  12.665  1.2331 -0.2732  0.0018
16091TIP3   OH269687   4.050   1.388  10.571  0.7992 -0.0911 -0.4132
16091TIP3    H169688   3.962   1.383  10.609  1.3832 -1.2360  0.9093
16091TIP3    H269689   4.106   1.408  10.646  1.8810 -1.3508 -0.8553
16092TIP3   OH269690   4.380   5.766  10.687  0.6955 -0.1321 -0.3567
16092TIP3    H169691   4.439   5.805  10.622 -0.2886 -0.6661 -1.6116
16092TIP3    H269692   4.304   5.737  10.636 -0.7793  0.7598  1.2464
16093TIP3   OH269693   3.710   6.568  15.555  0.4402 -0.3717 -0.0348
16093TIP3    H169694   3.677   6.492  15.602  0.7817 -0.5316 -0.0484
16093TIP3    H269695   3.651   6.579  15.481 -0.3490  0.1291  0.6509
16094TIP3   OH269696   4.524   3.055  13.493  0.4334 -0.2534 -0.6292
16094TIP3    H169697   4.540   2.990  13.424  2.6899  1.5353 -1.9364
16094TIP3    H269698   4.437   3.089  13.474 -0.0969 -1.6793 -0.9139
16095TIP3   OH269699   0.149   3.313  16.971 -0.1328  0.5119  0.2724
16095TIP3    H169700   0.102   3.249  16.918 -0.0532  1.6456 -1.2300
16095TIP3    H269701   0.231   3.327  16.924  0.0113  1.4271  0.7758
16096TIP3   OH269702   5.727   3.993  14.880  0.6553  0.3407 -0.4990
16096TIP3    H169703   5.745   4.086  14.893  1.0081  0.2815 -0.5686
16096TIP3    H269704   5.730   3.955  14.967 -1.7937  0.7895 -0.1474
16097TIP3   OH269705   3.336   2.273  12.628  0.3404  0.4156 -0.4854
16097TIP3    H169706   3.372   2.202  12.575 -0.1529  1.1223 -1.8051
16097TIP3    H269707   3.272   2.316  12.571 -1.7511 -0.0640  1.3765
16098TIP3   OH269708   4.570   4.611  14.464 -0.3444 -0.2193  0.3948
16098TIP3    H169709   4.553   4.613  14.370 -0.5172  2.0649  0.4189
16098TIP3    H269710   4.486   4.631  14.504 -0.2838 -1.2414  1.0536
16099TIP3   OH269711   0.351   0.693  13.724  0.5539  0.3770 -0.8161
16099TIP3    H169712   0.422   0.716  13.664  0.6634  1.1404 -0.4035
16099TIP3    H269713   0.387   0.627  13.782  0.5076 -0.2276 -1.4565
16100TIP3   OH269714   4.465   2.729   5.874 -0.1773  0.7015 -0.1307
16100TIP3    H169715   4.504   2.645   5.898 -2.3828 -0.0631  0.9956
16100TIP3    H269716   4.505   2.750   5.789 -0.0235 -1.7769 -0.7575
16101TIP3   OH269717   0.598   3.504   3.691  0.0617  0.1813 -0.5979
16101TIP3    H169718   0.642   3.514   3.775 -0.1493  0.1014 -0.4793
16101TIP3    H269719   0.566   3.591   3.670 -0.4901  0.0609 -0.2652
16102TIP3   OH269720   1.172   5.156   6.998  0.0043  0.3956  0.4302
16102TIP3    H169721   1.185   5.177   6.905 -1.3969 -1.2055 -0.1916
16102TIP3    H269722   1.097   5.210   7.025  1.4442  2.1128  1.1505
16103TIP3   OH269723   6.711   5.533  12.962  0.0174  0.0986  0.2186
16103TIP3    H169724   6.714   5.531  12.866  0.6636  0.4176  0.2225
16103TIP3    H269725   6.628   5.491  12.985 -1.8543  3.0504 -0.5914
16104TIP3   OH269726   0.218   4.377   2.452  0.2586 -0.4693  0.2379
16104TIP3    H169727   0.190   4.286   2.454 -0.2488 -0.3065  0.7501
16104TIP3    H269728   0.144   4.426   2.488  0.3997  0.1783 -0.3400
16105TIP3   OH269729   0.812   4.658  11.962  0.5994 -0.5753 -0.0447
16105TIP3    H169730   0.773   4.572  11.947  0.6430 -0.7144  0.6418
16105TIP3    H269731   0.767   4.693  12.038  0.4527  0.0969 -0.4324
16106TIP3   OH269732   3.845   5.788  15.411 -0.1254 -0.0942  0.1075
16106TIP3    H169733   3.853   5.760  15.319 -0.4832 -1.7299  0.5337
16106TIP3    H269734   3.934   5.783  15.445  0.4735  2.8930 -0.7133
16107TIP3   OH269735   0.582   5.355   3.713  0.2939 -0.4454 -0.0561
16107TIP3    H169736   0.591   5.272   3.761  0.7326 -0.3414  0.0536
16107TIP3    H269737   0.605   5.422   3.778 -0.5735 -0.1995  0.0032
16108TIP3   OH269738   1.525   3.864   2.489  0.4310 -0.4323 -0.3619
16108TIP3    H169739   1.561   3.875   2.577 -0.8264  2.8157 -0.1402
16108TIP3    H269740   1.587   3.909   2.432 -0.0709 -0.3128 -0.8185
16109TIP3   OH269741   4.415   1.710   4.563  0.0495 -0.6263 -0.0318
16109TIP3    H169742   4.449   1.793   4.596 -0.9670  0.1246 -0.8294
16109TIP3    H269743   4.459   1.643   4.616  3.2894  0.2115 -1.4158
16110TIP3   OH269744   1.857   4.507   4.151  0.2155  0.3335 -0.2948
16110TIP3    H169745   1.811   4.583   4.116 -0.4061  0.5947  1.0561
16110TIP3    H269746   1.948   4.519   4.121 -0.2743  0.5193 -1.8133
16111TIP3   OH269747   4.781   3.980   3.214 -0.1278 -0.0259  0.3423
16111TIP3    H169748   4.710   3.916   3.203  1.0625 -1.1355 -1.2800
16111TIP3    H269749   4.776   4.035   3.136  0.9668 -0.3148  0.0512
16112TIP3   OH269750   0.075   0.598  10.801  0.0265  0.6144  0.5125
16112TIP3    H169751   0.162   0.591  10.842  0.7694 -1.2778 -1.2073
16112TIP3    H269752   0.023   0.532  10.847  0.4122 -0.4113 -0.4924
16113TIP3   OH269753   2.755   1.165  13.389  0.1956  0.3976  0.4646
16113TIP3    H169754   2.826   1.229  13.383  0.3374  0.2118  0.1115
16113TIP3    H269755   2.796   1.086  13.423 -0.1134  0.6877  1.5456
16114TIP3   OH269756   2.551   0.650  11.864 -0.2919 -0.2787  0.0630
16114TIP3    H169757   2.467   0.651  11.820 -0.5627 -1.5568  0.5051
16114TIP3    H269758   2.603   0.585  11.816  0.9696  1.4546 -1.0737
16115TIP3   OH269759   4.699   2.889   6.219  0.1599  0.1111 -0.4973
16115TIP3    H169760   4.668   2.980   6.218  1.3910  0.5400 -1.2768
16115TIP3    H269761   4.624   2.838   6.188 -0.9415  0.6967  1.0674
16116TIP3   OH269762   0.926   1.103   5.819 -0.0273 -0.3568  0.2265
16116TIP3    H169763   0.963   1.144   5.741  0.2795 -0.8861  0.0913
16116TIP3    H269764   0.938   1.168   5.889  0.6245 -0.2857  0.0550
16117TIP3   OH269765   2.758   2.144   2.229 -0.2507  0.2964  0.3304
16117TIP3    H169766   2.830   2.198   2.262 -0.1708  0.3831  0.0158
16117TIP3    H269767   2.679   2.193   2.252 -0.3538 -0.7959  2.5874
16118TIP3   OH269768   2.969   6.326   5.173 -0.1781  0.0878  0.1544
16118TIP3    H169769   3.012   6.241   5.181  0.5292  0.5516  1.5464
16118TIP3    H269770   2.926   6.339   5.258 -1.7259  0.3796 -0.6325
16119TIP3   OH269771   5.128   1.594  15.927 -0.0519  0.2664 -0.1991
16119TIP3    H169772   5.185   1.624  15.856 -0.6665  0.2604 -0.6989
16119TIP3    H269773   5.151   1.651  16.001  0.7132  0.1584 -0.3421
16120TIP3   OH269774   0.763   6.390  15.105 -0.1185  0.0406  0.1995
16120TIP3    H169775   0.745   6.353  15.191 -3.0096 -0.6725 -0.6054
16120TIP3    H269776   0.776   6.483  15.121  2.6770 -0.5028  1.7008
16121TIP3   OH269777   0.352   6.272  13.654  0.0094 -0.1250  0.2005
16121TIP3    H169778   0.418   6.216  13.694  0.2508 -0.2393 -0.3526
16121TIP3    H269779   0.316   6.220  13.583  0.5734  0.5803 -0.6285
16122TIP3   OH269780   2.608   1.238  10.550  0.4663 -0.0271  0.2328
16122TIP3    H169781   2.594   1.215  10.459  1.2464  1.9522 -0.4326
16122TIP3    H269782   2.558   1.172  10.599 -0.5685 -0.6951 -1.6126
16123TIP3   OH269783   6.584   2.114  16.480  0.1987 -0.8128 -0.0790
16123TIP3    H169784   6.645   2.109  16.555 -1.1821 -1.1222  1.0734
16123TIP3    H269785   6.568   2.022  16.457  0.1720 -0.7341 -0.3711
16124TIP3   OH269786   2.871   1.783   5.561 -0.3708 -0.4204 -0.5342
16124TIP3    H169787   2.776   1.777   5.568 -0.3538 -2.0919 -1.1922
16124TIP3    H269788   2.903   1.770   5.650 -0.7668  0.6793 -0.2273
16125TIP3   OH269789   0.388   0.573   0.098 -0.1679 -0.1568 -0.5423
16125TIP3    H169790   0.468   0.605   0.141 -0.9914  0.5196  0.5750
16125TIP3    H269791   0.407   0.578   0.005  0.3846  2.0008 -0.3708
16126TIP3   OH269792   4.815   2.791   2.865 -0.7164 -0.0892  0.4124
16126TIP3    H169793   4.732   2.793   2.818  0.6656 -0.9909 -2.2982
16126TIP3    H269794   4.854   2.877   2.848  0.4538 -0.9388 -1.5560
16127TIP3   OH269795   3.292   1.917  13.009  0.1916  0.0473  0.2253
16127TIP3    H169796   3.255   1.849  12.953 -1.9088  1.0183  0.3419
16127TIP3    H269797   3.311   1.989  12.949  2.6049 -0.6236  0.0686
16128TIP3   OH269798   3.321   0.057  12.502 -0.8113  0.2974 -0.4584
16128TIP3    H169799   3.391   0.122  12.491  0.0105 -0.4226  0.3472
16128TIP3    H269800   3.348   0.006  12.579 -3.3079  1.4233  1.3094
16129TIP3   OH269801   4.661   2.800   1.631  1.0301  0.5567 -0.0249
16129TIP3    H169802   4.614   2.720   1.656 -0.1154  0.8717 -1.0781
16129TIP3    H269803   4.642   2.862   1.702 -0.7717  0.9048 -0.7644
16130TIP3   OH269804   3.511   5.663   2.586 -0.2210 -0.1480  0.1442
16130TIP3    H169805   3.599   5.628   2.599 -0.7236 -1.0676  1.3031
16130TIP3    H269806   3.524   5.757   2.570  0.9488 -0.2340  0.5219
16131TIP3   OH269807   0.477   2.076  15.835 -0.3746  0.2240 -0.2679
16131TIP3    H169808   0.497   2.005  15.774 -1.5331 -0.1870 -0.1790
16131TIP3    H269809   0.506   2.155  15.789  0.3073 -0.2300 -0.6433
16132TIP3   OH269810   6.422   0.119  16.990  0.0961 -0.2586 -0.0373
16132TIP3    H169811   6.431   0.069  17.072  1.3859 -0.3536 -0.2092
16132TIP3    H269812   6.504   0.167  16.983 -0.5378  0.7556 -0.6311
16133TIP3   OH269813   3.540   2.811   3.763  0.0052 -0.5591  0.3530
16133TIP3    H169814   3.625   2.854   3.766 -0.3793  0.4338 -1.4115
16133TIP3    H269815   3.559   2.720   3.738  0.5219 -0.0407 -1.3088
16134TIP3   OH269816   2.359   1.599  16.010 -0.5975  0.2653  0.0637
16134TIP3    H169817   2.303   1.647  16.072 -0.3142  0.7665 -0.0606
16134TIP3    H269818   2.357   1.653  15.931  0.9001  0.8539  0.3994
16135TIP3   OH269819   5.414   2.994   1.845 -0.2099  0.2672  0.3159
16135TIP3    H169820   5.362   3.026   1.771 -0.5427  1.5132  1.0517
16135TIP3    H269821   5.456   3.073   1.880  1.7403 -0.6101  0.1012
16136TIP3   OH269822   4.307   2.125  16.156 -0.3849  0.1520  0.3093
16136TIP3    H169823   4.352   2.041  16.145  0.2714  0.6893 -1.6198
16136TIP3    H269824   4.334   2.156  16.242  0.8436 -0.7784  0.2896
16137TIP3   OH269825   3.605   2.655  11.812  0.3923  0.2871 -0.7002
16137TIP3    H169826   3.544   2.582  11.810  1.1982 -0.4038 -1.1192
16137TIP3    H269827   3.677   2.625  11.868  0.3437  1.0973 -0.1804
16138TIP3   OH269828   4.923   1.039  12.063  0.2022  0.6646  0.5185
16138TIP3    H169829   4.828   1.034  12.061  0.2204  0.1199  0.8325
16138TIP3    H269830   4.950   0.969  12.123  0.9795 -1.7096 -2.3703
16139TIP3   OH269831   5.859   3.674  13.136  0.3583 -0.6143  0.0339
16139TIP3    H169832   5.942   3.651  13.178 -0.4157 -3.0644  0.4130
16139TIP3    H269833   5.829   3.592  13.097 -1.5081  0.3975 -0.7742
16140TIP3   OH269834   2.213   2.422  12.127  0.1242  0.0720 -0.2107
16140TIP3    H169835   2.263   2.434  12.046  1.1476  0.4399  0.4432
16140TIP3    H269836   2.263   2.356  12.176  1.0624  1.7760  1.2656
16141TIP3   OH269837   2.049   1.352  13.117 -0.1940  0.1881  0.0454
16141TIP3    H169838   2.002   1.432  13.140  1.5029  0.9569  0.9975
16141TIP3    H269839   2.105   1.377  13.043 -3.2103 -1.4343 -3.0664
16142TIP3   OH269840   6.559   6.020   4.852 -0.2107  0.3906  0.5972
16142TIP3    H169841   6.520   5.981   4.930 -1.2626 -0.4176 -0.3073
16142TIP3    H269842   6.593   6.104   4.882 -0.3411 -0.0304  1.9843
16143TIP3   OH269843   1.251   0.578   0.275 -0.1061  0.5747 -0.1762
16143TIP3    H169844   1.332   0.560   0.227 -1.1318 -0.4013 -1.6049
16143TIP3    H269845   1.190   0.510   0.247 -1.2149  0.8462  1.4343
16144TIP3   OH269846   3.522   5.576   5.973 -0.6230  0.2740 -0.1607
16144TIP3    H169847   3.553   5.617   6.054 -0.3039  0.4750 -0.3828
16144TIP3    H269848   3.518   5.483   5.993  0.2657  0.2257 -0.1714
16145TIP3   OH269849   0.362   1.445  17.207 -0.7893  0.1530 -0.0950
16145TIP3    H169850   0.443   1.403  17.237 -0.6110  0.1531 -0.5603
16145TIP3    H269851   0.317   1.376  17.158  0.2133  0.8704 -2.1788
16146TIP3   OH269852   0.613   0.901  16.311  0.7716  0.0403 -0.3443
16146TIP3    H169853   0.605   0.990  16.275  2.1715  0.8927  1.3178
16146TIP3    H269854   0.585   0.909  16.402  0.4664 -1.3374 -0.2969
16147TIP3   OH269855   2.919   3.071  16.554 -0.1193  0.0699  0.0752
16147TIP3    H169856   2.988   3.137  16.549 -0.2780  0.1856 -0.7455
16147TIP3    H269857   2.961   2.990  16.524 -0.5245  0.2983 -1.1342
16148TIP3   OH269858   3.916   4.906   4.632 -0.1510  0.1622  0.0314
16148TIP3    H169859   3.883   4.899   4.721 -0.2627 -0.4210 -0.0541
16148TIP3    H269860   3.850   4.862   4.578 -0.2985  0.8878 -0.3893
16149TIP3   OH269861   0.918   0.224  12.529 -0.2924  0.1108 -0.8113
16149TIP3    H169862   0.994   0.228  12.472 -0.0401 -2.1913 -0.7369
16149TIP3    H269863   0.856   0.286  12.491  0.2021 -0.7059 -3.1101
16150TIP3   OH269864   3.551   3.732  15.665 -0.5319  0.0400  0.0984
16150TIP3    H169865   3.592   3.732  15.578 -0.1794 -2.8688  0.1436
16150TIP3    H269866   3.601   3.796  15.715  1.5335 -0.6693 -0.9288
16151TIP3   OH269867   3.116   3.876  16.027  0.3236 -0.2319  0.2119
16151TIP3    H169868   3.090   3.820  16.101 -0.1844 -0.2345  0.0309
16151TIP3    H269869   3.177   3.822  15.977 -1.9730 -1.5873 -1.3062
16152TIP3   OH269870   2.249   3.869  11.721  0.2233 -0.5372 -0.4590
16152TIP3    H169871   2.269   3.810  11.794  0.9474  0.0176 -0.1904
16152TIP3    H269872   2.194   3.937  11.760  0.9214 -0.0332 -0.3244
16153TIP3   OH269873   2.431   3.120  16.525  0.1232  0.0282 -0.0106
16153TIP3    H169874   2.385   3.131  16.608  0.2201 -3.0746  0.5605
16153TIP3    H269875   2.521   3.146  16.544 -0.3767  1.8640  0.0684
16154TIP3   OH269876   6.107   3.615  13.203 -0.3666  0.0895  0.4073
16154TIP3    H169877   6.115   3.530  13.160  0.2247  1.0887 -1.5908
16154TIP3    H269878   6.177   3.668  13.165 -1.2387  1.7224  0.9709
16155TIP3   OH269879   2.166   2.642   1.517 -0.0947  0.0933  0.0178
16155TIP3    H169880   2.194   2.587   1.590  0.6992  0.2184 -0.1846
16155TIP3    H269881   2.094   2.593   1.477 -0.3093 -0.1399  0.6724
16156TIP3   OH269882   1.550   0.972   2.603  0.0570 -0.7120  0.3350
16156TIP3    H169883   1.509   1.054   2.631 -1.0032 -1.1069 -0.0430
16156TIP3    H269884   1.636   0.973   2.645  0.1648  0.7177  0.1389
16157TIP3   OH269885   0.817   3.765  12.562  0.7063  0.4911 -0.4440
16157TIP3    H169886   0.750   3.698  12.571 -1.1329  2.1767 -0.8617
16157TIP3    H269887   0.899   3.716  12.548 -0.6125 -1.6215 -1.2310
16158TIP3   OH269888   2.303   5.898  17.195  0.3314 -0.0914 -0.0464
16158TIP3    H169889   2.243   5.954  17.243 -0.7747 -1.3026  0.0320
16158TIP3    H269890   2.255   5.817  17.182  0.8942 -0.1030 -2.4873
16159TIP3   OH269891   3.840   4.235  12.420  0.2257  0.1420 -0.2329
16159TIP3    H169892   3.777   4.197  12.359  0.4091 -0.5603  0.0014
16159TIP3    H269893   3.918   4.180  12.411  0.0120 -0.4215  1.1496
16160TIP3   OH269894   1.617   0.694  15.623 -0.5925  0.1033 -0.3590
16160TIP3    H169895   1.614   0.730  15.711 -0.8924  0.4067 -0.4895
16160TIP3    H269896   1.637   0.769  15.567  0.4226 -0.2326 -0.4700
16161TIP3   OH269897   3.900   4.516  16.747 -0.0282  0.2357  0.0183
16161TIP3    H169898   3.912   4.514  16.653 -1.1393  2.0345 -0.2144
16161TIP3    H269899   3.817   4.470  16.762  0.4191 -0.5401  0.2123
16162TIP3   OH269900   1.159   4.337  15.286 -0.1281  0.5806 -0.1688
16162TIP3    H169901   1.098   4.399  15.325 -0.5485 -0.4043  0.7932
16162TIP3    H269902   1.150   4.258  15.339  0.8358 -0.1051 -0.9875
16163TIP3   OH269903   3.490   0.631  16.239  0.0619 -0.6468 -0.0050
16163TIP3    H169904   3.542   0.575  16.296  1.9887  0.1112 -0.9268
16163TIP3    H269905   3.409   0.647  16.288  0.3157 -2.5608  1.1187
16164TIP3   OH269906   1.331   3.331  16.537  0.2058 -0.0045  0.4390
16164TIP3    H169907   1.352   3.305  16.448  2.1137 -0.3480  0.9520
16164TIP3    H269908   1.413   3.321  16.586 -0.2651  2.0367  1.8168
16165TIP3   OH269909   5.590   4.193   0.226  0.0343 -0.4326 -0.3326
16165TIP3    H169910   5.570   4.113   0.177  2.2099 -1.2659  0.0270
16165TIP3    H269911   5.685   4.203   0.218  0.0029  1.3044  0.8851
16166TIP3   OH269912   6.712   6.574   0.193 -0.1009  0.6280 -0.0327
16166TIP3    H169913   6.732   6.621   0.274 -2.8309  0.1225  1.0656
16166TIP3    H269914   6.750   6.487   0.205  0.1115  0.7797  0.4019
16167TIP3   OH269915   5.499   5.893   0.316  0.2323  0.4538  0.1799
16167TIP3    H169916   5.440   5.836   0.268  0.6362  0.8054 -0.7654
16167TIP3    H269917   5.577   5.840   0.331  0.0744  0.3174  0.5278
16168TIP3   OH269918   1.024   0.234   4.178  0.3162  0.0051 -0.2374
16168TIP3    H169919   0.983   0.319   4.160  0.2738  0.0774  0.1893
16168TIP3    H269920   1.031   0.192   4.092  1.1911  0.8258 -0.5917
16169TIP3   OH269921   6.241   3.384  12.664  0.1624 -0.5418  0.3284
16169TIP3    H169922   6.170   3.336  12.623  0.6584 -0.1014 -1.0939
16169TIP3    H269923   6.209   3.402  12.753 -0.8068 -1.7845  0.2619
16170TIP3   OH269924   4.177   3.292  14.903  0.2904 -0.4963 -0.0133
16170TIP3    H169925   4.088   3.259  14.887 -0.2331  1.0814 -0.5185
16170TIP3    H269926   4.234   3.229  14.858 -0.7655  0.0002 -2.2096
16171TIP3   OH269927   3.482   2.515   3.569 -0.4290  0.2757  0.4386
16171TIP3    H169928   3.389   2.498   3.585 -0.4836  1.3452  1.3830
16171TIP3    H269929   3.525   2.493   3.651  0.0464  0.5297  0.2606
16172TIP3   OH269930   5.110   1.326   6.455 -0.2654 -0.5558 -0.2349
16172TIP3    H169931   5.178   1.268   6.420  0.0192 -0.6159  0.4019
16172TIP3    H269932   5.151   1.413   6.453  0.2295 -0.7354  1.1132
16173TIP3   OH269933   5.062   3.670   1.690 -0.0908 -0.2934 -0.3334
16173TIP3    H169934   5.025   3.607   1.629  1.1615  1.1425 -2.7771
16173TIP3    H269935   5.145   3.631   1.718  1.3647  0.6720 -2.9217
16174TIP3   OH269936   0.383   2.080   3.258 -0.2770  0.1340  0.8191
16174TIP3    H169937   0.366   2.024   3.182  0.8795 -0.3344  0.8835
16174TIP3    H269938   0.336   2.037   3.330  1.6415 -1.5367  1.1560
16175TIP3   OH269939   0.035   4.133   3.813 -0.0771  0.3954 -0.9050
16175TIP3    H169940  -0.011   4.050   3.824  0.8138 -0.0484 -0.3820
16175TIP3    H269941   0.061   4.158   3.902 -1.3433  1.8468 -0.9014
16176TIP3   OH269942   3.889   5.323   3.448 -0.2027  0.2241 -0.5826
16176TIP3    H169943   3.853   5.407   3.477  0.5726  0.1412  0.6870
16176TIP3    H269944   3.981   5.340   3.432  0.0562 -0.4576  0.0894
16177TIP3   OH269945   3.963   4.538   5.920  0.6956  0.0987 -0.2620
16177TIP3    H169946   4.037   4.476   5.912 -0.9788 -1.9282 -0.9634
16177TIP3    H269947   3.928   4.521   6.008  0.8768  0.8598 -0.0385
16178TIP3   OH269948   2.666   4.373   1.699 -0.2783 -0.1585 -0.1230
16178TIP3    H169949   2.670   4.466   1.679  0.5435 -0.0976  0.2602
16178TIP3    H269950   2.580   4.360   1.739  0.4366  0.9039  1.9433
16179TIP3   OH269951   6.266   5.308  12.264 -0.1276  0.2298 -0.2909
16179TIP3    H169952   6.173   5.328  12.276 -0.1105  0.5303 -0.6721
16179TIP3    H269953   6.312   5.383  12.301 -0.0759  1.6471 -2.9679
16180TIP3   OH269954   1.035   2.569   6.432 -0.2013 -0.3296  0.2570
16180TIP3    H169955   1.102   2.536   6.372  1.3245  0.2366  1.5962
16180TIP3    H269956   1.053   2.663   6.439 -0.6541 -0.3002  1.2213
16181TIP3   OH269957   0.426   1.666  11.665  0.1665 -0.5959  0.0644
16181TIP3    H169958   0.349   1.714  11.635  1.1642  0.6196 -0.6301
16181TIP3    H269959   0.463   1.628  11.585 -0.2131 -1.9649  0.5160
16182TIP3   OH269960   5.418   1.146   2.805  0.3460  0.2366  0.4507
16182TIP3    H169961   5.472   1.143   2.884  1.3621 -0.9425 -0.2545
16182TIP3    H269962   5.413   1.239   2.783  2.4355  0.3601  0.3261
16183TIP3   OH269963   1.223   1.545  15.629 -0.3976  0.3140  0.0704
16183TIP3    H169964   1.279   1.563  15.554 -3.1544  0.2508 -2.1946
16183TIP3    H269965   1.166   1.622  15.636 -1.6221 -0.6011  0.6771
16184TIP3   OH269966   3.110   5.283  10.970 -0.0008 -0.3824 -0.0824
16184TIP3    H169967   3.067   5.200  10.949  0.4516 -0.5030 -0.5510
16184TIP3    H269968   3.187   5.285  10.913  0.3074  0.0907  0.3484
16185TIP3   OH269969   3.006   3.720  16.221 -0.0620  0.3011 -0.1028
16185TIP3    H169970   2.948   3.676  16.159  1.9367 -2.7766  0.0330
16185TIP3    H269971   2.994   3.673  16.303  1.2207  0.8660  0.4222
16186TIP3   OH269972   4.631   6.451  16.288  0.0153 -0.4441 -0.3056
16186TIP3    H169973   4.698   6.434  16.222 -0.3727  0.0532 -0.8390
16186TIP3    H269974   4.645   6.383  16.354 -0.5505 -1.9082 -1.6426
16187TIP3   OH269975   3.653   6.061  16.253  0.2582  0.7075 -0.5868
16187TIP3    H169976   3.558   6.064  16.262  0.0293 -1.4840 -1.6343
16187TIP3    H269977   3.684   6.143  16.293 -1.8727  0.4029  1.9110
16188TIP3   OH269978   4.463   5.038  11.948 -0.5232 -0.8322  0.3688
16188TIP3    H169979   4.452   5.060  12.041  2.4268  0.2773  0.5971
16188TIP3    H269980   4.505   5.116  11.911  0.6837 -2.2019 -1.2916
16189TIP3   OH269981   4.201   2.978  11.412  0.2652 -0.0723 -0.1147
16189TIP3    H169982   4.186   3.073  11.411 -0.3367 -0.1635 -0.6365
16189TIP3    H269983   4.160   2.948  11.493  0.0286  0.0476 -0.1904
16190TIP3   OH269984   1.236   3.368   5.906 -0.0060 -0.2487 -0.4469
16190TIP3    H169985   1.303   3.306   5.936 -0.1196 -0.5502 -0.8043
16190TIP3    H269986   1.249   3.373   5.811  1.1069  1.5860 -0.2535
16191TIP3   OH269987   3.694   2.069   0.345  0.0459 -0.4195  0.0681
16191TIP3    H169988   3.644   1.995   0.380 -1.9211  0.9632  0.3774
16191TIP3    H269989   3.721   2.118   0.423  0.4300 -0.2580 -0.1667
16192TIP3   OH269990   0.453   4.598  14.487  0.2177  0.4205  0.2010
16192TIP3    H169991   0.430   4.506  14.500 -0.8618  0.5804 -0.4716
16192TIP3    H269992   0.481   4.603  14.396  2.5384  0.3367  0.8382
16193TIP3   OH269993   2.903   4.813   1.654 -0.1397  0.0920  0.8577
16193TIP3    H169994   2.963   4.861   1.596 -1.8189  0.7133 -0.4457
16193TIP3    H269995   2.884   4.875   1.724 -1.9186  1.2647 -0.5655
16194TIP3   OH269996   3.605   0.971   3.746 -0.4265 -0.5320  0.0669
16194TIP3    H169997   3.530   1.029   3.731 -1.0291 -1.0278  1.0602
16194TIP3    H269998   3.616   0.970   3.841  0.9565 -0.3460 -0.0684
16195TIP3   OH269999   1.782   3.763  12.402 -0.4610 -0.2941 -0.5229
16195TIP3    H170000   1.741   3.792  12.483  0.3032 -0.1814 -0.1660
16195TIP3    H270001   1.798   3.845  12.353  2.0061  0.0039  0.6304
16196TIP3   OH270002   3.501   6.125  14.436 -0.5934 -0.6260 -0.1583
16196TIP3    H170003   3.441   6.125  14.362 -1.9054  0.9757  0.8254
16196TIP3    H270004   3.570   6.187  14.411 -0.8092 -0.4059 -0.2105
16197TIP3   OH270005   1.051   0.699  14.622 -0.7830  0.3348 -0.1500
16197TIP3    H170006   0.979   0.747  14.664 -0.4769  2.0876 -1.5219
16197TIP3    H270007   1.116   0.766  14.602  0.8132 -1.0695  0.1201
16198TIP3   OH270008   3.790   0.277   1.482  0.2962 -0.1378 -0.3152
16198TIP3    H170009   3.756   0.367   1.485  0.3796 -0.0366 -1.9210
16198TIP3    H270010   3.811   0.262   1.390  3.0771 -0.7715  0.3300
16199TIP3   OH270011   3.679   2.756  15.483  0.0066  0.4078  0.2277
16199TIP3    H170012   3.636   2.719  15.405  0.1422  0.9961 -0.1392
16199TIP3    H270013   3.764   2.787  15.451  0.9768 -1.2940  1.0849
16200TIP3   OH270014   0.930   5.368   4.976 -0.2108 -0.1084  0.2006
16200TIP3    H170015   0.858   5.310   4.951 -0.6561  1.3909 -2.3642
16200TIP3    H270016   0.994   5.358   4.905 -0.2949  2.4172 -0.3055
16201TIP3   OH270017   6.092   3.987   5.797  0.3361  0.4913  0.0610
16201TIP3    H170018   6.174   4.029   5.772 -0.4097  2.4542  0.7304
16201TIP3    H270019   6.023   4.044   5.762 -0.7834 -1.2572 -0.7375
16202TIP3   OH270020   5.494   2.585  11.164 -0.4599 -0.1323  0.4027
16202TIP3    H170021   5.562   2.526  11.132 -0.6423  0.2929 -0.7990
16202TIP3    H270022   5.416   2.561  11.114  0.3828  3.8287 -3.3507
16203TIP3   OH270023   6.027   1.715   6.753  0.0605  0.4958 -0.3432
16203TIP3    H170024   6.099   1.677   6.704 -0.3662 -1.9870  0.8190
16203TIP3    H270025   6.054   1.805   6.769  1.6394  0.4345 -2.2737
16204TIP3   OH270026   5.206   0.665  16.922 -0.2872 -0.6326  0.1899
16204TIP3    H170027   5.195   0.695  16.831  0.4576 -0.7745  0.0395
16204TIP3    H270028   5.142   0.595  16.932  0.3801 -1.3995 -0.6112
16205TIP3   OH270029   5.940   3.032  14.794  0.8809  0.6724  0.5419
16205TIP3    H170030   6.004   3.097  14.765 -0.5376  1.8797  0.0347
16205TIP3    H270031   5.865   3.083  14.823 -0.3974 -0.7555 -0.1390
16206TIP3   OH270032   6.466   6.394   5.440  0.5819  0.9178  0.2462
16206TIP3    H170033   6.513   6.404   5.358  0.2698 -0.0797 -0.0779
16206TIP3    H270034   6.526   6.427   5.507  1.2804  0.7308 -0.2752
16207TIP3   OH270035   4.340   3.732   4.127  0.4255 -0.1150  0.0188
16207TIP3    H170036   4.378   3.795   4.188  0.4326  0.9705 -1.0674
16207TIP3    H270037   4.415   3.688   4.087  0.5490  1.2372 -1.3063
16208TIP3   OH270038   0.589   5.914   4.512 -0.4844 -0.4344  0.3368
16208TIP3    H170039   0.494   5.913   4.502 -0.5322 -2.1008  0.6586
16208TIP3    H270040   0.622   5.914   4.422 -0.8483 -2.7208  0.1304
16209TIP3   OH270041   4.083   5.035   0.541 -0.3586  0.2113  0.2467
16209TIP3    H170042   4.166   5.078   0.560 -0.4474  0.0637  0.9854
16209TIP3    H270043   4.094   5.000   0.453  0.2195  0.5332  0.1857
16210TIP3   OH270044   3.378   5.245  14.130 -0.2855 -0.9668 -0.1371
16210TIP3    H170045   3.451   5.183  14.127  1.0433  0.5564 -0.7850
16210TIP3    H270046   3.363   5.259  14.223  1.3094 -0.1692  0.0449
16211TIP3   OH270047   6.513   2.161  14.542 -0.0386  0.3364 -0.3473
16211TIP3    H170048   6.551   2.161  14.630  0.0095  0.7323 -0.3655
16211TIP3    H270049   6.520   2.252  14.513 -4.2363  1.3528  1.0564
16212TIP3   OH270050   1.751   3.419   0.538 -0.2902  0.7147  0.2424
16212TIP3    H170051   1.777   3.486   0.474  0.3098 -1.1657 -1.6147
16212TIP3    H270052   1.699   3.357   0.487 -0.2398 -0.5818  1.7080
16213TIP3   OH270053   3.187   3.374  12.525  0.1258  0.0176  0.0189
16213TIP3    H170054   3.243   3.342  12.596 -1.3839 -1.3302  0.6725
16213TIP3    H270055   3.168   3.465  12.547  1.4722  0.2968  0.1260
16214TIP3   OH270056   4.520   4.091  13.503  0.0460  0.0094  0.1500
16214TIP3    H170057   4.531   4.074  13.410  2.3731  0.2205  0.3101
16214TIP3    H270058   4.426   4.100  13.516 -0.3765 -0.7466 -2.0318
16215TIP3   OH270059   2.369   2.155   3.745  0.3635  0.2721 -0.2583
16215TIP3    H170060   2.371   2.139   3.650  2.2631 -0.4292 -0.1501
16215TIP3    H270061   2.419   2.236   3.756  1.1796 -0.2874  0.2324
16216TIP3   OH270062   3.491   3.944  13.674  0.2461 -0.5619  0.0109
16216TIP3    H170063   3.560   3.903  13.620 -0.4894 -0.9077 -0.6918
16216TIP3    H270064   3.460   3.873  13.730 -0.1094 -0.6303 -0.2673
16217TIP3   OH270065   4.598   2.254  15.029  0.0707  0.3721  0.4514
16217TIP3    H170066   4.581   2.330  14.973  0.7332  0.9208  0.9725
16217TIP3    H270067   4.671   2.209  14.986 -1.1858 -0.7471 -0.5886
16218TIP3   OH270068   2.244   3.212   0.218  0.5029  0.6435  0.0681
16218TIP3    H170069   2.215   3.278   0.155  0.9753  2.3137  1.5053
16218TIP3    H270070   2.334   3.238   0.240  0.1491  0.4765  1.8536
16219TIP3   OH270071   6.568   6.310  15.613  0.7905 -0.0657  0.4200
16219TIP3    H170072   6.512   6.240  15.647  0.8349 -0.8897 -1.0938
16219TIP3    H270073   6.565   6.378  15.680 -0.1765 -1.0461  1.4180
16220TIP3   OH270074   6.594   3.476   0.055 -0.0751  0.6900  0.1321
16220TIP3    H170075   6.626   3.522  -0.023  0.9947  1.1726  0.8436
16220TIP3    H270076   6.602   3.383   0.032  1.1025  0.8142  0.0030
16221TIP3   OH270077   5.387   6.603   1.095  0.0360 -0.2289  0.3322
16221TIP3    H170078   5.472   6.611   1.138  1.4563  0.8218 -2.4494
16221TIP3    H270079   5.392   6.521   1.047 -0.1791  0.2238 -0.4847
16222TIP3   OH270080   2.149   3.721   1.038  0.1355 -0.1213  1.1059
16222TIP3    H170081   2.216   3.658   1.012  1.1412  1.3698 -0.1049
16222TIP3    H270082   2.068   3.670   1.042  1.0993 -1.7010  1.2942
16223TIP3   OH270083   2.944   3.554  11.419 -0.3197  0.0706 -0.1299
16223TIP3    H170084   2.988   3.481  11.375 -1.0514  0.1584 -1.0560
16223TIP3    H270085   2.867   3.570  11.365 -0.9070  0.6204  0.8482
16224TIP3   OH270086   2.035   4.200  15.635 -0.1162  0.0878  0.2867
16224TIP3    H170087   2.106   4.137  15.620 -0.0916  0.2596 -0.3461
16224TIP3    H270088   2.068   4.282  15.598 -1.2806 -0.2182 -1.5395
16225TIP3   OH270089   6.194   6.575   3.578  0.7015 -0.0308  0.8897
16225TIP3    H170090   6.240   6.500   3.615  1.8094 -0.9757 -2.1043
16225TIP3    H270091   6.259   6.645   3.579  0.5947  0.0662  1.0967
16226TIP3   OH270092   3.259   6.741  12.250 -0.4746  0.3934  0.0893
16226TIP3    H170093   3.272   6.754  12.344  0.1460  0.7696 -0.0339
16226TIP3    H270094   3.201   6.812  12.224 -1.7376 -0.4939  0.4109
16227TIP3   OH270095   5.658   5.917  13.650 -0.4383 -0.0038  0.2883
16227TIP3    H170096   5.575   5.887  13.688 -1.2036  0.7521 -0.7233
16227TIP3    H270097   5.725   5.863  13.693 -1.4962 -1.0063  0.7429
16228TIP3   OH270098   2.546   4.182  17.289  0.0946  0.0099 -0.1031
16228TIP3    H170099   2.637   4.155  17.274 -0.0448 -0.3906 -0.2323
16228TIP3    H270100   2.546   4.276  17.273  0.3411 -0.0990 -0.7795
16229TIP3   OH270101   0.392   4.276   4.001  0.3733 -0.8791 -0.2626
16229TIP3    H170102   0.385   4.181   4.008  1.9785 -1.0230 -0.2077
16229TIP3    H270103   0.439   4.303   4.080  0.0140 -0.0441 -0.3170
16230TIP3   OH270104   4.927   2.409   5.231 -0.0702 -0.2805  0.4995
16230TIP3    H170105   4.952   2.353   5.157  0.3538 -0.0381  0.4529
16230TIP3    H270106   4.874   2.352   5.287  0.1146 -0.6479  0.3108
16231TIP3   OH270107   5.555   1.861  11.737  0.0589 -0.2746 -0.8326
16231TIP3    H170108   5.607   1.811  11.675  0.3271 -0.1996 -0.6692
16231TIP3    H270109   5.550   1.948  11.698 -0.4323 -0.4338 -1.1309
16232TIP3   OH270110   3.818   2.121   4.210  0.3303 -0.5209  0.4381
16232TIP3    H170111   3.859   2.035   4.201  2.0652  0.1462  1.4564
16232TIP3    H270112   3.777   2.119   4.297 -0.3897 -0.5865  0.1112
16233TIP3   OH270113   3.904   2.161   1.014 -0.9665 -0.0678  0.1005
16233TIP3    H170114   3.979   2.120   0.970 -0.3141  0.2157  0.9225
16233TIP3    H270115   3.890   2.242   0.965 -0.9556 -0.2820 -0.2643
16234TIP3   OH270116   6.252   2.370  16.894 -0.6480  0.0370 -0.2770
16234TIP3    H170117   6.307   2.297  16.923  1.0138  1.4079  0.1862
16234TIP3    H270118   6.266   2.373  16.799  0.5847  0.7251 -0.0974
16235TIP3   OH270119   0.359   1.648  15.572  0.1147 -0.1072 -0.3426
16235TIP3    H170120   0.405   1.565  15.557  0.0118 -0.2004 -0.1476
16235TIP3    H270121   0.297   1.655  15.500 -1.1773 -1.1030  0.6222
16236TIP3   OH270122   0.238   5.107   6.750 -0.0640  0.0163 -0.6458
16236TIP3    H170123   0.188   5.064   6.680  1.2964  0.6755 -2.0834
16236TIP3    H270124   0.294   5.170   6.704 -2.4086  3.9309  1.3182
16237TIP3   OH270125   6.334   4.468  13.574 -0.3278 -0.1017  0.0658
16237TIP3    H170126   6.319   4.550  13.526  0.8127 -0.4726 -0.9767
16237TIP3    H270127   6.255   4.456  13.626 -0.9342  1.1499 -0.5207
16238TIP3   OH270128   5.723   1.499  17.056 -0.3493  0.6946 -0.1929
16238TIP3    H170129   5.700   1.442  16.982  0.7402 -1.5113  1.0637
16238TIP3    H270130   5.771   1.442  17.116 -0.3404  2.6522  1.7812
16239TIP3   OH270131   6.496   2.619   0.418  0.3066 -0.1839  0.0597
16239TIP3    H170132   6.434   2.687   0.446 -0.3436 -0.1446 -1.3289
16239TIP3    H270133   6.489   2.551   0.484  0.5518  0.8515  1.1858
16240TIP3   OH270134   3.077   6.512   1.693  0.1323 -0.4764  0.1201
16240TIP3    H170135   2.987   6.540   1.673  0.0468 -0.3024  0.7337
16240TIP3    H270136   3.075   6.418   1.681  0.0148 -0.4067 -0.4300
16241TIP3   OH270137   2.698   6.276  12.429  0.3481 -0.6736  0.1478
16241TIP3    H170138   2.777   6.264  12.480  0.1675 -0.6638  0.4327
16241TIP3    H270139   2.704   6.366  12.396  0.8449 -0.9426 -0.5147
16242TIP3   OH270140   4.606   5.696   3.018  0.1085  0.4204  0.1647
16242TIP3    H170141   4.680   5.744   3.057  1.5485 -0.7825 -0.9924
16242TIP3    H270142   4.642   5.611   2.994 -1.5956 -0.0894 -0.7485
16243TIP3   OH270143   2.561   1.639   3.488  0.3857 -0.0948  0.2533
16243TIP3    H170144   2.616   1.595   3.424 -0.7141 -1.2291  0.0530
16243TIP3    H270145   2.588   1.602   3.572 -0.5212 -1.1655  0.0874
16244TIP3   OH270146   1.078   0.381  17.320 -0.3442 -0.0268  0.5668
16244TIP3    H170147   1.136   0.306  17.308  1.4181  1.6233 -2.7314
16244TIP3    H270148   0.994   0.352  17.285  0.5047 -0.3393 -1.3451
16245TIP3   OH270149   0.118   0.367  15.905  0.3272  0.0968  0.2939
16245TIP3    H170150   0.047   0.428  15.924 -0.2351 -0.9094  1.5817
16245TIP3    H270151   0.073   0.285  15.883  1.0752 -0.6540  1.4870
16246TIP3   OH270152   4.200   2.531  10.625 -0.3711 -0.2182 -0.0376
16246TIP3    H170153   4.259   2.558  10.554  0.8719  2.9190  1.9779
16246TIP3    H270154   4.128   2.594  10.621 -1.2234 -1.1462  0.3895
16247TIP3   OH270155   2.314   3.328  14.825 -1.1467  0.2763 -0.3347
16247TIP3    H170156   2.349   3.366  14.745 -0.8894 -2.8148 -1.8431
16247TIP3    H270157   2.229   3.292  14.799 -0.6904 -1.5283  0.4524
16248TIP3   OH270158   0.303   3.714  13.040 -0.0875 -0.3441 -0.1720
16248TIP3    H170159   0.378   3.692  12.985  1.2202  1.2076  0.8901
16248TIP3    H270160   0.246   3.637  13.037  0.6877 -0.8773 -2.4148
16249TIP3   OH270161   0.200   2.846   5.569 -0.0589  0.1346 -0.3148
16249TIP3    H170162   0.138   2.916   5.590 -0.5436 -0.3509 -0.1308
16249TIP3    H270163   0.152   2.788   5.510  0.3248 -0.0742 -0.4226
16250TIP3   OH270164   4.006   4.462  16.485 -0.4239  0.0839 -0.4941
16250TIP3    H170165   3.924   4.470  16.436  0.0562  0.7127 -1.1943
16250TIP3    H270166   4.027   4.369  16.481 -1.5118 -0.2325  0.3782
16251TIP3   OH270167   4.595   4.877   3.796 -0.2029  0.5576 -0.1478
16251TIP3    H170168   4.605   4.808   3.861  3.8020  0.0736 -1.0374
16251TIP3    H270169   4.593   4.959   3.846  0.6164  0.0691  0.6952
16252TIP3   OH270170   2.756   2.048  13.484  0.0601  0.6327  0.1012
16252TIP3    H170171   2.682   2.055  13.544 -1.0292  1.2926 -1.2805
16252TIP3    H270172   2.833   2.052  13.541 -0.9312 -0.4148  1.6032
16253TIP3   OH270173   0.703   1.845  16.550  0.5339 -0.4880  0.1805
16253TIP3    H170174   0.730   1.781  16.485 -0.8102 -0.7622 -0.1320
16253TIP3    H270175   0.782   1.896  16.567  0.6173  0.5973 -2.8046
16254TIP3   OH270176   1.144   4.329   3.994 -0.4595 -0.5337  0.1430
16254TIP3    H170177   1.230   4.372   3.992 -0.2673 -0.8822 -2.2583
16254TIP3    H270178   1.087   4.392   4.040  0.6608  0.5340  0.1351
16255TIP3   OH270179   6.362   3.282  17.340 -0.3244 -0.2154 -0.3863
16255TIP3    H170180   6.272   3.276  17.371 -1.1415  1.8873 -2.1060
16255TIP3    H270181   6.391   3.369  17.367  0.6272 -0.2613 -1.2028
16256TIP3   OH270182   4.195   2.795  15.363  0.5194 -0.2053 -0.2048
16256TIP3    H170183   4.281   2.792  15.406  0.7977  0.8558 -0.6525
16256TIP3    H270184   4.189   2.711  15.318  1.2676 -0.3547 -0.0534
16257TIP3   OH270185   1.235   3.230   1.727  0.0116 -0.0402 -0.1234
16257TIP3    H170186   1.288   3.152   1.719  0.2641 -0.1913  2.1884
16257TIP3    H270187   1.146   3.197   1.742  0.1655  0.0663  1.1410
16258TIP3   OH270188   1.579   1.721  16.134  0.3544  0.9347  0.2003
16258TIP3    H170189   1.630   1.766  16.067  0.9032 -0.5672 -0.4331
16258TIP3    H270190   1.616   1.634  16.139 -1.8701 -0.0949  0.0257
16259TIP3   OH270191   1.112   5.190   4.821  0.3708 -0.5982 -0.5809
16259TIP3    H170192   1.067   5.145   4.893 -0.4913 -0.0412 -0.7464
16259TIP3    H270193   1.193   5.141   4.809  1.4200  0.3094  1.9634
16260TIP3   OH270194   4.176   6.232  12.882 -0.3009 -0.1879 -0.3931
16260TIP3    H170195   4.085   6.258  12.896 -0.6021 -0.7167 -1.3107
16260TIP3    H270196   4.225   6.315  12.882 -0.7992  0.1069 -0.0337
16261TIP3   OH270197   2.125   0.768   2.491  0.7159  0.0784 -0.0163
16261TIP3    H170198   2.085   0.750   2.576  0.3412 -0.7645 -0.3511
16261TIP3    H270199   2.192   0.700   2.482  0.7599  0.1711 -0.3843
16262TIP3   OH270200   0.295   1.287   0.180  0.6799  0.1162 -0.1180
16262TIP3    H170201   0.334   1.337   0.110 -0.2169  0.6303 -0.2627
16262TIP3    H270202   0.241   1.221   0.136 -1.0117  1.3200  0.0359
16263TIP3   OH270203   2.334   2.915   5.141  0.6881 -0.3108  0.1011
16263TIP3    H170204   2.388   2.873   5.074  1.1944  1.7374 -0.8563
16263TIP3    H270205   2.325   2.849   5.209  4.9486 -0.6320  0.6446
16264TIP3   OH270206   1.371   2.270   5.186 -0.1467  0.5989  0.1771
16264TIP3    H170207   1.359   2.231   5.100 -1.8800 -1.3966  1.2339
16264TIP3    H270208   1.362   2.364   5.172 -0.2469  0.3307 -1.8107
16265TIP3   OH270209   2.083   0.077  12.427  0.0124 -0.2941  0.4941
16265TIP3    H170210   2.119   0.113  12.508 -0.9369  0.7592  0.4716
16265TIP3    H270211   1.988   0.084  12.437 -0.1469 -0.9050 -0.3831
16266TIP3   OH270212   3.056   4.316   4.106 -0.5964  0.4413 -0.0623
16266TIP3    H170213   3.055   4.300   4.200  1.2605  0.0453 -0.0767
16266TIP3    H270214   2.968   4.291   4.076 -1.0662  0.1562  1.4846
16267TIP3   OH270215   2.709   6.490   0.389 -0.3295 -0.0924  0.4082
16267TIP3    H170216   2.644   6.537   0.338 -0.3787 -0.5586  0.0391
16267TIP3    H270217   2.676   6.494   0.479 -1.9693 -2.0861 -0.0295
16268TIP3   OH270218   5.712   0.370  13.145 -0.2551  0.5670 -0.2432
16268TIP3    H170219   5.789   0.389  13.092 -0.4188 -0.1046 -0.7308
16268TIP3    H270220   5.720   0.277  13.166 -1.2192  0.3541 -0.7750
16269TIP3   OH270221   1.195   3.774   0.403 -0.6404  0.1841 -0.5080
16269TIP3    H170222   1.191   3.681   0.383  0.3335  0.0458 -0.1148
16269TIP3    H270223   1.155   3.817   0.328  1.0802 -0.4186 -1.8350
16270TIP3   OH270224   5.449   5.565   4.327 -0.5961 -0.1938  0.1645
16270TIP3    H170225   5.504   5.499   4.371 -0.9967 -1.0055 -0.5449
16270TIP3    H270226   5.360   5.541   4.350 -0.9658 -1.7710 -2.5428
16271TIP3   OH270227   5.164   1.569  12.658 -0.3668  0.5516  0.0610
16271TIP3    H170228   5.130   1.486  12.692  1.3903 -0.3228 -0.2161
16271TIP3    H270229   5.155   1.561  12.563  2.2097 -0.5112 -0.1753
16272TIP3   OH270230   1.012   4.853  13.460  0.3105  0.0316  0.1567
16272TIP3    H170231   0.951   4.922  13.433  0.9120  0.4943 -0.0598
16272TIP3    H270232   1.031   4.873  13.552 -1.4637 -1.3380  0.8751
16273TIP3   OH270233   4.772   4.511   3.233  0.4934 -0.3401 -0.2366
16273TIP3    H170234   4.746   4.424   3.263  2.1226 -0.8285 -0.1468
16273TIP3    H270235   4.867   4.507   3.225  0.8427  1.9455  1.4801
16274TIP3   OH270236   2.376   0.765   5.462  0.0436 -0.3021  0.4402
16274TIP3    H170237   2.414   0.735   5.544 -0.0755  0.7878  0.9237
16274TIP3    H270238   2.283   0.741   5.468  0.2959 -1.4286  0.0154
16275TIP3   OH270239   0.675   6.388   0.683 -0.1684  0.4266  0.5989
16275TIP3    H170240   0.731   6.394   0.605 -0.0935 -1.2466  0.5011
16275TIP3    H270241   0.727   6.340   0.746 -0.2540  1.7245  1.7005
16276TIP3   OH270242   2.535   0.044   2.478 -0.1129  0.3952  0.2386
16276TIP3    H170243   2.522   0.011   2.389 -0.4338 -1.0927  0.8152
16276TIP3    H270244   2.453   0.089   2.499 -0.2790  0.2044  0.0041
16277TIP3   OH270245   2.879   1.705   3.518 -0.4160  0.1414  0.4365
16277TIP3    H170246   2.957   1.658   3.547 -1.2642  0.0442  2.7931
16277TIP3    H270247   2.822   1.637   3.481  1.5895  0.5566 -4.0216
16278TIP3   OH270248   2.265   0.350  13.578  0.3515  0.1701  0.1406
16278TIP3    H170249   2.195   0.329  13.516  0.8952 -1.0704 -0.0761
16278TIP3    H270250   2.229   0.328  13.664  0.6652 -1.0535 -0.0239
16279TIP3   OH270251   3.743   6.030  12.691 -0.2142 -0.1198  0.2939
16279TIP3    H170252   3.796   6.057  12.766  0.0767  0.3177 -0.0631
16279TIP3    H270253   3.791   6.064  12.615 -1.5994  1.3335  0.0081
16280TIP3   OH270254   5.758   3.694  11.159 -0.2259  0.0160 -0.5256
16280TIP3    H170255   5.687   3.635  11.132 -1.3510  1.3709 -0.6097
16280TIP3    H270256   5.763   3.759  11.089  1.1604 -0.0699 -0.5397
16281TIP3   OH270257   2.443   0.270  12.836  0.0348 -0.2039  0.7470
16281TIP3    H170258   2.426   0.250  12.928 -0.7516 -0.1159  0.6288
16281TIP3    H270259   2.435   0.186  12.792 -1.1003 -0.0115  0.5565
16282TIP3   OH270260   2.867   2.104   0.860  0.3133 -0.3813 -0.3306
16282TIP3    H170261   2.864   2.124   0.766  1.2270  0.9436 -0.0951
16282TIP3    H270262   2.838   2.013   0.865 -2.1613  0.2396 -1.6523
16283TIP3   OH270263   3.160   6.527   0.546 -0.2031  0.0802  0.0235
16283TIP3    H170264   3.191   6.617   0.532 -1.2734  0.3020 -1.0908
16283TIP3    H270265   3.085   6.518   0.488 -1.0352 -1.0720  1.2027
16284TIP3   OH270266   4.296   2.454  11.173  0.0057 -0.0737  0.0781
16284TIP3    H170267   4.295   2.546  11.200 -1.8500 -0.4392  1.4638
16284TIP3    H270268   4.338   2.409  11.246 -0.2478 -0.4779 -0.0250
16285TIP3   OH270269   4.208   6.073  16.533 -0.4599  0.5096 -0.3983
16285TIP3    H170270   4.223   5.982  16.562 -0.9842  1.1492  2.1679
16285TIP3    H270271   4.116   6.088  16.551 -0.6890  1.2063 -2.0167
16286TIP3   OH270272   3.937   6.604   4.245  0.0595 -0.4286 -0.0543
16286TIP3    H170273   3.907   6.513   4.239  2.3047 -1.1886 -0.4915
16286TIP3    H270274   3.917   6.641   4.159 -0.4413 -0.6244 -0.0293
16287TIP3   OH270275   0.046   3.148  12.540 -0.4015  0.2185  0.0366
16287TIP3    H170276   0.045   3.065  12.493  1.6702 -0.3091  0.8401
16287TIP3    H270277   0.025   3.125  12.631 -2.6165  1.0044 -0.2004
16288TIP3   OH270278   1.349   6.398   6.158 -0.0469  0.2820 -0.5882
16288TIP3    H170279   1.352   6.483   6.203  0.9749  0.7070 -1.4069
16288TIP3    H270280   1.302   6.415   6.077 -1.2409 -0.3179 -0.0405
16289TIP3   OH270281   4.385   3.305   6.261 -0.1420  0.1615 -0.2414
16289TIP3    H170282   4.396   3.252   6.340 -1.5130 -1.3851 -1.0197
16289TIP3    H270283   4.315   3.261   6.212 -1.5295  2.8361 -0.8503
16290TIP3   OH270284   4.176   4.060   4.835  0.0113  0.1170  0.8594
16290TIP3    H170285   4.241   4.117   4.794 -0.5174  1.0424  1.2687
16290TIP3    H270286   4.096   4.074   4.784 -0.6690  1.3275  2.1626
16291TIP3   OH270287   3.171   3.553  13.814 -0.2950  0.7104 -0.2196
16291TIP3    H170288   3.246   3.577  13.760  0.4450 -0.9637 -0.0168
16291TIP3    H270289   3.127   3.483  13.765 -1.3385  1.2080 -0.0186
16292TIP3   OH270290   3.959   6.731  12.490  0.0204 -0.5757 -0.8405
16292TIP3    H170291   3.865   6.712  12.494  0.1150 -1.5018 -2.2002
16292TIP3    H270292   3.972   6.803  12.552 -1.5270 -0.6311 -0.4071
16293TIP3   OH270293   0.704   0.855   1.358  0.3320  0.1145 -0.3471
16293TIP3    H170294   0.741   0.841   1.445 -0.7072  0.6583  0.2014
16293TIP3    H270295   0.719   0.772   1.312  0.2687 -0.4332  0.5821
16294TIP3   OH270296   6.489   0.901   5.750 -0.1923 -0.5039  0.2524
16294TIP3    H170297   6.513   0.810   5.738  0.4203  0.0015 -3.4611
16294TIP3    H270298   6.563   0.951   5.716 -1.9318  1.2756 -1.1919
16295TIP3   OH270299   0.949   1.375   1.408 -0.4892 -0.3846  0.0797
16295TIP3    H170300   1.014   1.406   1.344 -0.6492  0.9858  0.5577
16295TIP3    H270301   0.980   1.408   1.492 -1.1254 -0.8291  0.5003
16296TIP3   OH270302   5.273   3.016   3.206 -0.3863  0.0731  0.7567
16296TIP3    H170303   5.363   3.031   3.177 -0.4574 -2.0192 -0.8192
16296TIP3    H270304   5.276   3.026   3.301  1.2821  1.0111  0.6445
16297TIP3   OH270305   0.899   3.711  14.032 -0.0469  0.2149  0.0433
16297TIP3    H170306   0.922   3.801  14.053 -2.1738  0.6588  0.6296
16297TIP3    H270307   0.979   3.674  13.993  1.0601  2.1258  0.4212
16298TIP3   OH270308   3.315   3.770  15.807 -0.0933  0.4159  0.3288
16298TIP3    H170309   3.246   3.706  15.788  0.7162 -0.2167 -0.5494
16298TIP3    H270310   3.393   3.735  15.765  0.6232  1.4562  0.7457
16299TIP3   OH270311   5.814   6.252  12.037  0.6295 -0.2789  0.2722
16299TIP3    H170312   5.829   6.314  11.967  1.6202 -0.8327 -0.0212
16299TIP3    H270313   5.817   6.304  12.117 -0.2170  0.3059 -0.0652
16300TIP3   OH270314   3.196   0.375  12.750 -0.0625 -0.2650  0.2292
16300TIP3    H170315   3.149   0.441  12.698 -0.5134 -0.2055  0.7040
16300TIP3    H270316   3.161   0.291  12.720 -0.5017 -0.2197  0.6000
16301TIP3   OH270317   6.423   0.542  16.007  0.6954 -0.1714  0.5440
16301TIP3    H170318   6.385   0.584  16.084  0.9407  0.1532  0.4882
16301TIP3    H270319   6.369   0.571  15.934 -1.0443 -2.3442  0.8455
16302TIP3   OH270320   0.002   2.122   1.376 -0.6775 -0.0049  0.7696
16302TIP3    H170321  -0.067   2.092   1.435  0.2704  3.2006  3.8879
16302TIP3    H270322  -0.039   2.195   1.328 -0.7158 -1.0592 -0.8835
16303TIP3   OH270323   0.441   5.301  15.718 -0.1950 -0.1356 -0.4737
16303TIP3    H170324   0.461   5.246  15.794  0.4388  1.4772  0.5872
16303TIP3    H270325   0.482   5.256  15.645 -0.9796 -1.8303  0.0781
16304TIP3   OH270326   3.279   6.251   2.360 -0.7824 -0.2595 -0.3288
16304TIP3    H170327   3.302   6.158   2.365 -1.2187 -0.3119  2.3555
16304TIP3    H270328   3.337   6.293   2.423 -2.9778  0.6660  1.2278
16305TIP3   OH270329   5.437   4.819  11.262  0.4008  0.0072 -0.1437
16305TIP3    H170330   5.502   4.844  11.197  0.1335 -0.3020 -0.5302
16305TIP3    H270331   5.358   4.798  11.212  1.0520 -3.2061 -0.0527
16306TIP3   OH270332   5.236   2.596   4.904 -0.5436 -0.4860  0.0464
16306TIP3    H170333   5.201   2.654   4.971 -0.9288 -0.8494  0.1631
16306TIP3    H270334   5.325   2.628   4.888 -0.5393 -0.2439  0.5453
16307TIP3   OH270335   0.425   5.745  14.877 -0.3010 -0.1187  0.0054
16307TIP3    H170336   0.331   5.725  14.881 -0.3918  0.5091  2.7004
16307TIP3    H270337   0.438   5.782  14.789 -2.6507  0.1426 -0.2937
16308TIP3   OH270338   1.447   0.593   1.085  0.0681 -0.4444  0.0737
16308TIP3    H170339   1.425   0.634   1.168  1.0266 -1.1741  0.7018
16308TIP3    H270340   1.364   0.590   1.037 -1.0247 -2.1774  1.9413
16309TIP3   OH270341   3.569   1.808   6.759 -0.1241  0.1361 -0.0681
16309TIP3    H170342   3.540   1.741   6.821  1.2885 -0.6585 -0.2343
16309TIP3    H270343   3.596   1.760   6.681  1.6246  0.7952  0.0759
16310TIP3   OH270344   5.529   3.687  17.373  0.2863  0.4222  0.3590
16310TIP3    H170345   5.474   3.721  17.443 -0.5998 -1.0031  0.3961
16310TIP3    H270346   5.603   3.646  17.417 -1.0878 -1.9490  0.6453
16311TIP3   OH270347   0.380   2.207   2.235  0.0415  0.0553 -0.0545
16311TIP3    H170348   0.462   2.255   2.221 -0.2968  0.2587 -1.5362
16311TIP3    H270349   0.406   2.115   2.236  0.2194  0.0784 -1.2274
16312TIP3   OH270350   4.400   4.810  15.845  1.0677 -0.0700  0.1389
16312TIP3    H170351   4.343   4.742  15.881  2.8566 -2.2405 -0.9303
16312TIP3    H270352   4.353   4.843  15.768  0.2067 -0.0785  0.6453
16313TIP3   OH270353   4.620   5.383   0.927 -0.5839 -0.1432  0.2860
16313TIP3    H170354   4.660   5.297   0.934 -1.4441 -0.5088  0.8526
16313TIP3    H270355   4.614   5.414   1.018 -0.3420  0.4828  0.0939
16314TIP3   OH270356   4.104   6.225  16.741  0.1796 -0.1726 -0.2852
16314TIP3    H170357   4.015   6.242  16.772  0.0693  1.0735 -1.2039
16314TIP3    H270358   4.142   6.168  16.808 -1.3373 -0.8234  0.0628
16315TIP3   OH270359   0.363   0.772  13.291  0.3421 -0.0192 -0.0394
16315TIP3    H170360   0.342   0.816  13.374 -0.4044 -1.1807  0.4027
16315TIP3    H270361   0.306   0.814  13.227 -1.5831 -1.3899  0.6847
16316TIP3   OH270362   2.049   5.066  15.475 -0.2721 -0.3195  0.2770
16316TIP3    H170363   2.095   4.985  15.452 -1.0372 -0.3685 -1.2093
16316TIP3    H270364   1.959   5.051  15.445 -0.5443  0.8874  0.4574
16317TIP3   OH270365   0.449   1.679  14.407  0.0945 -0.2859  0.1829
16317TIP3    H170366   0.493   1.669  14.322  0.0389 -0.8681  0.2194
16317TIP3    H270367   0.429   1.589  14.435  1.3763 -0.1889  1.4870
16318TIP3   OH270368   0.467   0.571   3.290  0.5527 -0.1633 -0.1437
16318TIP3    H170369   0.547   0.556   3.239  0.7754  1.3637 -0.2932
16318TIP3    H270370   0.498   0.582   3.380  0.3880 -0.5793 -0.0309
16319TIP3   OH270371   5.488   1.420  11.970 -0.5597 -0.8895 -0.6912
16319TIP3    H170372   5.447   1.504  11.948 -0.3229 -0.6835 -0.3564
16319TIP3    H270373   5.484   1.369  11.889  0.0067 -0.2629 -1.1253
16320TIP3   OH270374   3.962   6.668   5.645  0.2933 -0.3493  0.1571
16320TIP3    H170375   3.901   6.741   5.651  2.2746  1.3034  1.6679
16320TIP3    H270376   4.046   6.708   5.623  1.2641 -2.3127  0.0116
16321TIP3   OH270377   2.353   2.275  12.843 -0.0077  0.0363 -0.4333
16321TIP3    H170378   2.431   2.318  12.807  0.6363 -1.2429 -0.6590
16321TIP3    H270379   2.389   2.201  12.894 -0.9688  0.8300  1.5008
16322TIP3   OH270380   1.212   1.828  16.447  0.1624 -0.1152 -0.4281
16322TIP3    H170381   1.214   1.872  16.532 -0.0380 -0.3790 -0.2843
16322TIP3    H270382   1.304   1.812  16.426  0.1964 -0.4355 -0.0559
16323TIP3   OH270383   2.811   3.667   1.429  0.1259 -0.0827  0.4305
16323TIP3    H170384   2.717   3.684   1.433  0.1712  0.3287 -0.1483
16323TIP3    H270385   2.848   3.719   1.500  0.1567  1.5878 -0.7417
16324TIP3   OH270386   0.363   0.460  16.554  0.0555  0.1803  0.2049
16324TIP3    H170387   0.453   0.431  16.537  0.4827  0.6501  1.5173
16324TIP3    H270388   0.348   0.531  16.491  1.0682  0.9408  0.7900
16325TIP3   OH270389   4.673   2.568  13.357 -0.7500 -0.3591  0.5513
16325TIP3    H170390   4.752   2.543  13.309  0.6351  0.1156  2.4563
16325TIP3    H270391   4.657   2.495  13.417 -0.1857  0.6340  1.9712
16326TIP3   OH270392   3.466   0.597  11.783 -0.5914  0.6351 -0.0734
16326TIP3    H170393   3.515   0.676  11.806 -0.4056  1.2763 -2.3616
16326TIP3    H270394   3.511   0.526  11.829  0.3141  1.6556  0.6514
16327TIP3   OH270395   5.871   3.891   2.012  1.0574  0.0150 -0.3733
16327TIP3    H170396   5.855   3.797   2.015  0.3680  0.0692 -1.6723
16327TIP3    H270397   5.959   3.901   2.046  0.4694 -0.8998  1.5647
16328TIP3   OH270398   4.992   3.170   0.794 -0.0280  0.3906  0.1599
16328TIP3    H170399   5.025   3.205   0.711 -0.8997 -0.3743 -0.5301
16328TIP3    H270400   5.030   3.227   0.861  1.7783  0.2341 -0.6640
16329TIP3   OH270401   3.244   0.067   4.940  0.0117  0.6377 -0.0739
16329TIP3    H170402   3.268   0.050   4.849 -0.8487  1.4818 -0.4728
16329TIP3    H270403   3.325   0.098   4.981  0.4509  0.0617 -0.4947
16330TIP3   OH270404   2.182   5.071   2.647 -0.7523  0.2367 -0.5413
16330TIP3    H170405   2.213   5.154   2.612 -1.4079 -0.4902 -3.0450
16330TIP3    H270406   2.196   5.008   2.577  0.9798 -2.1410  1.7491
16331TIP3   OH270407   1.324   1.278   1.056 -0.4283 -0.6216  0.2538
16331TIP3    H170408   1.397   1.332   1.085  0.4988 -1.7241  0.0254
16331TIP3    H270409   1.246   1.326   1.084  0.3535  0.8656 -0.0019
16332TIP3   OH270410   2.334   2.858   0.494  0.3759  0.1197 -0.8945
16332TIP3    H170411   2.347   2.926   0.560 -0.4443 -1.1461  0.6408
16332TIP3    H270412   2.404   2.795   0.511 -0.9203 -1.1461  0.0758
16333TIP3   OH270413   6.407   0.975   5.979 -0.0437 -0.7514 -0.3461
16333TIP3    H170414   6.372   0.900   6.026 -3.4421 -0.0500 -1.4710
16333TIP3    H270415   6.438   0.939   5.896 -0.4222 -1.1072 -0.3391
16334TIP3   OH270416   1.825   0.880   0.136  0.2311 -0.7299  0.1664
16334TIP3    H170417   1.768   0.931   0.193 -0.3979  0.6784 -1.6139
16334TIP3    H270418   1.846   0.939   0.064  1.5179 -2.2042 -0.7350
16335TIP3   OH270419   1.575   4.843   1.729 -0.2075  0.2131  0.4501
16335TIP3    H170420   1.652   4.844   1.672 -0.8567 -0.7018 -0.4707
16335TIP3    H270421   1.597   4.904   1.800  1.5792 -0.4412  0.4984
16336TIP3   OH270422   1.873   4.404   2.285 -0.3312  0.3669 -0.0923
16336TIP3    H170423   1.942   4.338   2.291 -0.8830 -0.3992 -1.6200
16336TIP3    H270424   1.914   4.479   2.244 -0.0609  0.4463  0.3174
16337TIP3   OH270425   1.696   1.231  17.357  0.3428  0.3219  0.0183
16337TIP3    H170426   1.607   1.206  17.330 -0.1688 -0.8565  2.5248
16337TIP3    H270427   1.690   1.325  17.371 -0.6632  0.1960  0.5793
16338TIP3   OH270428   2.824   6.606   1.738  0.6508  0.1006 -0.7665
16338TIP3    H170429   2.770   6.540   1.694  0.6558  0.5258 -1.4172
16338TIP3    H270430   2.770   6.637   1.811  0.7107 -0.7293 -0.3545
16339TIP3   OH270431   6.299   1.816  16.028  0.0817 -0.1719  0.4120
16339TIP3    H170432   6.371   1.878  16.012 -1.1374  0.9455 -1.0526
16339TIP3    H270433   6.306   1.753  15.956 -0.0086 -0.4380  0.6370
16340TIP3   OH270434   5.708   4.797   1.954 -0.1175  0.4137  0.0094
16340TIP3    H170435   5.674   4.713   1.923  0.2333  0.4188 -0.4084
16340TIP3    H270436   5.777   4.773   2.016 -1.1094  0.4042  1.1431
16341TIP3   OH270437   0.376   1.625  12.015  0.0133  0.1553 -0.0248
16341TIP3    H170438   0.439   1.697  12.022  0.1926 -0.0406  0.4303
16341TIP3    H270439   0.290   1.668  12.016  0.1149  0.3615  0.3725
16342TIP3   OH270440   2.542   0.156   0.098 -0.2749 -0.1852  0.4950
16342TIP3    H170441   2.574   0.142   0.187  1.1524  3.0858  0.6253
16342TIP3    H270442   2.563   0.247   0.079  0.4448 -1.0273 -3.6052
16343TIP3   OH270443   5.411   6.678   5.820  0.2918 -0.1685  0.3755
16343TIP3    H170444   5.410   6.683   5.916 -0.8346 -0.2328  0.3707
16343TIP3    H270445   5.446   6.590   5.802  1.2562  0.1315  0.7007
16344TIP3   OH270446   3.004   2.634  12.428 -0.2458  0.5570  0.4702
16344TIP3    H170447   3.053   2.552  12.420 -0.9717  0.2381 -0.8893
16344TIP3    H270448   2.972   2.634  12.518 -1.1004 -1.1671  0.1971
16345TIP3   OH270449   4.508   3.506   3.605  0.3314  0.5134  0.3948
16345TIP3    H170450   4.438   3.559   3.645  1.6556  2.3404  0.3942
16345TIP3    H270451   4.581   3.514   3.666  1.4327  0.9354 -0.9448
16346TIP3   OH270452   2.948   0.182  16.733  0.1823  0.6806 -0.1888
16346TIP3    H170453   2.894   0.258  16.715 -0.0432  0.8776  1.1968
16346TIP3    H270454   2.926   0.157  16.823 -0.2343 -1.4214 -0.8109
16347TIP3   OH270455   1.556   3.365   0.231 -0.0306 -0.1823  0.1784
16347TIP3    H170456   1.643   3.330   0.249 -0.8986 -3.0245 -0.7328
16347TIP3    H270457   1.570   3.428   0.160  1.6457  1.8412  2.1433
16348TIP3   OH270458   3.931   3.421  11.503  0.7931  0.2805 -0.5371
16348TIP3    H170459   3.947   3.429  11.409  3.4365 -0.7049 -0.2547
16348TIP3    H270460   3.946   3.509  11.537 -2.1074  1.1470 -1.1518
16349TIP3   OH270461   0.521   1.590   1.256 -0.1673 -0.0769  0.0400
16349TIP3    H170462   0.523   1.566   1.163  0.6983 -1.4561  0.3876
16349TIP3    H270463   0.459   1.530   1.295 -1.3287  1.1823  0.2153
16350TIP3   OH270464   5.708   6.329  16.893 -0.5247  0.2923 -0.0214
16350TIP3    H170465   5.696   6.270  16.818  1.6979  1.2357 -1.2254
16350TIP3    H270466   5.639   6.396  16.882 -0.3600  0.2994 -1.1236
16351TIP3   OH270467   6.317   5.803  12.238 -0.0359 -0.4352 -0.2429
16351TIP3    H170468   6.227   5.810  12.271  0.2518 -2.8799  1.3350
16351TIP3    H270469   6.310   5.822  12.145 -1.7444  1.8629  0.2647
16352TIP3   OH270470   1.895   6.514  13.684 -0.3776  0.5288  0.1484
16352TIP3    H170471   1.803   6.501  13.661 -0.0085 -1.0842 -0.5569
16352TIP3    H270472   1.896   6.517  13.779 -0.8486 -2.8015  0.3816
16353TIP3   OH270473   5.718   1.517  16.523 -0.6213  1.1556 -0.0635
16353TIP3    H170474   5.690   1.584  16.585  0.0000  1.9830 -0.6378
16353TIP3    H270475   5.772   1.565  16.459 -2.4247  0.6401 -2.0878
16354TIP3   OH270476   3.621   3.136   5.717 -0.2938 -1.0857  0.1472
16354TIP3    H170477   3.598   3.068   5.654  0.4981  0.4720 -1.9576
16354TIP3    H270478   3.691   3.185   5.674 -1.2723  1.4502  1.2560
16355TIP3   OH270479   3.347   3.622  14.814  0.7788  0.0459 -0.2288
16355TIP3    H170480   3.341   3.704  14.765  0.1215  0.3033  0.2707
16355TIP3    H270481   3.441   3.613  14.833  0.8497  0.6998 -0.2437
16356TIP3   OH270482   6.676   2.053   5.633 -0.3178 -0.1927  0.6847
16356TIP3    H170483   6.673   2.098   5.717  0.1780 -1.4651  1.4137
16356TIP3    H270484   6.625   2.109   5.574 -2.2475 -0.1588  2.2541
16357TIP3   OH270485   3.112   0.396  12.292  0.6347 -0.3088  0.4756
16357TIP3    H170486   3.071   0.322  12.248  0.9331  0.0185 -0.3753
16357TIP3    H270487   3.203   0.394  12.262  0.7797  0.0862  0.8701
16358TIP3   OH270488   3.515   4.387   1.998 -0.1155  0.3737 -0.5628
16358TIP3    H170489   3.430   4.427   1.983 -0.1308  0.7192  0.3702
16358TIP3    H270490   3.497   4.315   2.058 -0.0031 -0.7135 -1.7778
16359TIP3   OH270491   6.622   1.482  11.710  0.7477 -0.0092 -0.8249
16359TIP3    H170492   6.624   1.396  11.667  2.7743  0.1826 -1.2070
16359TIP3    H270493   6.652   1.464  11.799 -1.9717 -0.1522  0.1800
16360TIP3   OH270494   3.257   5.881   5.134 -0.0015 -0.1506 -0.1862
16360TIP3    H170495   3.296   5.818   5.194 -1.0356  2.8433  4.0800
16360TIP3    H270496   3.331   5.919   5.087  0.7436 -3.2410 -1.7933
16361TIP3   OH270497   4.876   6.334  16.916 -0.3421 -0.5387  0.1664
16361TIP3    H170498   4.816   6.308  16.847  2.2345 -1.5873 -1.8639
16361TIP3    H270499   4.909   6.251  16.952  0.3064 -0.0216  0.8161
16362TIP3   OH270500   0.665   5.414  16.693  0.3652 -0.2080 -0.4052
16362TIP3    H170501   0.696   5.328  16.663 -0.9907 -1.0325  0.4863
16362TIP3    H270502   0.695   5.420  16.783 -0.6008 -0.3032 -0.0637
16363TIP3   OH270503   2.043   4.694  16.803 -0.2577 -0.3740  0.7767
16363TIP3    H170504   2.010   4.783  16.815 -0.0444 -0.2064  0.1710
16363TIP3    H270505   2.055   4.685  16.708 -2.1237 -1.7143  0.6108
16364TIP3   OH270506   3.775   2.422  16.431  0.2284 -0.2828 -0.5426
16364TIP3    H170507   3.798   2.506  16.469 -0.7459 -0.0189 -0.5082
16364TIP3    H270508   3.855   2.369  16.438  0.1594 -0.1840  1.7022
16365TIP3   OH270509   5.715   2.511   2.721 -0.1571  0.1084  0.0627
16365TIP3    H170510   5.695   2.568   2.796  0.6207  1.3580 -0.6440
16365TIP3    H270511   5.657   2.436   2.732 -0.4364  0.5163  1.6275
16366TIP3   OH270512   6.420   0.525   2.200  0.7467 -0.4440  0.0756
16366TIP3    H170513   6.405   0.575   2.280 -0.9312  1.7563 -1.4616
16366TIP3    H270514   6.513   0.501   2.203  1.2031  1.2928  1.7389
16367TIP3   OH270515   4.107   2.312   1.787 -0.0435  0.1741 -0.4718
16367TIP3    H170516   4.154   2.276   1.712  0.1408  0.2670 -0.4020
16367TIP3    H270517   4.125   2.406   1.783 -0.9242  0.3315 -0.9390
16368TIP3   OH270518   5.351   6.181   3.257 -0.1898  0.2355  0.0067
16368TIP3    H170519   5.379   6.238   3.329 -0.0987  0.9717 -0.5952
16368TIP3    H270520   5.295   6.237   3.204  1.3662  0.3367 -1.5991
16369TIP3   OH270521   6.071   3.148  15.834  0.1619 -0.4234  0.3972
16369TIP3    H170522   6.095   3.240  15.822 -0.3355 -0.0504  2.0346
16369TIP3    H270523   6.076   3.110  15.746  0.8474  1.0460 -0.2258
16370TIP3   OH270524   1.685   1.374   4.816 -0.3262 -0.1115  0.2196
16370TIP3    H170525   1.731   1.455   4.793 -0.7560  0.2442  0.5865
16370TIP3    H270526   1.598   1.384   4.776 -0.6962  0.0234  1.0302
16371TIP3   OH270527   1.132   1.646  12.171 -0.0648 -0.0145 -0.6000
16371TIP3    H170528   1.084   1.642  12.088  0.0002  0.2351 -0.6519
16371TIP3    H270529   1.070   1.685  12.233  0.9045  2.8837 -1.2999
16372TIP3   OH270530   1.703   2.576  11.744 -0.6110 -0.0169  0.5069
16372TIP3    H170531   1.743   2.495  11.714  0.6101  1.1760 -1.3091
16372TIP3    H270532   1.757   2.645  11.705 -2.0452  1.6726  1.3643
16373TIP3   OH270533   2.664   6.056  10.823  0.0881  0.1008  0.2477
16373TIP3    H170534   2.698   6.109  10.895  0.4700  1.1470 -0.6660
16373TIP3    H270535   2.572   6.080  10.816  0.7387  2.5094 -1.6314
16374TIP3   OH270536   5.370   4.906   3.930  0.1262 -0.7081 -0.8664
16374TIP3    H170537   5.426   4.835   3.897 -1.3666 -3.1109  1.3880
16374TIP3    H270538   5.285   4.889   3.890  0.1266  0.9203 -1.6450
16375TIP3   OH270539   0.701   3.776   1.328  0.2580  0.2403 -0.1698
16375TIP3    H170540   0.792   3.772   1.357 -0.3888  1.0509  2.1772
16375TIP3    H270541   0.656   3.712   1.383 -0.8627  1.0853 -0.0701
16376TIP3   OH270542   5.766   2.595  15.710  0.4308 -0.2943  0.0984
16376TIP3    H170543   5.755   2.502  15.727 -2.4121 -0.1005 -0.3295
16376TIP3    H270544   5.844   2.600  15.654  0.6303 -2.3873  0.1172
16377TIP3   OH270545   0.561   4.073  12.496  0.3183  0.7096 -0.2962
16377TIP3    H170546   0.639   4.050  12.446 -0.5780  0.5623 -1.6780
16377TIP3    H270547   0.527   4.152  12.453 -1.7909 -0.7459 -1.4943
16378TIP3   OH270548   2.408   0.530  13.751  0.5543  0.1594 -0.1604
16378TIP3    H170549   2.378   0.469  13.684  0.6611  1.5237 -1.4911
16378TIP3    H270550   2.353   0.510  13.827 -1.8628  0.6959 -1.6435
16379TIP3   OH270551   6.620   4.301  16.668  0.3849  0.5342 -0.4344
16379TIP3    H170552   6.643   4.386  16.706 -0.7457  0.4238  0.5621
16379TIP3    H270553   6.701   4.250  16.674  0.3461  0.6181  1.6099
16380TIP3   OH270554   2.181   5.600   0.815 -0.0855 -0.1373 -0.7566
16380TIP3    H170555   2.185   5.679   0.760 -2.4707  0.9463  0.4907
16380TIP3    H270556   2.181   5.528   0.753  1.4935  0.8244 -1.9681
16381TIP3   OH270557   4.307   0.840  12.100  0.6533 -0.3197 -0.4343
16381TIP3    H170558   4.324   0.872  12.188 -0.1462  2.4133 -1.1784
16381TIP3    H270559   4.394   0.825  12.063  1.0645  0.3600  0.2168
16382TIP3   OH270560   3.966   5.754   3.227 -0.1352 -0.3890 -0.3362
16382TIP3    H170561   3.914   5.810   3.284  1.4426  1.0231 -0.2044
16382TIP3    H270562   3.907   5.732   3.154 -1.2635  0.1540  0.3881
16383TIP3   OH270563   4.472   3.662   1.417  0.1472  0.0961  0.4970
16383TIP3    H170564   4.465   3.627   1.328  2.6888  2.7517 -0.9581
16383TIP3    H270565   4.551   3.621   1.453 -1.3623 -1.6585  1.9968
16384TIP3   OH270566   5.393   4.693  11.518 -0.0907  0.1628  0.2657
16384TIP3    H170567   5.394   4.697  11.423  0.0208  1.3140  0.2985
16384TIP3    H270568   5.309   4.653  11.540 -0.9682  1.6264 -0.2943
16385TIP3   OH270569   5.428   3.452   5.128 -0.4968 -0.0166 -0.3535
16385TIP3    H170570   5.454   3.474   5.039  0.5547 -0.1415 -0.0897
16385TIP3    H270571   5.334   3.473   5.132 -0.3049  1.0560 -1.1492
16386TIP3   OH270572   6.531   6.542   2.813  0.6226  0.2070  0.0344
16386TIP3    H170573   6.487   6.579   2.736  1.3319 -1.8767 -1.4613
16386TIP3    H270574   6.524   6.447   2.801 -0.7312 -0.2492  3.4640
16387TIP3   OH270575   2.715   4.567  11.178  0.6775  0.2358 -0.2864
16387TIP3    H170576   2.626   4.585  11.207 -0.1162 -2.0666 -0.9977
16387TIP3    H270577   2.704   4.527  11.091  2.4450  0.4929 -0.6646
16388TIP3   OH270578   6.066   5.013   3.672  0.1296  0.2210 -0.4285
16388TIP3    H170579   6.080   5.099   3.633  1.6308 -0.1817 -0.8367
16388TIP3    H270580   6.086   4.951   3.602 -2.0281 -0.5057 -0.4909
16389TIP3   OH270581   1.343   6.015  13.123  0.0907 -0.5481 -0.2590
16389TIP3    H170582   1.292   5.936  13.143  0.0844 -1.2101 -2.6402
16389TIP3    H270583   1.434   5.987  13.126  0.1542 -0.3075  0.1819
16390TIP3   OH270584   5.147   4.296  12.557  0.0367 -0.0258 -0.3193
16390TIP3    H170585   5.224   4.320  12.609 -0.5905  1.2386  0.0559
16390TIP3    H270586   5.144   4.201  12.562  1.7321 -0.1307 -0.5775
16391TIP3   OH270587   5.600   2.401   4.259 -0.2975  0.0497 -1.0777
16391TIP3    H170588   5.597   2.386   4.353  0.9180  0.5765 -0.9333
16391TIP3    H270589   5.577   2.494   4.249 -0.7636 -0.0892 -1.3387
16392TIP3   OH270590   1.706   4.396   0.422 -0.1179  0.0652  0.1404
16392TIP3    H170591   1.799   4.392   0.401  0.3504  1.2989  1.7552
16392TIP3    H270592   1.682   4.306   0.444  1.4017  0.1160  2.3353
16393TIP3   OH270593   1.321   4.587  12.182 -0.4144  0.1324 -0.4359
16393TIP3    H170594   1.361   4.515  12.133  0.0384  1.2855 -1.8451
16393TIP3    H270595   1.247   4.615  12.126 -1.9203 -0.5867  1.1057
16394TIP3   OH270596   6.040   6.477   1.143 -0.1803  0.0050 -0.5299
16394TIP3    H170597   6.033   6.383   1.161 -1.3285 -0.0510 -1.1145
16394TIP3    H270598   6.104   6.483   1.073 -0.4879 -0.4136 -0.8605
16395TIP3   OH270599   0.705   2.783  13.469 -0.3543 -0.6352 -0.4330
16395TIP3    H170600   0.609   2.787  13.460 -0.3800  2.6080 -0.2220
16395TIP3    H270601   0.724   2.844  13.540  1.8944 -0.6431 -0.9680
16396TIP3   OH270602   4.053   2.111  17.173 -0.3464 -0.1576 -0.3185
16396TIP3    H170603   4.068   2.017  17.179 -0.7670 -0.1525  1.1858
16396TIP3    H270604   4.057   2.142  17.264  0.0041  1.3097 -0.8057
16397TIP3   OH270605   0.955   3.682   2.517  0.0303  0.5153  0.3542
16397TIP3    H170606   0.998   3.691   2.602  0.2619  0.3055  0.2609
16397TIP3    H270607   0.989   3.600   2.482  0.0912  0.7050 -0.0318
16398TIP3   OH270608   6.640   1.337  16.121  0.1378 -0.8278 -0.1377
16398TIP3    H170609   6.583   1.304  16.191 -1.3830 -0.1091 -0.9862
16398TIP3    H270610   6.606   1.295  16.042  0.9974 -0.6014 -0.6362
16399TIP3   OH270611   0.278   2.926   6.444  0.7312 -0.3813  0.6403
16399TIP3    H170612   0.364   2.953   6.414 -0.3597  0.5843 -1.8472
16399TIP3    H270613   0.266   2.838   6.410 -0.0429  0.2753 -0.8885
16400TIP3   OH270614   6.254   0.100   5.294 -0.4726 -0.2150  0.2524
16400TIP3    H170615   6.216   0.079   5.379  1.3952 -2.1221  0.7166
16400TIP3    H270616   6.225   0.030   5.237  0.8252 -0.7149  0.1702
16401TIP3   OH270617   5.993   3.469  16.658 -0.2291 -0.4935  0.1663
16401TIP3    H170618   5.908   3.446  16.696 -0.5429  1.7191  0.9995
16401TIP3    H270619   6.013   3.398  16.598 -3.1471 -0.6107 -0.8050
16402TIP3   OH270620   2.601   2.513  13.762 -0.2072  0.5469 -0.0706
16402TIP3    H170621   2.561   2.468  13.836 -0.1583  2.5708  1.2712
16402TIP3    H270622   2.534   2.576  13.733  0.1741  0.5165 -1.0383
16403TIP3   OH270623   6.746   3.753  12.894  0.7513 -0.0677  0.1300
16403TIP3    H170624   6.818   3.814  12.909  1.4317 -1.1829  1.7799
16403TIP3    H270625   6.715   3.732  12.982 -1.4844  0.2244 -0.5338
16404TIP3   OH270626   6.140   3.880   1.529  0.0704  0.1197  0.5056
16404TIP3    H170627   6.153   3.885   1.434  0.8484  1.3663  0.6449
16404TIP3    H270628   6.160   3.968   1.560 -0.1148 -0.2861  1.8410
16405TIP3   OH270629   2.038   2.674  14.569  0.1104 -0.2183 -0.3707
16405TIP3    H170630   2.124   2.655  14.531 -0.5476 -2.1367 -1.0559
16405TIP3    H270631   1.999   2.587  14.583 -2.1417  0.6113 -1.1095
16406TIP3   OH270632   0.656   6.327  13.562  0.6961 -0.1916  0.1922
16406TIP3    H170633   0.640   6.240  13.599 -0.1400 -0.3386 -0.4824
16406TIP3    H270634   0.640   6.316  13.468  2.1189  0.3263 -0.1449
16407TIP3   OH270635   0.747   2.695  14.263 -0.2399  0.1669 -0.0098
16407TIP3    H170636   0.809   2.635  14.303  1.4571  0.4651 -2.0173
16407TIP3    H270637   0.750   2.675  14.170 -1.6959  1.5300 -0.4050
16408TIP3   OH270638   4.678   1.360   5.259  0.1317  0.1865 -0.0956
16408TIP3    H170639   4.653   1.269   5.241  1.1974 -0.2141  0.3798
16408TIP3    H270640   4.673   1.403   5.173  0.8477 -0.6268 -0.5627
16409TIP3   OH270641   0.554   5.262   4.694  0.2842  0.4901 -0.2161
16409TIP3    H170642   0.641   5.292   4.669  0.5940 -0.7511 -0.6921
16409TIP3    H270643   0.548   5.173   4.660 -1.0791  0.4563  0.0305
16410TIP3   OH270644   3.392   3.163  14.199 -1.3176  0.6719 -0.2473
16410TIP3    H170645   3.481   3.192  14.181 -0.7249 -1.0423 -0.3330
16410TIP3    H270646   3.389   3.148  14.294 -0.9519 -0.8584 -0.4443
16411TIP3   OH270647   5.562   0.303  16.453 -0.0457  0.4031 -0.1039
16411TIP3    H170648   5.553   0.239  16.382 -0.7886 -0.3526  0.6563
16411TIP3    H270649   5.507   0.269  16.523  2.0944  0.1661  1.5506
16412TIP3   OH270650   5.630   2.372  14.471  0.3106 -0.4586  1.1059
16412TIP3    H170651   5.718   2.337  14.456  0.2125 -0.2735  0.0669
16412TIP3    H270652   5.577   2.296  14.495  0.8674 -0.4904  2.2875
16413TIP3   OH270653   6.596   2.318  15.934 -0.2660 -0.1109 -0.0636
16413TIP3    H170654   6.651   2.381  15.888  1.1187 -1.1473  0.1182
16413TIP3    H270655   6.633   2.314  16.023 -0.5002 -0.9713  0.0055
16414TIP3   OH270656   4.797   4.078   0.171 -0.1024  0.2496 -0.1021
16414TIP3    H170657   4.726   4.113   0.225 -0.6112 -1.6211  0.5266
16414TIP3    H270658   4.753   4.022   0.107  0.7751 -0.8504  0.2205
16415TIP3   OH270659   4.670   1.248  16.090  0.2187 -0.0071  0.6169
16415TIP3    H170660   4.604   1.317  16.086  1.1262  0.8150 -1.1090
16415TIP3    H270661   4.701   1.249  16.181  0.1785  1.8247  0.6435
16416TIP3   OH270662   4.591   1.202   1.922 -0.5261 -0.4765 -0.7056
16416TIP3    H170663   4.645   1.130   1.954  1.7595  0.3236 -2.4649
16416TIP3    H270664   4.573   1.255   1.999 -0.4537 -1.8036  0.2524
16417TIP3   OH270665   0.170   5.668   0.625 -0.4652 -0.2781 -0.5655
16417TIP3    H170666   0.232   5.599   0.648  1.2258  1.1842 -0.5184
16417TIP3    H270667   0.086   5.638   0.660  0.6014 -1.4126  1.1674
16418TIP3   OH270668   4.745   3.487   6.152 -0.1386  0.6559 -0.0080
16418TIP3    H170669   4.789   3.523   6.228 -1.7214  0.0232  1.2753
16418TIP3    H270670   4.785   3.401   6.140  0.1631  0.7844  0.0851
16419TIP3   OH270671   5.184   0.715  14.734  0.1053  0.3003 -0.4618
16419TIP3    H170672   5.187   0.811  14.726 -0.8860  0.2506 -1.5477
16419TIP3    H270673   5.206   0.699  14.826  0.8404  1.5339 -0.3947
16420TIP3   OH270674   1.782   3.711   6.229 -0.0859 -0.2228  0.0631
16420TIP3    H170675   1.687   3.703   6.221 -0.0822  0.6041 -1.1505
16420TIP3    H270676   1.797   3.742   6.318 -1.1641  2.1848 -0.5153
16421TIP3   OH270677   3.223   2.121   3.297  0.1302 -0.7878 -0.3139
16421TIP3    H170678   3.260   2.038   3.267  1.4966 -0.8066  1.2636
16421TIP3    H270679   3.129   2.109   3.295  0.3125 -2.5622  0.3441
16422TIP3   OH270680   4.568   6.083  14.686 -0.5111  0.1402  0.2432
16422TIP3    H170681   4.638   6.040  14.734 -0.8509  0.6196  1.1778
16422TIP3    H270682   4.613   6.133  14.618 -0.1053 -1.6210 -0.8454
16423TIP3   OH270683   4.500   3.068   2.204 -0.0879  0.3785 -0.0139
16423TIP3    H170684   4.545   3.003   2.259  0.2831 -0.3583 -1.1634
16423TIP3    H270685   4.474   3.019   2.126 -2.7226  0.8288  0.4955
16424TIP3   OH270686   6.285   3.218  16.612 -0.0753 -0.0158  0.6210
16424TIP3    H170687   6.350   3.170  16.664 -0.5472 -2.1176 -0.6156
16424TIP3    H270688   6.206   3.215  16.665 -0.4166 -1.7010  0.0835
16425TIP3   OH270689   5.582   6.210  11.887  0.1542 -0.4551 -0.1896
16425TIP3    H170690   5.560   6.301  11.872 -0.1242 -0.7424 -1.7186
16425TIP3    H270691   5.671   6.211  11.922 -0.8757  0.5261  2.7491
16426TIP3   OH270692   1.413   6.332   6.524  0.5542 -0.7049 -0.4900
16426TIP3    H170693   1.407   6.266   6.594  1.9797  0.0625  0.4124
16426TIP3    H270694   1.348   6.398   6.548  0.3961 -0.8946 -0.3932
16427TIP3   OH270695   2.176   6.398  11.569  0.0164 -0.3440  0.6800
16427TIP3    H170696   2.101   6.451  11.599 -0.5469 -0.4228 -0.5272
16427TIP3    H270697   2.162   6.312  11.608 -1.6948 -0.9791 -1.1681
16428TIP3   OH270698   0.300   3.315   1.431  1.1689 -0.1261  0.7903
16428TIP3    H170699   0.365   3.265   1.382  1.3796 -0.2790  1.2304
16428TIP3    H270700   0.313   3.405   1.402 -0.6223 -0.5357 -1.6363
16429TIP3   OH270701   2.069   0.007   5.580 -0.2369 -0.0285  0.2470
16429TIP3    H170702   1.991   0.002   5.525 -0.3791 -0.9915  0.5206
16429TIP3    H270703   2.043  -0.035   5.662  1.0804 -2.0617 -0.2961
16430TIP3   OH270704   1.587   1.215  10.680  0.3734 -0.4256  0.2520
16430TIP3    H170705   1.500   1.222  10.641 -0.0116  1.0148  1.3081
16430TIP3    H270706   1.646   1.207  10.605 -0.3033  2.6934 -0.7483
16431TIP3   OH270707   4.159   5.725  13.615  0.3189  0.1951 -0.4927
16431TIP3    H170708   4.105   5.734  13.536 -0.3903  0.2297 -0.0081
16431TIP3    H270709   4.192   5.812  13.631 -0.3899  0.4090 -0.1555
16432TIP3   OH270710   4.907   3.617   6.374 -0.0814 -0.0513  0.1770
16432TIP3    H170711   4.920   3.708   6.400 -0.2327 -0.8699  3.5912
16432TIP3    H270712   4.989   3.593   6.331  0.9629  1.0346  1.4582
16433TIP3   OH270713   5.902   3.196   3.981 -0.0100  0.1992  0.3233
16433TIP3    H170714   5.934   3.148   4.057  1.4534  1.5282  0.5946
16433TIP3    H270715   5.885   3.284   4.013  0.5998  0.7808 -0.8825
16434TIP3   OH270716   1.014   5.344   0.653 -0.0709 -0.3554  0.0941
16434TIP3    H170717   1.022   5.251   0.675 -1.5661 -0.4230  0.4710
16434TIP3    H270718   0.973   5.383   0.731  0.9032  0.6977  0.0974
16435TIP3   OH270719   5.210   2.948  14.001 -0.5106 -0.0611  0.0751
16435TIP3    H170720   5.287   2.959  14.058 -0.6162 -0.7505  0.3620
16435TIP3    H270721   5.233   2.875  13.943 -0.0134  1.2477 -1.4552
16436TIP3   OH270722   4.571   1.105   1.382  0.3244  0.3960  0.1068
16436TIP3    H170723   4.552   1.114   1.476 -1.4164 -0.4212 -0.1183
16436TIP3    H270724   4.576   1.195   1.350 -0.0179  0.6783  0.8186
16437TIP3   OH270725   5.959   4.866   4.604 -0.3939  0.2076  0.7108
16437TIP3    H170726   5.972   4.942   4.547 -1.3351 -0.9641 -1.1797
16437TIP3    H270727   6.040   4.816   4.596 -0.3432  0.2733  0.8011
16438TIP3   OH270728   2.508   2.279  16.602  0.2298  0.7193  0.2404
16438TIP3    H170729   2.498   2.356  16.658  0.4511 -0.1065  1.4734
16438TIP3    H270730   2.509   2.205  16.664  1.3576 -0.1701 -0.7920
16439TIP3   OH270731   1.397   2.684  10.946 -0.5755 -0.2349 -0.2855
16439TIP3    H170732   1.385   2.601  10.901  1.6609 -0.7752 -0.0226
16439TIP3    H270733   1.377   2.665  11.038  3.4363 -1.6318  0.5076
16440TIP3   OH270734   0.458   4.949  13.340 -0.1516 -0.3252 -0.0166
16440TIP3    H170735   0.379   4.969  13.390  1.1239  0.9689  1.6103
16440TIP3    H270736   0.488   4.866  13.376  0.6429  0.4958  1.2923
16441TIP3   OH270737   5.150   1.994   2.754 -0.2650 -0.6576 -0.7570
16441TIP3    H170738   5.158   2.070   2.697 -0.8672  0.9184  1.1257
16441TIP3    H270739   5.073   1.947   2.721 -2.1592  1.5903  0.1371
16442TIP3   OH270740   5.749   1.264   3.776 -0.7662  0.5243  0.7909
16442TIP3    H170741   5.792   1.201   3.834 -0.6162 -0.7519 -0.6465
16442TIP3    H270742   5.659   1.271   3.810 -0.8488 -0.6598  0.8474
16443TIP3   OH270743   6.168   0.370  16.593  0.1763  1.0028  0.1480
16443TIP3    H170744   6.241   0.308  16.591  0.2826  1.1323 -2.3386
16443TIP3    H270745   6.109   0.334  16.659  0.5333 -1.4335 -0.7559
16444TIP3   OH270746   4.600   6.103  12.116  0.3116  0.4169  0.8696
16444TIP3    H170747   4.602   6.196  12.094  1.2634  0.4977  1.2343
16444TIP3    H270748   4.639   6.060  12.040  1.8470  0.5234  1.5696
16445TIP3   OH270749   5.500   0.670  14.190 -0.0831 -0.4278 -0.0538
16445TIP3    H170750   5.528   0.584  14.160 -2.4724 -1.6229  0.8902
16445TIP3    H270751   5.411   0.680  14.156 -0.5022  0.9032  1.2930
16446TIP3   OH270752   4.070   2.537  11.422  0.5111 -0.0705 -0.2384
16446TIP3    H170753   4.047   2.564  11.510 -0.2767 -0.4177 -0.3340
16446TIP3    H270754   4.117   2.611  11.385  3.0295 -0.7766  1.2942
16447TIP3   OH270755   4.366   2.196  13.099 -0.4874 -0.2422 -0.1763
16447TIP3    H170756   4.406   2.181  13.013 -0.1905 -0.2397 -0.0398
16447TIP3    H270757   4.441   2.204  13.159 -0.6831  0.1084  0.0235
16448TIP3   OH270758   5.518   4.737   2.490 -0.6139 -0.5654  0.3881
16448TIP3    H170759   5.514   4.779   2.576 -1.0940  0.6048 -0.1732
16448TIP3    H270760   5.609   4.747   2.463  0.2417 -3.3589  1.8639
16449TIP3   OH270761   3.359   5.676  14.865  0.3828 -0.0534  0.6863
16449TIP3    H170762   3.442   5.700  14.906 -0.0159 -1.0281  2.1164
16449TIP3    H270763   3.295   5.682  14.935 -0.8660  1.0595 -0.4894
16450TIP3   OH270764   3.157   6.355   0.181  0.1075  0.3881  0.2444
16450TIP3    H170765   3.234   6.407   0.157 -1.6093  2.6757 -0.6419
16450TIP3    H270766   3.089   6.420   0.199 -1.5034 -1.5447  1.5150
16451TIP3   OH270767   4.471   1.593  11.741 -0.2841 -0.4014  0.1305
16451TIP3    H170768   4.559   1.595  11.704  0.5315 -0.5402  1.9264
16451TIP3    H270769   4.425   1.665  11.699  1.5337  1.3701  0.9998
16452TIP3   OH270770   2.967   1.140   5.785  0.0888  0.2883  0.0841
16452TIP3    H170771   2.931   1.226   5.809  0.0764  0.0562  0.9332
16452TIP3    H270772   3.058   1.158   5.762 -0.0445  0.6005 -0.2102
16453TIP3   OH270773   2.278   5.134  12.363  0.3459  0.0383 -0.0003
16453TIP3    H170774   2.281   5.138  12.458  1.0212 -0.8218  0.0259
16453TIP3    H270775   2.220   5.060  12.344  1.1975 -0.5796 -0.2335
16454TIP3   OH270776   4.396   0.555  13.860  0.1340 -1.1676  0.1496
16454TIP3    H170777   4.402   0.555  13.955  1.0082 -0.1785  0.1087
16454TIP3    H270778   4.303   0.572  13.842  0.3820  1.3081  0.8539
16455TIP3   OH270779   0.935   3.598   4.764  0.2714 -0.1706  0.1049
16455TIP3    H170780   0.842   3.592   4.786  0.4809  0.3257  1.2183
16455TIP3    H270781   0.941   3.569   4.673 -0.7926 -1.4922  0.4291
16456TIP3   OH270782   6.400   2.374  12.869  0.3969  0.4052 -0.2217
16456TIP3    H170783   6.362   2.293  12.904  0.3012  0.1757 -0.8500
16456TIP3    H270784   6.490   2.374  12.901  0.4261  0.0056 -0.2992
16457TIP3   OH270785   0.234   6.716   0.153 -0.4417 -0.1889 -0.1656
16457TIP3    H170786   0.275   6.712   0.239 -0.5393  0.4789 -0.0784
16457TIP3    H270787   0.154   6.768   0.166  1.0153  2.5113 -1.1789
16458TIP3   OH270788   0.496   0.604  12.875 -0.0882  0.1416  0.4368
16458TIP3    H170789   0.436   0.676  12.857  0.7885  0.7149 -0.2164
16458TIP3    H270790   0.583   0.643  12.874  0.2635 -0.4013  2.7679
16459TIP3   OH270791   3.850   3.980  10.825 -0.3156  0.0552  0.0691
16459TIP3    H170792   3.919   3.914  10.820 -0.6117 -0.2764  0.2404
16459TIP3    H270793   3.881   4.053  10.772 -0.4944 -0.6992 -1.1042
16460TIP3   OH270794   2.267   6.364   2.500 -0.1131  0.2121  0.6636
16460TIP3    H170795   2.288   6.374   2.593 -1.5919 -1.4006  1.2292
16460TIP3    H270796   2.172   6.377   2.496 -0.0505  0.3472 -0.6382
16461TIP3   OH270797   4.463   4.055   1.557  0.0480 -0.2272 -0.1780
16461TIP3    H170798   4.412   3.990   1.509 -0.6535  1.1021 -1.3185
16461TIP3    H270799   4.449   4.137   1.509 -0.2628  1.0884  1.9831
16462TIP3   OH270800   5.884   3.430  16.203  0.2993  0.2685  0.1768
16462TIP3    H170801   5.916   3.343  16.178  1.2431  0.6038  0.1899
16462TIP3    H270802   5.792   3.431  16.174  0.1138 -0.9235  0.6766
16463TIP3   OH270803   0.330   6.485   5.528 -0.4986  0.1788  0.2091
16463TIP3    H170804   0.411   6.434   5.515 -0.2792  0.0641  1.8220
16463TIP3    H270805   0.261   6.429   5.493  0.2170  0.9338 -2.6781
16464TIP3   OH270806   5.106   5.734  12.641 -0.5530  0.4653 -0.1681
16464TIP3    H170807   5.141   5.739  12.552  1.2285  3.5995  0.5519
16464TIP3    H270808   5.059   5.817  12.653  2.4978  2.0073  2.8847
16465TIP3   OH270809   2.898   3.347   5.584  0.3849 -0.5786 -0.0328
16465TIP3    H170810   2.852   3.406   5.643  1.4546 -0.5821  0.8337
16465TIP3    H270811   2.959   3.403   5.536 -0.7582 -0.5089 -1.4637
16466TIP3   OH270812   1.892   1.880   6.475 -0.4024  0.0490 -0.2923
16466TIP3    H170813   1.943   1.801   6.462  0.3678  0.4458  0.2599
16466TIP3    H270814   1.850   1.868   6.561 -0.9054 -0.0854 -0.5491
16467TIP3   OH270815   3.023   4.829  15.526 -0.1581  0.1957  0.5745
16467TIP3    H170816   3.024   4.886  15.450 -2.5459 -0.7044 -0.2364
16467TIP3    H270817   3.103   4.777  15.519  0.9752  1.9512  0.1749
16468TIP3   OH270818   2.373   0.412  15.288  0.2554  0.2127 -0.7593
16468TIP3    H170819   2.440   0.399  15.356  1.7531  1.6484 -1.8809
16468TIP3    H270820   2.294   0.437  15.337  0.7573 -0.6088  0.5352
16469TIP3   OH270821   4.828   5.696   2.774 -0.2546 -0.1025  0.1178
16469TIP3    H170822   4.814   5.617   2.826  0.3466 -0.9124 -0.9073
16469TIP3    H270823   4.892   5.670   2.708 -0.8223  0.9539 -0.8831
16470TIP3   OH270824   3.166   0.023  10.693 -0.5096  0.0753  0.1973
16470TIP3    H170825   3.172  -0.021  10.609 -1.0251  0.6710 -0.1623
16470TIP3    H270826   3.226  -0.025  10.750 -0.7575 -0.8263 -0.2866
16471TIP3   OH270827   4.663   6.391  13.485 -0.4550 -0.3933 -1.0598
16471TIP3    H170828   4.631   6.466  13.435 -0.5159 -0.8788 -1.7643
16471TIP3    H270829   4.746   6.421  13.522 -1.4681  0.7219  0.4009
16472TIP3   OH270830   4.148   5.933  11.985  0.0349 -0.6036 -0.2407
16472TIP3    H170831   4.095   6.007  11.957  0.5882 -0.5662 -1.2303
16472TIP3    H270832   4.085   5.869  12.020 -0.4195  0.4401  0.9148
16473TIP3   OH270833   3.440   1.398  14.141  0.3030  0.3398 -0.6801
16473TIP3    H170834   3.505   1.430  14.203 -0.9751  1.0746  0.3076
16473TIP3    H270835   3.434   1.468  14.075 -1.5268  1.6294  0.7695
16474TIP3   OH270836   3.539   0.332   0.217 -0.4928  0.1468 -0.0898
16474TIP3    H170837   3.586   0.252   0.195  0.0363  0.1997  0.7806
16474TIP3    H270838   3.543   0.385   0.137  0.1699 -0.2177 -0.3091
16475TIP3   OH270839   5.899   6.340  12.832  0.2320 -0.8528  0.2712
16475TIP3    H170840   5.927   6.354  12.742  1.3790 -0.9153  0.6025
16475TIP3    H270841   5.810   6.377  12.836  0.6528  0.3019 -0.5568
16476TIP3   OH270842   2.926   5.430   5.628  0.3415 -0.2675  0.2051
16476TIP3    H170843   2.892   5.489   5.560  1.0050  0.4922  0.5173
16476TIP3    H270844   2.855   5.368   5.643 -0.0075 -0.1469 -0.8277
16477TIP3   OH270845   5.416   5.520   5.297 -0.1604 -0.0204  0.6245
16477TIP3    H170846   5.419   5.613   5.272 -2.0218 -0.1118 -0.0629
16477TIP3    H270847   5.347   5.483   5.242  0.8633 -1.9362  0.5513
16478TIP3   OH270848   4.317   0.064  17.257 -0.1324 -0.1970 -0.0942
16478TIP3    H170849   4.327   0.137  17.195  2.3294 -0.4921 -0.1350
16478TIP3    H270850   4.265  -0.000  17.209  1.0884 -0.1065 -1.6345
16479TIP3   OH270851   6.609   5.130  11.548 -0.2032  0.0314 -0.4730
16479TIP3    H170852   6.641   5.053  11.501  2.5775 -0.7916  2.4110
16479TIP3    H270853   6.626   5.204  11.489  2.1119 -1.0310 -1.2273
16480TIP3   OH270854   6.054   3.229   5.409 -0.1471 -0.0651 -0.1708
16480TIP3    H170855   6.047   3.314   5.365  0.2842  0.0050 -0.1119
16480TIP3    H270856   6.039   3.164   5.341 -0.7197  0.0586 -0.1707
16481TIP3   OH270857   1.933   3.650   2.939  0.2340 -0.5842 -0.3113
16481TIP3    H170858   1.954   3.651   3.032  1.4055 -1.5833 -0.5372
16481TIP3    H270859   1.938   3.558   2.914  2.8440 -0.1086 -1.9439
16482TIP3   OH270860   1.962   2.273   0.390  0.6312  0.3264 -0.1471
16482TIP3    H170861   1.984   2.337   0.457  0.6331 -0.3844  0.5397
16482TIP3    H270862   2.033   2.209   0.392  1.2279  0.9045 -1.6281
16483TIP3   OH270863   1.064   5.429   4.682  0.1144  0.3540 -0.7853
16483TIP3    H170864   1.098   5.347   4.718  1.7210  0.5655 -1.7343
16483TIP3    H270865   1.128   5.454   4.615 -1.0065  1.7333 -1.3844
16484TIP3   OH270866   6.445   4.591  17.016 -0.2039  0.1506 -0.3755
16484TIP3    H170867   6.373   4.651  16.996 -0.1435 -0.1361 -1.4869
16484TIP3    H270868   6.419   4.551  17.099  0.0601  2.1725  0.7584
16485TIP3   OH270869   1.426   2.481   6.517 -0.7238 -0.2386 -0.2503
16485TIP3    H170870   1.387   2.400   6.484 -0.4232 -0.4794 -0.0157
16485TIP3    H270871   1.386   2.550   6.464 -0.2520 -0.6238 -1.1232
16486TIP3   OH270872   0.268   3.447  13.101 -0.2692 -0.3202  0.3177
16486TIP3    H170873   0.218   3.368  13.081  1.6852 -1.5091 -0.1647
16486TIP3    H270874   0.266   3.453  13.197 -0.4062 -0.9680  0.3596
16487TIP3   OH270875   1.994   2.777  11.906 -0.0666 -0.4149  0.4151
16487TIP3    H170876   1.995   2.706  11.842  0.6914 -0.5253  0.5500
16487TIP3    H270877   1.957   2.737  11.985  0.6916 -0.7604  0.6016
16488TIP3   OH270878   5.370   5.218  17.198 -0.0598 -0.1942  0.4972
16488TIP3    H170879   5.330   5.234  17.112  1.3166  1.1785  0.0768
16488TIP3    H270880   5.457   5.184  17.178  0.8140  1.4782  1.2872
16489TIP3   OH270881   5.223   2.288   5.408 -0.0906 -0.5231 -0.6027
16489TIP3    H170882   5.177   2.354   5.356 -0.0961 -1.1104 -1.3599
16489TIP3    H270883   5.256   2.336   5.483  1.2544  0.6854 -1.9034
16490TIP3   OH270884   0.740   2.751  11.566  0.1926  0.1153  0.4108
16490TIP3    H170885   0.759   2.680  11.505 -0.8759  0.3842 -0.2576
16490TIP3    H270886   0.806   2.818  11.547  0.6415 -0.3174  0.4243
16491TIP3   OH270887   6.614   0.430  15.639 -0.1701  0.0869  0.4360
16491TIP3    H170888   6.627   0.481  15.719  0.8429 -0.8036  0.8626
16491TIP3    H270889   6.519   0.423  15.631 -0.2861  0.0732  1.6446
16492TIP3   OH270890   0.556   0.083  17.331  0.6320  0.6570 -0.6158
16492TIP3    H170891   0.618   0.088  17.403  0.7442 -0.6206 -0.5906
16492TIP3    H270892   0.478   0.128  17.363 -0.0714 -1.6420  1.1578
16493TIP3   OH270893   5.212   4.322  16.396  0.0999 -0.3732 -0.1817
16493TIP3    H170894   5.203   4.283  16.483  2.5322 -0.2304  0.2129
16493TIP3    H270895   5.269   4.398  16.410  0.9478 -0.6340 -1.9419
16494TIP3   OH270896   5.517   5.251   3.984 -0.3031 -0.1381 -0.2126
16494TIP3    H170897   5.509   5.339   4.021  0.2736 -0.3644  0.4592
16494TIP3    H270898   5.534   5.265   3.891  0.1467  0.4693 -0.0418
16495TIP3   OH270899   4.422   2.352  12.112 -0.1837  0.1497  0.4385
16495TIP3    H170900   4.456   2.264  12.132 -1.3207 -0.4930 -0.3394
16495TIP3    H270901   4.361   2.370  12.183 -1.1513 -0.3955 -0.2271
16496TIP3   OH270902   1.197   6.348   0.231  0.2377  0.4769 -0.1370
16496TIP3    H170903   1.249   6.406   0.175  0.9408  1.4071  1.4029
16496TIP3    H270904   1.260   6.286   0.266 -0.2176 -0.1716 -0.4515
16497TIP3   OH270905   6.640   0.589  13.504 -0.3200 -0.0740  0.2435
16497TIP3    H170906   6.732   0.592  13.530 -0.3820  1.2533  0.3791
16497TIP3    H270907   6.622   0.676  13.470 -1.0246 -0.8814 -1.5963
16498TIP3   OH270908   5.180   5.541   0.743 -0.1089  0.2181 -0.3815
16498TIP3    H170909   5.217   5.462   0.703 -0.4532  0.3320 -0.9268
16498TIP3    H270910   5.249   5.606   0.736  0.1851 -0.0386  0.0905
16499TIP3   OH270911   5.019   2.964  10.772 -0.2203 -0.3555 -0.4159
16499TIP3    H170912   4.928   2.958  10.801  0.8125 -3.1374  2.8260
16499TIP3    H270913   5.049   3.049  10.805 -1.4062  0.2812 -0.9172
16500TIP3   OH270914   6.143   4.998  12.882  0.2875 -0.3550  0.6713
16500TIP3    H170915   6.111   4.913  12.853 -0.7986 -0.7331  2.8020
16500TIP3    H270916   6.086   5.062  12.839 -0.2891 -0.8158  0.7512
16501TIP3   OH270917   2.199   1.424   4.051  0.2055  0.1861 -0.2607
16501TIP3    H170918   2.120   1.375   4.028 -1.0123  2.0636 -0.2969
16501TIP3    H270919   2.175   1.475   4.128  2.2771 -1.2023  1.4530
16502TIP3   OH270920   2.427   2.812   6.260 -0.4523  0.3244 -0.0478
16502TIP3    H170921   2.354   2.751   6.242  0.2058 -0.2012 -1.0566
16502TIP3    H270922   2.384   2.896   6.277 -1.3087 -0.0203 -0.4205
16503TIP3   OH270923   4.654   0.587   2.003  0.1239 -0.5548  0.3121
16503TIP3    H170924   4.709   0.508   2.003 -0.4216 -1.1771  4.4418
16503TIP3    H270925   4.713   0.657   2.030 -0.2109 -0.4048  0.6677
16504TIP3   OH270926   1.890   5.397  13.951 -0.3851  0.5859 -0.0920
16504TIP3    H170927   1.808   5.348  13.942 -0.5594  0.5286  1.4158
16504TIP3    H270928   1.897   5.413  14.045  0.9469  1.2759 -0.2881
16505TIP3   OH270929   4.871   2.059  14.270 -0.2905  0.1228 -0.6954
16505TIP3    H170930   4.846   1.994  14.336  1.2883 -0.5878 -0.7564
16505TIP3    H270931   4.960   2.084  14.292 -0.5135  1.5542 -1.2753
16506TIP3   OH270932   4.866   3.849  12.622  0.5465  0.3426  0.0007
16506TIP3    H170933   4.880   3.778  12.559 -0.8833  0.5957 -0.6470
16506TIP3    H270934   4.840   3.804  12.703  2.4863  0.0115  0.4775
16507TIP3   OH270935   0.626   5.844  13.585 -0.0923 -0.0331 -0.1192
16507TIP3    H170936   0.540   5.803  13.570  0.1594 -0.0656 -1.6358
16507TIP3    H270937   0.666   5.791  13.653  0.1968 -2.3629 -1.9621
16508TIP3   OH270938   0.378   5.290   2.452 -0.1246 -0.4085 -0.4052
16508TIP3    H170939   0.323   5.359   2.490 -0.6270 -0.2230 -1.4545
16508TIP3    H270940   0.459   5.295   2.503  0.3693  1.8522 -1.2935
16509TIP3   OH270941   3.229   1.145  16.887  0.5838 -0.8972  0.0064
16509TIP3    H170942   3.154   1.204  16.873  0.2494 -0.8195  1.8590
16509TIP3    H270943   3.302   1.190  16.844  0.1442  0.4509  0.5911
16510TIP3   OH270944   5.944   2.967  15.082  0.1515  0.1518  0.1251
16510TIP3    H170945   6.027   2.988  15.125  0.6696 -3.0598  0.9451
16510TIP3    H270946   5.964   2.969  14.988  0.5045  1.6510  0.2140
16511TIP3   OH270947   5.429   3.856   2.089  0.7609 -0.1608 -0.2987
16511TIP3    H170948   5.516   3.819   2.106  1.0734  1.0445  0.8131
16511TIP3    H270949   5.412   3.912   2.164 -0.9680 -0.3267 -0.5453
16512TIP3   OH270950   3.316   3.762   3.231  0.0845  0.3163  0.3522
16512TIP3    H170951   3.242   3.811   3.196  0.2014 -0.2065 -0.6743
16512TIP3    H270952   3.384   3.771   3.165  0.7553  0.3357  1.0288
16513TIP3   OH270953   3.510   5.557  13.094  0.2916 -0.1458 -0.0481
16513TIP3    H170954   3.470   5.532  13.177  2.2075 -1.0107  0.6843
16513TIP3    H270955   3.566   5.632  13.116 -0.8704  1.0489 -1.0396
16514TIP3   OH270956   5.484   1.133  16.000 -0.2660 -0.0670 -0.0028
16514TIP3    H170957   5.575   1.129  15.971 -0.6279 -0.6192 -1.1335
16514TIP3    H270958   5.485   1.093  16.087  0.4160 -1.0658 -0.4479
16515TIP3   OH270959   3.357   6.357   0.914 -0.2738  0.1969  0.4603
16515TIP3    H170960   3.410   6.299   0.969  1.6163 -0.8107 -2.2034
16515TIP3    H270961   3.419   6.422   0.881 -1.3840  0.9108 -0.2548
16516TIP3   OH270962   3.329   0.360   1.082 -0.1040  0.0705 -0.0405
16516TIP3    H170963   3.341   0.318   0.996  0.0619 -1.0899  0.5317
16516TIP3    H270964   3.419   0.375   1.113 -0.1389  1.8281 -0.6737
16517TIP3   OH270965   0.931   3.295  16.460  0.2762 -0.0951  0.0206
16517TIP3    H170966   0.948   3.202  16.447  1.6121 -0.0449  1.1788
16517TIP3    H270967   0.849   3.299  16.508  0.9367 -0.7645  1.2433
16518TIP3   OH270968   0.289   2.413  13.058 -0.0150 -0.0118  0.5192
16518TIP3    H170969   0.212   2.365  13.087 -0.9148  0.9664 -0.1714
16518TIP3    H270970   0.292   2.491  13.114 -0.3356  0.6320 -0.3324
16519TIP3   OH270971   1.712   1.448   4.504  0.3000 -0.1155  0.1476
16519TIP3    H170972   1.769   1.502   4.559 -1.3688  1.8942  0.0224
16519TIP3    H270973   1.676   1.509   4.439 -1.7864 -1.3202  0.0768
16520TIP3   OH270974   5.186   4.736   3.730 -0.1553  0.0604  0.3446
16520TIP3    H170975   5.142   4.715   3.647  0.2194  0.3778  0.0626
16520TIP3    H270976   5.146   4.677   3.793 -1.1529  0.4861  0.1443
16521TIP3   OH270977   5.012   3.488   5.905 -1.0959 -0.8752  0.4240
16521TIP3    H170978   5.086   3.500   5.966 -1.7150  0.5397  0.9416
16521TIP3    H270979   5.051   3.448   5.828  0.7653  2.0776 -0.3234
16522TIP3   OH270980   3.730   4.767   3.704 -0.2149  0.5815  0.2218
16522TIP3    H170981   3.669   4.739   3.772 -2.4238  0.7088 -1.5827
16522TIP3    H270982   3.816   4.760   3.744 -1.3776  0.1111  2.8090
16523TIP3   OH270983   3.698   0.334   6.600  0.4303  0.3802  0.3477
16523TIP3    H170984   3.677   0.256   6.548  1.0617 -0.0456  0.7172
16523TIP3    H270985   3.666   0.407   6.548  1.2700 -0.0210 -0.7642
16524TIP3   OH270986   5.295   5.877   3.162 -0.5343 -0.3457 -0.4964
16524TIP3    H170987   5.344   5.874   3.079  1.8780 -0.9469  0.8599
16524TIP3    H270988   5.246   5.795   3.163  1.3030 -1.5044 -0.3100
16525TIP3   OH270989   3.108   3.192   0.639  0.5764  0.1915  0.2596
16525TIP3    H170990   3.136   3.110   0.678 -0.8843 -0.3727  0.1902
16525TIP3    H270991   3.108   3.176   0.545 -1.2774 -0.3093  0.3031
16526TIP3   OH270992   3.033   6.162  17.153  0.2139  0.2653 -0.1259
16526TIP3    H170993   3.114   6.204  17.123  0.9719 -0.3690  0.9304
16526TIP3    H270994   3.060   6.111  17.230 -0.6397 -2.1911 -1.3519
16527TIP3   OH270995   2.839   3.888  11.387  0.4411  0.2446 -0.1990
16527TIP3    H170996   2.868   3.903  11.297 -1.1839 -0.5290 -0.9018
16527TIP3    H270997   2.823   3.793  11.391 -0.1017  0.3699  0.7081
16528TIP3   OH270998   3.964   1.810   1.501 -0.0477 -0.6854  0.5106
16528TIP3    H170999   4.054   1.778   1.507  0.1219 -0.6772 -1.4503
16528TIP3    H271000   3.954   1.838   1.410 -2.2231 -1.2478  0.5235
16529TIP3   OH271001   6.592   3.065  15.851  0.1558  0.0187  0.1249
16529TIP3    H171002   6.609   3.039  15.942 -0.7566 -0.0270  0.2965
16529TIP3    H271003   6.651   3.011  15.799  0.4365 -0.2075  0.6668
16530TIP3   OH271004   6.578   1.436  14.922 -0.4763  0.2645  1.0543
16530TIP3    H171005   6.499   1.426  14.975 -1.4449  0.9187 -0.1880
16530TIP3    H271006   6.591   1.351  14.881 -1.1411  0.4108  0.5078
16531TIP3   OH271007   1.350   5.750   6.353  0.2797 -0.0751  0.1116
16531TIP3    H171008   1.330   5.751   6.260  2.6959  1.1416 -0.4751
16531TIP3    H271009   1.316   5.832   6.387  1.3357  0.5283 -0.2227
16532TIP3   OH271010   2.936   5.079  10.931 -0.9366  0.1016  0.4547
16532TIP3    H171011   2.901   5.149  10.877 -1.2669  0.5423  1.2205
16532TIP3    H271012   2.920   4.999  10.881 -2.7257  0.3258  0.6216
16533TIP3   OH271013   2.851   0.859  11.698 -0.2466  0.2919 -0.5414
16533TIP3    H171014   2.756   0.850  11.687 -0.2618 -0.5326  0.1207
16533TIP3    H271015   2.867   0.953  11.690 -1.0867  0.4137 -0.9142
16534TIP3   OH271016   4.012   1.113  16.555  0.3587  0.2915  0.3099
16534TIP3    H171017   4.007   1.019  16.537 -0.4267  0.6015 -1.2337
16534TIP3    H271018   3.988   1.121  16.647 -2.1163 -0.8148 -0.1680
16535TIP3   OH271019   6.383   1.668  16.568  0.1659 -0.0228 -0.0290
16535TIP3    H171020   6.400   1.726  16.642  2.3252  1.1086 -1.3089
16535TIP3    H271021   6.288   1.664  16.561 -0.0702  2.9774  0.4324
16536TIP3   OH271022   1.147   0.410   0.925 -0.1008  0.1793  0.0932
16536TIP3    H171023   1.117   0.320   0.939 -2.4830  0.9267  0.1736
16536TIP3    H271024   1.112   0.434   0.839  0.3597  1.0773  0.1482
16537TIP3   OH271025   5.123   3.725  13.520 -0.1776  0.0138  0.0934
16537TIP3    H171026   5.144   3.781  13.445  1.3085 -1.4652 -0.6593
16537TIP3    H271027   5.208   3.693  13.550 -0.8019  0.0382  2.0141
16538TIP3   OH271028   2.053   3.181   4.835  0.1275 -0.4587 -0.3759
16538TIP3    H171029   2.147   3.187   4.816 -0.1955  0.3030 -1.9104
16538TIP3    H271030   2.029   3.092   4.810  0.5834 -0.9208  0.7874
16539TIP3   OH271031   3.169   4.093  14.752 -0.1853  0.0573 -0.3905
16539TIP3    H171032   3.159   4.121  14.842 -0.9891 -0.2262 -0.3871
16539TIP3    H271033   3.102   4.140  14.703 -0.4445 -0.5693 -0.6606
16540TIP3   OH271034   0.715   1.986   5.932  0.0698 -0.4277  0.2158
16540TIP3    H171035   0.676   2.041   6.001  1.2679 -1.4357  1.7555
16540TIP3    H271036   0.809   1.996   5.944  0.3431  0.6055 -2.3392
16541TIP3   OH271037   5.413   3.406   3.053  0.7479  0.0454  0.0536
16541TIP3    H171038   5.429   3.312   3.057  0.1029 -0.0541  0.4807
16541TIP3    H271039   5.393   3.431   3.143  0.3086  0.4777 -0.1588
16542TIP3   OH271040   1.401   5.890   4.193  0.5112  0.1890 -0.0676
16542TIP3    H171041   1.384   5.984   4.193 -0.7509 -0.0098 -1.1148
16542TIP3    H271042   1.388   5.863   4.284 -2.2515  0.5483 -0.2621
16543TIP3   OH271043   3.552   0.142   3.126 -0.1181 -0.2962  0.3933
16543TIP3    H171044   3.561   0.230   3.091 -1.5647  0.2307  1.2527
16543TIP3    H271045   3.640   0.105   3.122 -0.0042  0.0752 -2.7720
16544TIP3   OH271046   0.886   0.844   5.002 -0.6109 -0.2603  0.6313
16544TIP3    H171047   0.920   0.782   4.938  0.9009  0.6259  0.5133
16544TIP3    H271048   0.958   0.857   5.063 -0.4057  2.2782 -0.0377
16545TIP3   OH271049   5.913   2.136   1.243  0.4678  0.1171  0.2812
16545TIP3    H171050   5.984   2.113   1.303  0.9590 -0.7332 -0.5995
16545TIP3    H271051   5.855   2.060   1.245 -0.2012  0.6310  0.6700
16546TIP3   OH271052   5.552   1.277   0.032  0.4474  0.3278  0.0710
16546TIP3    H171053   5.642   1.281   0.065  0.0678 -0.3265  1.2564
16546TIP3    H271054   5.561   1.261  -0.062  1.5640  0.3837  0.1579
16547TIP3   OH271055   4.625   6.691   5.935  0.4443 -0.0462  0.7897
16547TIP3    H171056   4.580   6.639   6.002 -0.0501  0.0399  0.5252
16547TIP3    H271057   4.601   6.781   5.954 -0.9184 -0.1382 -0.4019
16548TIP3   OH271058   4.132   1.502  12.256 -0.1866  0.1014  0.1279
16548TIP3    H171059   4.165   1.591  12.268 -2.8476  1.1185  0.6129
16548TIP3    H271060   4.160   1.454  12.334  0.8809  0.5946  0.0691
16549TIP3   OH271061   5.302   3.459  15.236 -0.0761  0.8335  0.0552
16549TIP3    H171062   5.355   3.431  15.311 -0.0927  0.6989  0.0170
16549TIP3    H271063   5.220   3.411  15.245  0.2676  0.1179 -0.5491
16550TIP3   OH271064   4.246   2.685   0.763  0.0028  0.2556  0.1552
16550TIP3    H171065   4.261   2.655   0.674  1.2368 -0.0317  0.4330
16550TIP3    H271066   4.204   2.612   0.807  2.9442 -1.1903  0.8168
16551TIP3   OH271067   2.040   1.605   3.840  0.1326  0.6526  0.4877
16551TIP3    H171068   2.083   1.645   3.916  0.9106  2.2345 -0.7267
16551TIP3    H271069   2.110   1.594   3.776 -0.2786 -1.7377  0.3588
16552TIP3   OH271070   3.087   1.368   3.316  0.1608 -0.0758 -0.1238
16552TIP3    H171071   3.008   1.416   3.292 -0.6257 -1.7717 -1.0849
16552TIP3    H271072   3.137   1.363   3.235  1.2039  0.8030  0.4292
16553TIP3   OH271073   0.450   6.175   5.153 -0.9596  0.3160  0.1412
16553TIP3    H171074   0.455   6.138   5.065 -2.3349  0.2110  0.0885
16553TIP3    H271075   0.538   6.162   5.189 -0.5413 -0.1706 -0.9937
16554TIP3   OH271076   0.634   0.429   1.805 -0.1154  0.0675  0.6489
16554TIP3    H171077   0.688   0.351   1.812 -1.0136 -0.4546  2.6311
16554TIP3    H271078   0.647   0.475   1.889  0.3798  2.0568 -0.4466
16555TIP3   OH271079   0.428   1.991  16.631  0.7632 -0.1452 -0.4176
16555TIP3    H171080   0.444   2.032  16.546  1.6909 -0.4850 -0.4187
16555TIP3    H271081   0.438   2.062  16.694  2.1139 -0.2770 -0.4413
16556TIP3   OH271082   2.154   0.377  15.675  0.2006 -0.2520  0.4003
16556TIP3    H171083   2.220   0.437  15.709 -1.0086 -0.2735  2.9825
16556TIP3    H271084   2.199   0.293  15.669  0.7561  0.0007  0.9215
16557TIP3   OH271085   4.858   4.913  16.263  0.3435  0.3570 -0.5311
16557TIP3    H171086   4.765   4.927  16.284  0.1141  1.0857 -1.8878
16557TIP3    H271087   4.905   4.975  16.319 -0.1442  1.2987 -1.1261
16558TIP3   OH271088   0.427   6.486   0.721  0.6613  0.5946  0.0583
16558TIP3    H171089   0.514   6.457   0.692  0.6283 -1.3676  1.6713
16558TIP3    H271090   0.370   6.411   0.702 -0.7788  1.9678 -1.2540
16559TIP3   OH271091   4.409   3.472  11.245  0.3458 -0.4477  0.9131
16559TIP3    H171092   4.499   3.441  11.241  0.4038 -0.1888  0.1510
16559TIP3    H271093   4.399   3.505  11.335  1.1506 -0.0447  0.8609
16560TIP3   OH271094   2.760   5.783   3.083  0.0552 -0.5339  0.4078
16560TIP3    H171095   2.754   5.791   2.988  1.4040 -0.4956  0.2976
16560TIP3    H271096   2.767   5.689   3.099 -1.2295 -0.6204  0.5710
16561TIP3   OH271097   0.204   1.959  14.221  0.2280 -0.4647 -0.1073
16561TIP3    H171098   0.112   1.981  14.210 -0.0001 -0.8017  0.9531
16561TIP3    H271099   0.216   1.877  14.174 -0.5300 -1.4929  1.4026
16562TIP3   OH271100   2.051   2.093  13.414  0.2340  0.3095 -0.0105
16562TIP3    H171101   2.096   2.031  13.472  0.1176  0.3482  0.1225
16562TIP3    H271102   2.024   2.040  13.339 -2.0336 -0.3607  1.1979
16563TIP3   OH271103   6.676   6.000  11.023  0.1951  0.2120  0.1492
16563TIP3    H171104   6.585   6.001  10.994 -0.4753  0.3453  2.1000
16563TIP3    H271105   6.670   5.993  11.118  2.2657 -1.9042  0.2066
16564TIP3   OH271106   3.234   2.768  16.672 -0.0079  0.1062  0.0350
16564TIP3    H171107   3.264   2.774  16.762 -0.7638  2.0792  0.2088
16564TIP3    H271108   3.171   2.696  16.673  1.5405 -1.3033  0.5620
16565TIP3   OH271109   0.637   3.901   2.498  0.4362 -0.5332  0.3385
16565TIP3    H171110   0.630   3.989   2.460 -0.1371 -1.1933 -1.1808
16565TIP3    H271111   0.727   3.896   2.530  0.7226  0.3387 -0.2780
16566TIP3   OH271112   6.087   2.874  16.275  0.0844  0.2891 -0.2625
16566TIP3    H171113   6.098   2.958  16.230  0.0224  0.3994 -0.0751
16566TIP3    H271114   6.033   2.822  16.216 -1.3797  1.0033  0.3870
16567TIP3   OH271115   2.852   6.562  12.707  0.0924 -0.0837 -0.1266
16567TIP3    H171116   2.786   6.630  12.695  0.3080  0.1674  0.0957
16567TIP3    H271117   2.907   6.566  12.629  1.6060  1.6688  0.9623
16568TIP3   OH271118   1.597   5.268   0.401 -0.3419 -0.0471  0.3486
16568TIP3    H171119   1.626   5.292   0.314  1.2719  0.1478  0.9164
16568TIP3    H271120   1.620   5.342   0.456 -0.3338 -0.6180  1.1381
16569TIP3   OH271121   2.395   1.928  12.538 -0.5904 -0.1720  0.1253
16569TIP3    H171122   2.317   1.875  12.549 -0.3619 -0.1387  2.2471
16569TIP3    H271123   2.415   1.922  12.444 -2.2553 -1.3777 -0.1978
16570TIP3   OH271124   4.123   3.757   5.996  0.1047 -0.0719 -0.1045
16570TIP3    H171125   4.056   3.727   6.057  0.0991 -0.2702 -0.2071
16570TIP3    H271126   4.100   3.849   5.978  0.0026 -0.0677  0.0498
16571TIP3   OH271127   1.594   0.295  12.446 -0.2124  0.2038 -0.0119
16571TIP3    H171128   1.543   0.342  12.511 -0.8596  2.4846 -2.0015
16571TIP3    H271129   1.529   0.250  12.392  0.2987 -1.4438  0.6706
16572TIP3   OH271130   5.497   5.883  15.187 -0.4157  0.7671 -0.0701
16572TIP3    H171131   5.418   5.838  15.159  0.5650 -0.2986 -1.2842
16572TIP3    H271132   5.532   5.923  15.106 -0.5155  2.5420  0.7220
16573TIP3   OH271133   5.642   1.882  15.403 -0.6597 -0.2114  0.1714
16573TIP3    H171134   5.644   1.803  15.457  0.3144  0.5255  1.2565
16573TIP3    H271135   5.561   1.927  15.428 -0.6258 -0.2847  0.4118
16574TIP3   OH271136   2.320   0.179   3.695  0.3392  0.6838  0.3199
16574TIP3    H171137   2.375   0.233   3.752  0.4547  0.0153  0.8599
16574TIP3    H271138   2.247   0.152   3.750  1.1363 -1.0713  0.5911
16575TIP3   OH271139   2.791   5.236  11.420  0.2234 -0.1200  0.2955
16575TIP3    H171140   2.834   5.186  11.350  0.2004  2.3523 -1.6159
16575TIP3    H271141   2.703   5.198  11.426  0.7507 -1.4223  0.1627
16576TIP3   OH271142   4.668   6.596  13.752  0.4742  0.7367  0.5981
16576TIP3    H171143   4.704   6.616  13.666 -0.1213  1.3647  0.4922
16576TIP3    H271144   4.648   6.681  13.791  0.9534  0.4676  1.4516
16577TIP3   OH271145   3.717   1.371   4.104  0.3193  0.2957  0.1269
16577TIP3    H171146   3.711   1.344   4.012  0.6388 -1.1105  0.4997
16577TIP3    H271147   3.728   1.466   4.100 -2.1574  0.6058 -1.2157
16578TIP3   OH271148   3.305   5.018  16.005  0.3404  0.0719  0.6666
16578TIP3    H171149   3.367   5.057  16.067 -0.4286  2.4447  0.0083
16578TIP3    H271150   3.220   5.049  16.034 -0.1653  0.0464 -0.7557
16579TIP3   OH271151   2.658   3.541   5.391 -0.0969 -0.3591  0.0962
16579TIP3    H171152   2.585   3.587   5.350  0.5641  0.9382  0.3097
16579TIP3    H271153   2.700   3.493   5.319  1.6237  2.6338 -1.0598
16580TIP3   OH271154   4.927   3.637  15.274 -0.0032  0.7059  0.0457
16580TIP3    H171155   4.871   3.641  15.352 -0.2185 -0.8189 -0.0102
16580TIP3    H271156   4.997   3.700  15.292 -2.4365  3.8908 -0.5127
16581TIP3   OH271157   6.451   1.959   0.511 -0.3573 -0.0707 -0.0724
16581TIP3    H171158   6.400   1.956   0.431 -0.3803  1.3690 -0.1308
16581TIP3    H271159   6.387   1.947   0.581 -0.2244 -2.2783 -0.2479
16582TIP3   OH271160   5.211   1.616   2.939  0.3428  0.4980 -0.3142
16582TIP3    H171161   5.287   1.670   2.961 -0.4961  2.0964 -1.1144
16582TIP3    H271162   5.175   1.657   2.860 -1.3787 -0.1723  0.0725
16583TIP3   OH271163   5.984   2.794   1.524 -0.3458 -0.7271 -0.1482
16583TIP3    H171164   6.035   2.752   1.593 -0.1157  0.2021  0.2540
16583TIP3    H271165   5.945   2.721   1.476  0.0519 -1.4022  0.5317
16584TIP3   OH271166   5.130   0.873  15.525 -0.1454  0.0653 -0.2461
16584TIP3    H171167   5.061   0.806  15.524 -0.7520  0.6758  0.1849
16584TIP3    H271168   5.170   0.863  15.612 -1.1954  1.2119  0.3946
16585TIP3   OH271169   4.028   6.350   4.910 -0.5418  0.3025  0.1265
16585TIP3    H171170   4.099   6.323   4.968  0.2455 -1.1762 -1.4525
16585TIP3    H271171   3.999   6.269   4.869 -0.9257  1.3197 -1.6957
16586TIP3   OH271172   3.754   6.589   5.416 -0.2861  0.8465  0.4286
16586TIP3    H171173   3.691   6.545   5.360 -1.3241 -0.1083  2.2385
16586TIP3    H271174   3.709   6.669   5.444 -0.1893  0.8087  0.6973
16587TIP3   OH271175   3.235   2.100   2.075 -0.5682 -0.4488 -0.1503
16587TIP3    H171176   3.310   2.041   2.071 -0.0144  0.3024 -2.3943
16587TIP3    H271177   3.162   2.044   2.101  0.4790 -1.4708  0.7182
16588TIP3   OH271178   6.622   0.328   5.774 -0.2328  0.4927  0.3830
16588TIP3    H171179   6.689   0.260   5.782 -0.4513  0.2372  0.0821
16588TIP3    H271180   6.589   0.341   5.863 -0.2669  0.1225  0.4258
16589TIP3   OH271181   3.935   0.344   4.975  0.2381 -0.5665 -0.4139
16589TIP3    H171182   3.991   0.277   5.014  0.8307  0.6233  0.8792
16589TIP3    H271183   3.879   0.296   4.914 -0.0072 -2.3844  1.1375
16590TIP3   OH271184   5.521   0.595  14.582 -0.0069  0.0685  0.4796
16590TIP3    H171185   5.510   0.592  14.487  0.6485 -0.6373  0.4176
16590TIP3    H271186   5.532   0.688  14.601  0.0865  0.1971 -0.1632
16591TIP3   OH271187   2.374   5.159   5.279 -0.5843  0.1659 -0.3166
16591TIP3    H171188   2.282   5.160   5.252 -0.5348  1.8619 -0.4950
16591TIP3    H271189   2.422   5.192   5.203 -0.0368  1.1644  0.4362
16592TIP3   OH271190   1.021   0.185  14.222 -0.1870 -0.2228  0.0897
16592TIP3    H171191   0.958   0.124  14.261  0.9666 -0.6403  1.4042
16592TIP3    H271192   1.061   0.136  14.150 -0.6397 -0.3159 -0.0994
16593TIP3   OH271193   4.045   0.998   5.205  0.0101 -0.2704 -0.0237
16593TIP3    H171194   4.008   0.930   5.148 -0.1872  0.1546 -0.4037
16593TIP3    H271195   3.978   1.066   5.208  0.3166  0.0267  0.1404
16594TIP3   OH271196   3.167   2.610   1.267  0.5001 -0.2279 -0.4014
16594TIP3    H171197   3.192   2.584   1.356  0.9354 -0.3401 -0.5545
16594TIP3    H271198   3.109   2.541   1.236  0.7922 -0.4671 -0.4102
16595TIP3   OH271199   1.967   1.792   3.026  0.4272  0.1613 -0.2845
16595TIP3    H171200   1.949   1.828   2.939  0.1838 -2.5339 -1.4489
16595TIP3    H271201   1.899   1.829   3.082 -0.6496  0.4298 -1.7026
16596TIP3   OH271202   4.757   5.677   3.695 -0.1592 -0.2978 -0.6023
16596TIP3    H171203   4.721   5.604   3.747  2.3797 -0.0856  1.6399
16596TIP3    H271204   4.751   5.753   3.753 -0.8973  0.9101 -2.1754
16597TIP3   OH271205   6.325   0.852   1.978 -0.2004  0.4336 -0.5484
16597TIP3    H171206   6.394   0.826   2.039 -0.1128  0.4127 -0.6569
16597TIP3    H271207   6.368   0.912   1.917 -1.0606  3.5513  1.6364
16598TIP3   OH271208   1.768   6.582   1.534  0.0010 -0.4445 -0.2952
16598TIP3    H171209   1.723   6.599   1.617 -0.0848 -2.2025  0.0698
16598TIP3    H271210   1.850   6.630   1.540 -1.0416  1.4152 -0.2384
16599TIP3   OH271211   0.658   4.027  14.805  0.0468 -0.1086  0.5161
16599TIP3    H171212   0.742   3.986  14.786  0.7107  2.0618 -1.7272
16599TIP3    H271213   0.671   4.069  14.890  0.9300 -0.5092  0.5931
16600TIP3   OH271214   2.781   0.027  16.139  0.4438  0.3687  0.2579
16600TIP3    H171215   2.809   0.023  16.048  1.4003  0.7795  0.5220
16600TIP3    H271216   2.803  -0.058  16.176  1.9165  0.8593  0.6014
16601TIP3   OH271217   6.132   3.525   1.787  0.2185 -0.3676  0.1803
16601TIP3    H171218   6.118   3.524   1.881  0.6041  3.6188  0.4247
16601TIP3    H271219   6.226   3.512   1.775  0.1511 -0.9977  0.3002
16602TIP3   OH271220   0.259   5.160   2.905 -0.4049 -0.4790  0.0051
16602TIP3    H171221   0.254   5.105   2.827 -1.7713 -0.8581  0.3184
16602TIP3    H271222   0.308   5.238   2.878 -0.2741 -0.9144 -1.0295
16603TIP3   OH271223   6.599   5.328   2.612  0.2779  0.0359 -0.8455
16603TIP3    H171224   6.597   5.314   2.706  1.9913 -0.1766 -0.8026
16603TIP3    H271225   6.539   5.401   2.597  1.2413  1.1931  0.6406
16604TIP3   OH271226   0.014   3.972   5.393  0.6358 -0.6465  0.3605
16604TIP3    H171227  -0.042   3.896   5.374  2.3511 -1.1094 -4.0166
16604TIP3    H271228   0.103   3.937   5.394  1.5136  1.2180 -2.1491
16605TIP3   OH271229   5.986   2.371  15.350  0.6553 -0.1629 -0.0942
16605TIP3    H171230   5.928   2.299  15.325  0.0481  1.0266 -2.3614
16605TIP3    H271231   6.074   2.332  15.349  0.4109 -0.7789 -1.9611
16606TIP3   OH271232   4.969   1.483   2.286 -0.4042 -0.0867 -0.2284
16606TIP3    H171233   4.936   1.554   2.232  1.8604  2.7617  1.8006
16606TIP3    H271234   5.060   1.472   2.258 -0.4226 -1.5494  0.1676
16607TIP3   OH271235   0.692   2.432   0.868 -0.5569  0.5862  0.0358
16607TIP3    H171236   0.640   2.504   0.903 -1.1813 -0.1084  0.5589
16607TIP3    H271237   0.634   2.356   0.872 -0.4375  0.3509 -1.9479
16608TIP3   OH271238   5.364   2.742  14.163 -0.3789 -0.1221  0.1769
16608TIP3    H171239   5.423   2.710  14.231  0.6611  0.7246 -0.2819
16608TIP3    H271240   5.390   2.834  14.151 -0.5215 -0.2571 -1.3425
16609TIP3   OH271241   3.487   0.400  17.339  0.0846 -0.2178  0.0750
16609TIP3    H171242   3.425   0.337  17.302 -1.0262  1.5139 -1.1527
16609TIP3    H271243   3.551   0.415  17.269  0.5811 -0.2775  0.5096
16610TIP3   OH271244   4.508   1.975  15.105 -0.3144  0.9313 -0.2968
16610TIP3    H171245   4.531   2.061  15.139  0.6401  0.4522  0.3071
16610TIP3    H271246   4.415   1.964  15.127 -0.4677  1.8283 -0.4639
16611TIP3   OH271247   1.879   3.408  15.991  0.6849 -0.0188  0.2635
16611TIP3    H171248   1.913   3.344  15.928 -2.3341  0.5628 -2.2292
16611TIP3    H271249   1.793   3.372  16.016  1.1019  0.6227  2.8324
16612TIP3   OH271250   3.819   5.441   4.718 -0.2269 -0.0315  0.5995
16612TIP3    H171251   3.805   5.465   4.626  0.3570 -0.2255  0.4525
16612TIP3    H271252   3.913   5.424   4.723 -0.6348 -2.7187  0.5771
16613TIP3   OH271253   2.156   2.584   3.232 -0.4641 -0.0270 -0.3068
16613TIP3    H171254   2.094   2.528   3.279  0.2310  0.0191  0.6735
16613TIP3    H271255   2.101   2.653   3.194 -1.1949 -0.7714 -0.6674
16614TIP3   OH271256   5.952   5.624  16.965 -0.3941 -0.7208  0.3786
16614TIP3    H171257   5.994   5.665  17.041 -0.6059 -0.3002  0.2696
16614TIP3    H271258   5.899   5.694  16.927  0.7203 -0.5459 -0.9185
16615TIP3   OH271259   1.689   2.974   2.464 -0.0654  0.0785  0.2477
16615TIP3    H171260   1.741   3.020   2.399 -0.8127  0.9734  0.2757
16615TIP3    H271261   1.668   3.040   2.530  1.1378 -0.9261  1.7060
16616TIP3   OH271262   6.447   6.168  12.606 -0.4078 -1.0281  0.7985
16616TIP3    H171263   6.533   6.180  12.647  0.3431  2.2314 -1.2657
16616TIP3    H271264   6.462   6.101  12.539  0.0834 -1.6563  1.5209
16617TIP3   OH271265   2.313   0.450  14.021  0.2161 -0.8503  0.4754
16617TIP3    H171266   2.258   0.407  14.087 -0.0162 -1.8889 -0.3702
16617TIP3    H271267   2.395   0.469  14.067  0.1855 -1.8857  0.9897
16618TIP3   OH271268   2.463   0.740  14.398  0.1434  0.5153  0.3334
16618TIP3    H171269   2.374   0.763  14.425  0.4277  3.2804 -0.7286
16618TIP3    H271270   2.478   0.654  14.436 -2.6912  0.2959  1.1953
16619TIP3   OH271271   6.381   2.778  15.294 -0.4522 -0.0330  0.4628
16619TIP3    H171272   6.362   2.736  15.377 -0.2795  0.0170  0.5288
16619TIP3    H271273   6.457   2.731  15.260 -0.6496 -0.1871  0.2363
16620TIP3   OH271274   5.406   1.128   0.959 -0.5712 -0.6190 -0.5467
16620TIP3    H171275   5.352   1.071   1.013 -1.2673 -0.6157 -1.2249
16620TIP3    H271276   5.350   1.153   0.886 -0.0706  0.4119 -0.6030
16621TIP3   OH271277   1.582   1.849  14.256 -0.0774 -0.0405 -0.5664
16621TIP3    H171278   1.600   1.858  14.350  1.0043  0.1320 -0.7787
16621TIP3    H271279   1.555   1.758  14.245  0.3235 -0.2140 -0.1594
16622TIP3   OH271280   3.064   2.159   1.192 -0.1202 -0.3934  0.3530
16622TIP3    H171281   3.025   2.121   1.271  1.1088 -0.7334  0.8237
16622TIP3    H271282   3.033   2.250   1.191  0.2548 -0.2376  1.5189
16623TIP3   OH271283   5.327   1.742   5.718  0.1706  0.5699  0.6119
16623TIP3    H171284   5.241   1.780   5.736 -0.7068 -0.9920 -0.0795
16623TIP3    H271285   5.387   1.817   5.721 -1.5838  2.2548 -1.7710
16624TIP3   OH271286   6.429   5.881  11.663  0.3876 -0.2942  0.1873
16624TIP3    H171287   6.514   5.881  11.706  0.8901  1.2387 -0.7035
16624TIP3    H271288   6.447   5.855  11.573  0.2533  1.7828 -0.4960
16625TIP3   OH271289   1.544   2.115   5.854 -0.1561  0.0945  0.0155
16625TIP3    H171290   1.545   2.111   5.758  1.6411  2.6176 -0.1721
16625TIP3    H271291   1.629   2.153   5.877 -0.3561 -0.9096  2.6585
16626TIP3   OH271292   1.765   4.166  16.745  0.6551 -0.1635 -0.6238
16626TIP3    H171293   1.806   4.211  16.670  0.8495  0.2151 -0.2950
16626TIP3    H271294   1.808   4.081  16.748 -0.0185 -0.5597 -1.5188
16627TIP3   OH271295   2.093   3.187  14.523 -0.2265  0.0226 -0.2111
16627TIP3    H171296   2.034   3.118  14.553 -1.4311  0.3851 -1.6543
16627TIP3    H271297   2.072   3.262  14.578 -1.2235  0.1914 -0.8130
16628TIP3   OH271298   0.051   1.095   2.862 -0.2001 -0.0108 -0.3987
16628TIP3    H171299   0.085   1.017   2.906  0.2610  0.2050 -0.3637
16628TIP3    H271300   0.098   1.098   2.779  0.3068  0.6167 -0.0967
16629TIP3   OH271301   3.317   1.759  10.786  0.1724  0.3813 -0.3779
16629TIP3    H171302   3.291   1.838  10.833 -2.2609 -0.3126 -0.4498
16629TIP3    H271303   3.266   1.689  10.826  1.6908 -1.0640 -0.8416
16630TIP3   OH271304   4.433   5.931   2.820  0.3056 -0.8102  0.1737
16630TIP3    H171305   4.514   5.951   2.868  1.1909 -0.2127 -1.5180
16630TIP3    H271306   4.383   6.012   2.823  1.3266 -0.0642 -1.7153
16631TIP3   OH271307   6.185   6.155  12.835  0.2916  0.2633  0.0659
16631TIP3    H171308   6.255   6.092  12.852  0.3360  0.5604  1.0589
16631TIP3    H271309   6.206   6.230  12.891 -0.0976  0.9102 -0.6343
16632TIP3   OH271310   6.586   0.137   5.285  0.1911  0.6595  0.6516
16632TIP3    H171311   6.549   0.191   5.355  0.7656  1.0522  0.6632
16632TIP3    H271312   6.511   0.096   5.244 -0.1399  0.2342  1.6508
16633TIP3   OH271313   2.127   2.288  16.041 -0.4143  0.2157 -0.4075
16633TIP3    H171314   2.155   2.337  15.964 -0.4437 -2.0618 -1.9920
16633TIP3    H271315   2.198   2.300  16.105  1.0356 -0.1119 -1.8834
16634TIP3   OH271316   3.006   4.558   5.108 -0.4025 -0.1258 -0.7402
16634TIP3    H171317   3.019   4.585   5.017  1.4012  0.5692 -0.3253
16634TIP3    H271318   3.092   4.526   5.136 -0.3798  1.4955  1.2796
16635TIP3   OH271319   0.286   1.977   0.470  0.1828 -0.2385 -0.1734
16635TIP3    H171320   0.346   1.902   0.460 -0.3943 -0.6288 -0.7964
16635TIP3    H271321   0.203   1.938   0.496  0.0359  0.2460  0.0867
16636TIP3   OH271322   5.591   0.018   2.118 -0.1503  1.1698  0.1388
16636TIP3    H171323   5.607  -0.044   2.189  1.3227 -0.8402 -1.8221
16636TIP3    H271324   5.512  -0.016   2.074  0.2581  1.0507 -0.5223
16637TIP3   OH271325   0.931   6.247   2.309 -0.1156  0.6156  0.2105
16637TIP3    H171326   0.900   6.168   2.265  0.2072  1.1202 -0.9605
16637TIP3    H271327   0.851   6.295   2.329 -0.2579  0.4692  0.0018
16638TIP3   OH271328   2.023   0.553  12.735  0.2032  0.7544 -0.0857
16638TIP3    H171329   2.097   0.585  12.682  1.2251  0.2956  1.0228
16638TIP3    H271330   2.064   0.507  12.808 -1.2108 -0.2884  0.0828
16639TIP3   OH271331   3.310   4.129   4.102  0.6123 -0.0782  0.3120
16639TIP3    H171332   3.240   4.160   4.160  0.2120  0.3809 -0.3923
16639TIP3    H271333   3.323   4.038   4.126 -0.9642 -0.4724 -0.2210
16640TIP3   OH271334   5.072   4.137   5.175  0.3979 -0.3578  0.0214
16640TIP3    H171335   5.085   4.190   5.096 -0.2515 -1.1773 -0.6666
16640TIP3    H271336   5.092   4.048   5.147 -0.7340 -0.7884  0.5281
16641TIP3   OH271337   1.045   3.784   3.470 -0.6057  0.2207  0.4144
16641TIP3    H171338   0.953   3.763   3.481 -0.7005 -0.9199 -1.9252
16641TIP3    H271339   1.059   3.861   3.524 -2.3925 -0.7862  2.4648
16642TIP3   OH271340   0.283   6.074  14.027 -0.3828  0.2131  0.5434
16642TIP3    H171341   0.360   6.124  13.999 -0.9255  1.6122  1.4469
16642TIP3    H271342   0.319   5.993  14.063  0.7860  1.2751  1.8866
16643TIP3   OH271343   5.183   1.765  16.137  0.0278 -0.2265  0.2966
16643TIP3    H171344   5.150   1.852  16.161  0.4672  0.6852 -2.0486
16643TIP3    H271345   5.277   1.777  16.128  0.0917 -0.9428 -0.0376
16644TIP3   OH271346   1.945   4.906   3.669 -0.1080  0.1226  0.0726
16644TIP3    H171347   1.943   4.874   3.579  0.4256 -1.4604  0.5753
16644TIP3    H271348   1.858   4.885   3.704 -0.1752  0.3561  0.0464
16645TIP3   OH271349   4.728   1.104  16.695  0.5209 -0.3246 -0.0041
16645TIP3    H171350   4.683   1.093  16.611  0.1069  3.6231 -0.4495
16645TIP3    H271351   4.812   1.142  16.672  0.5430  0.4731  1.3507
16646TIP3   OH271352   1.833   2.311   1.085 -0.4650  0.4947  0.3129
16646TIP3    H171353   1.806   2.363   1.160 -1.2192  1.7088 -0.7621
16646TIP3    H271354   1.855   2.375   1.017  2.6861 -0.4741  0.2408
16647TIP3   OH271355   4.696   6.092  14.025 -0.5921  0.5415 -0.2227
16647TIP3    H171356   4.784   6.088  13.987 -0.3028  1.5318  0.2992
16647TIP3    H271357   4.642   6.132  13.957 -0.8993 -1.0448 -0.9559
16648TIP3   OH271358   4.263   0.078  15.637  0.0393  0.4286  0.1215
16648TIP3    H171359   4.210   0.060  15.560 -0.5497  1.4621  0.2705
16648TIP3    H271360   4.346   0.109  15.603 -0.8978  2.8546 -0.1484
16649TIP3   OH271361   5.642   1.447   0.322 -0.8176 -0.1580 -0.6752
16649TIP3    H171362   5.628   1.446   0.417  0.7633 -2.5691 -0.3768
16649TIP3    H271363   5.737   1.448   0.312 -0.9706  0.8531 -2.2845
16650TIP3   OH271364   4.241   0.678  16.348 -0.2364 -0.7413 -0.8962
16650TIP3    H171365   4.161   0.645  16.308 -0.2189  0.4029 -1.9308
16650TIP3    H271366   4.292   0.712  16.275  0.4785  0.0231 -0.0670
16651TIP3   OH271367   4.850   0.671   2.223  0.0359 -0.0344  0.3510
16651TIP3    H171368   4.830   0.763   2.204 -0.0670 -0.5065 -2.2186
16651TIP3    H271369   4.932   0.655   2.176  0.7060 -0.9741  1.7702
16652TIP3   OH271370   1.253   1.407   1.686  0.3475  0.1173  0.8497
16652TIP3    H171371   1.247   1.360   1.602 -1.1866  4.3946 -1.7526
16652TIP3    H271372   1.347   1.409   1.705  0.5068 -4.1924  1.4969
16653TIP3   OH271373   0.499   1.863   4.251 -0.1703  0.2244  0.1613
16653TIP3    H171374   0.403   1.861   4.245 -0.2250 -1.0841  1.0746
16653TIP3    H271375   0.528   1.812   4.176 -0.3122 -1.8122  1.4284
16654TIP3   OH271376   4.185   3.065   5.772 -0.0516  0.3968  0.2408
16654TIP3    H171377   4.256   3.007   5.746  0.3572  1.2591 -0.6087
16654TIP3    H271378   4.117   3.052   5.706 -1.2922 -1.4130  1.7672
16655TIP3   OH271379   1.011   4.531  11.171  0.2369 -0.1512 -0.8529
16655TIP3    H171380   1.049   4.589  11.105  0.5565 -1.0674 -1.4998
16655TIP3    H271381   1.059   4.551  11.251  0.8995 -0.0838 -1.2599
16656TIP3   OH271382   2.137   0.926  14.152 -0.5918 -0.0152 -0.0297
16656TIP3    H171383   2.222   0.889  14.174 -1.4385 -1.6936  0.6228
16656TIP3    H271384   2.157   1.009  14.109  1.3654 -0.4773 -0.1044
16657TIP3   OH271385   6.723   6.485   4.426  0.3191  0.3777  0.7446
16657TIP3    H171386   6.721   6.401   4.471  1.6744  0.9206  1.9160
16657TIP3    H271387   6.707   6.549   4.496 -1.2223  1.0858 -0.2067
16658TIP3   OH271388   5.207   2.461   2.741  0.0714  0.2880 -0.0823
16658TIP3    H171389   5.196   2.510   2.822 -0.2790  0.9215 -0.5035
16658TIP3    H271390   5.209   2.528   2.673  1.1239 -0.1850 -0.5346
16659TIP3   OH271391   3.625   2.903   2.916  0.1964  0.3358  0.2858
16659TIP3    H171392   3.632   2.816   2.955 -1.5219 -0.6850 -1.5125
16659TIP3    H271393   3.658   2.893   2.827 -1.0282  1.2438 -0.3003
16660TIP3   OH271394   3.521   5.792  16.405 -0.2880 -0.1700 -0.2016
16660TIP3    H171395   3.470   5.863  16.365  0.5731  0.4917 -0.1757
16660TIP3    H271396   3.572   5.835  16.474 -0.8066 -1.0815  0.7821
16661TIP3   OH271397   5.427   3.889  15.853 -0.5507 -0.8838 -0.2441
16661TIP3    H171398   5.477   3.877  15.773  0.6158  1.4744  0.0446
16661TIP3    H271399   5.376   3.968  15.838 -0.0804 -0.2146  1.4174
16662TIP3   OH271400   6.664   5.493   2.091 -0.0489 -0.3457 -0.4907
16662TIP3    H171401   6.670   5.398   2.080 -2.4173 -0.7364  0.8505
16662TIP3    H271402   6.746   5.527   2.056  1.1037 -2.9281 -0.4917
16663TIP3   OH271403   6.283   4.921   5.820 -0.1897  0.3487 -0.7632
16663TIP3    H171404   6.362   4.911   5.873 -0.7235 -1.1878 -0.2090
16663TIP3    H271405   6.307   4.888   5.734 -0.0429  0.5061 -0.7833
16664TIP3   OH271406   5.640   3.242  10.528 -0.2115  0.1774  0.0118
16664TIP3    H171407   5.666   3.156  10.562 -0.6175 -0.4772 -1.2468
16664TIP3    H271408   5.603   3.288  10.604 -0.8021 -1.0993  0.5315
16665TIP3   OH271409   3.294   0.951   4.931  0.0460 -0.2232 -0.2400
16665TIP3    H171410   3.329   0.901   4.858 -0.3766 -2.5001  1.0376
16665TIP3    H271411   3.278   0.887   5.000  1.9330  1.9951  2.4941
16666TIP3   OH271412   2.403   6.669   4.829  0.1874  0.0174  0.3484
16666TIP3    H171413   2.319   6.715   4.817  0.1855 -0.1120 -0.1854
16666TIP3    H271414   2.439   6.705   4.909 -0.6130 -0.2770  0.8552
16667TIP3   OH271415   2.453   0.981   0.443  0.8378  0.2581  0.1307
16667TIP3    H171416   2.539   0.990   0.402  0.0177 -0.5194 -1.8919
16667TIP3    H271417   2.448   0.889   0.467 -0.2392 -0.2227 -1.7870
16668TIP3   OH271418   1.292   2.880  17.117  0.5960 -0.0246 -0.1015
16668TIP3    H171419   1.372   2.916  17.155  0.6896  0.7941 -1.0308
16668TIP3    H271420   1.252   2.954  17.072 -0.5380 -0.5013  0.1017
16669TIP3   OH271421   1.542   2.468  10.617  0.7377  0.5405  0.1819
16669TIP3    H171422   1.456   2.456  10.658  1.1706 -0.8577  0.7487
16669TIP3    H271423   1.604   2.467  10.690  1.4080 -0.6061 -0.3805
16670TIP3   OH271424   5.878   6.667   5.599  0.4860  0.3772 -0.0676
16670TIP3    H171425   5.812   6.715   5.650  0.5012  0.4591 -0.1247
16670TIP3    H271426   5.834   6.585   5.575  0.9704 -0.2949  1.2913
16671TIP3   OH271427   2.839   3.603   6.131  0.6515  0.4998  0.1781
16671TIP3    H171428   2.745   3.600   6.151  0.4181  1.3067 -0.7563
16671TIP3    H271429   2.875   3.526   6.177 -0.4044  0.3467  0.7973
16672TIP3   OH271430   2.907   3.526   5.842 -0.3518  0.8951 -0.6333
16672TIP3    H171431   2.872   3.520   5.931  0.0540  2.8911 -0.2790
16672TIP3    H271432   3.001   3.536   5.854  0.0033 -1.0506 -1.4316
16673TIP3   OH271433   3.941   2.567  13.890  0.2934 -0.2091  0.2638
16673TIP3    H171434   4.015   2.577  13.831 -1.3409  1.7658 -1.6163
16673TIP3    H271435   3.919   2.474  13.884  1.4590 -0.4552 -0.6118
16674TIP3   OH271436   2.718   3.983   3.686 -0.2636  0.3684  0.0956
16674TIP3    H171437   2.659   3.963   3.759 -0.6501 -1.1939 -0.6008
16674TIP3    H271438   2.802   4.000   3.727 -0.6158  0.1086  0.9574
16675TIP3   OH271439   1.533   4.521   3.135  0.2090 -0.1893 -0.1951
16675TIP3    H171440   1.612   4.476   3.105 -0.4398 -1.5165  0.0076
16675TIP3    H271441   1.490   4.549   3.055  0.4151 -0.2818 -0.3399
16676TIP3   OH271442   5.960   2.607   2.241  0.5823 -1.0305  0.5205
16676TIP3    H171443   5.870   2.578   2.253  0.2816  0.2325  1.5020
16676TIP3    H271444   5.988   2.564   2.160 -0.5411 -2.2579  0.7474
16677TIP3   OH271445   5.914   0.965  11.759  0.5756  0.0930  0.4049
16677TIP3    H171446   5.925   1.060  11.753  0.6626  0.0110 -1.4987
16677TIP3    H271447   5.820   0.951  11.745  0.5489 -0.1082  0.7690
16678TIP3   OH271448   3.749   3.635   2.163 -0.1346 -0.0823 -0.1488
16678TIP3    H171449   3.807   3.604   2.093 -1.9872 -0.0479 -1.8122
16678TIP3    H271450   3.661   3.620   2.129 -1.1206  0.6857  1.8875
16679TIP3   OH271451   5.045   6.305   2.604  0.3890  0.6285 -0.0367
16679TIP3    H171452   5.074   6.394   2.620  1.6679  0.4482 -1.1867
16679TIP3    H271453   5.109   6.250   2.649  1.0825  0.2633 -1.3927
16680TIP3   OH271454   2.979   1.536   2.026  0.5763 -0.6466 -0.0790
16680TIP3    H171455   2.995   1.629   2.039  0.2786 -0.3266 -1.7886
16680TIP3    H271456   3.043   1.510   1.960 -1.6651 -0.8016 -2.3180
16681TIP3   OH271457   2.201   4.276  15.987  0.3441 -0.1086  0.3415
16681TIP3    H171458   2.158   4.360  15.970 -0.4486 -0.1618  1.8771
16681TIP3    H271459   2.131   4.218  16.015  1.1253 -0.7421  1.0603
16682TIP3   OH271460   5.693   6.156   0.396 -0.2285  0.3416  0.5872
16682TIP3    H171461   5.621   6.093   0.386  0.0329  0.1763 -0.2796
16682TIP3    H271462   5.741   6.152   0.314  1.0904  0.0621  1.3336
16683TIP3   OH271463   6.168   5.818  16.878 -0.3095  0.1512 -0.2571
16683TIP3    H171464   6.194   5.728  16.856  1.7896  0.1219  1.8988
16683TIP3    H271465   6.146   5.858  16.794  3.1531 -1.0475 -1.9019
16684TIP3   OH271466   3.837   2.312  17.069 -0.4247 -0.5148  0.3356
16684TIP3    H171467   3.815   2.254  17.142  1.0794 -0.7439  0.6240
16684TIP3    H271468   3.897   2.262  17.015 -0.0210  0.3499 -0.0385
16685TIP3   OH271469   2.722   0.069   2.666  0.5689  0.5104 -0.5642
16685TIP3    H171470   2.800   0.075   2.611  0.2819  0.0636 -1.0375
16685TIP3    H271471   2.654   0.039   2.606  0.9118 -3.1624  0.6231
16686TIP3   OH271472   2.659   3.871   0.082 -0.1187 -0.4338  0.2818
16686TIP3    H171473   2.722   3.827   0.140  0.7338  0.4598  0.0468
16686TIP3    H271474   2.712   3.903   0.009 -0.9182 -0.0151 -0.1198
16687TIP3   OH271475   4.062   3.726   3.452  0.4288  0.4414  0.0240
16687TIP3    H171476   4.064   3.637   3.418  1.1482  0.3276  0.3636
16687TIP3    H271477   4.153   3.756   3.448  0.2211  1.1029  0.0724
16688TIP3   OH271478   3.864   4.613   4.049 -0.6722 -0.7504  0.1230
16688TIP3    H171479   3.811   4.574   3.979 -1.0557  0.1199 -0.0876
16688TIP3    H271480   3.802   4.668   4.098  0.0536  0.4305 -0.2386
16689TIP3   OH271481   1.000   6.057  15.498 -0.8353  0.3503  0.3933
16689TIP3    H171482   1.041   5.971  15.492 -0.4911  0.5744 -0.6686
16689TIP3    H271483   1.051   6.104  15.565  1.0183  0.8038 -1.2625
16690TIP3   OH271484   2.804   0.274  14.995  0.0622  0.1043  0.4543
16690TIP3    H171485   2.899   0.257  14.997 -0.0283 -0.5316  3.0859
16690TIP3    H271486   2.793   0.355  15.044 -0.7045  0.7456 -0.7341
16691TIP3   OH271487   3.156   1.963   1.563  0.0967  0.8678 -0.3069
16691TIP3    H171488   3.241   1.932   1.533  0.0476  0.8745 -0.4540
16691TIP3    H271489   3.141   1.917   1.646  0.1553  0.7200 -0.3785
16692TIP3   OH271490   5.412   3.140  16.480 -0.5992  0.1473  0.3095
16692TIP3    H171491   5.383   3.064  16.428 -1.4174  0.3949  0.3866
16692TIP3    H271492   5.459   3.195  16.417 -0.7089 -0.0365  0.0635
16693TIP3   OH271493   0.729   2.212  13.889  0.3123  0.5137  0.4217
16693TIP3    H171494   0.684   2.154  13.950 -0.0829  0.9002  0.5048
16693TIP3    H271495   0.727   2.298  13.932 -0.6485  0.9588 -0.4530
16694TIP3   OH271496   0.750   4.854  14.162  0.3199 -0.2995 -0.4632
16694TIP3    H171497   0.760   4.764  14.132 -0.0864 -0.8178  0.8917
16694TIP3    H271498   0.727   4.847  14.255 -0.0856  1.1873 -0.4143
16695TIP3   OH271499   0.985   4.587   1.337 -0.0391 -0.2860 -0.1350
16695TIP3    H171500   0.993   4.587   1.241 -0.4903 -1.5458 -0.1998
16695TIP3    H271501   0.898   4.622   1.354 -0.5797 -1.4873 -0.2934
16696TIP3   OH271502   0.881   6.552  13.606  0.0141  0.1646 -0.5046
16696TIP3    H171503   0.825   6.628  13.592 -0.7108 -0.5006 -1.3540
16696TIP3    H271504   0.822   6.477  13.595  0.3787 -0.5299  1.6652
16697TIP3   OH271505   6.491   4.077  15.455 -0.1103 -0.1235  0.0066
16697TIP3    H171506   6.511   4.150  15.513 -1.3334 -0.2974  0.6733
16697TIP3    H271507   6.549   4.091  15.379  0.7964  0.6466  0.8097
16698TIP3   OH271508   3.921   4.647  16.984  0.5659 -0.1826 -0.4639
16698TIP3    H171509   3.828   4.668  16.995  0.2409 -1.4264 -0.7464
16698TIP3    H271510   3.925   4.603  16.899  1.5303  0.4715 -0.7719
16699TIP3   OH271511   2.713   1.171  16.826 -0.0258 -0.1819 -0.1834
16699TIP3    H171512   2.699   1.213  16.911 -1.2249 -0.3523 -0.2766
16699TIP3    H271513   2.794   1.210  16.792  0.2042  0.2354  0.8131
16700TIP3   OH271514   1.579   0.642  17.119  0.0393  0.2858 -0.4230
16700TIP3    H171515   1.574   0.597  17.204  2.4806  1.6713  0.5538
16700TIP3    H271516   1.508   0.603  17.068 -1.8775 -0.2464  2.3887
16701TIP3   OH271517   6.732   2.811   2.322  0.6621 -1.0141 -0.5405
16701TIP3    H171518   6.752   2.782   2.233  2.0792  0.4591 -0.7462
16701TIP3    H271519   6.637   2.825   2.322  0.4823 -2.0897 -1.4638
16702TIP3   OH271520   3.960   5.766  16.649  0.4439  0.2620 -0.1973
16702TIP3    H171521   3.915   5.772  16.565  0.3203  1.0643 -0.0743
16702TIP3    H271522   4.050   5.793  16.630 -0.1146  2.6786  0.3561
16703TIP3   OH271523   0.296   2.365   2.436 -0.4257  0.4554  0.1285
16703TIP3    H171524   0.324   2.323   2.355 -2.9036  0.1649 -0.6685
16703TIP3    H271525   0.314   2.458   2.424 -1.1692  0.4718 -0.9773
16704TIP3   OH271526   1.543   2.455  17.073 -0.0569  0.4291 -0.3070
16704TIP3    H171527   1.615   2.518  17.070 -0.1205  0.5056 -0.2401
16704TIP3    H271528   1.585   2.369  17.070 -0.0119  0.4803 -1.3178
16705TIP3   OH271529   6.644   1.166  11.543  0.2335 -0.2183  0.0881
16705TIP3    H171530   6.620   1.118  11.464 -0.3858  2.0211 -1.1679
16705TIP3    H271531   6.583   1.136  11.609 -1.0516 -0.1829 -1.0376
16706TIP3   OH271532   3.169   6.266  15.103  0.0466 -0.0424 -0.3556
16706TIP3    H171533   3.108   6.198  15.077 -1.6096  0.5752  1.6327
16706TIP3    H271534   3.250   6.220  15.123  0.0260 -0.9780 -2.2597
16707TIP3   OH271535   1.366   4.780   2.355  1.1356 -0.6625  0.2850
16707TIP3    H171536   1.375   4.759   2.448  2.2492 -0.9337  0.1270
16707TIP3    H271537   1.409   4.865   2.345  0.9213 -0.5836  0.0322
16708TIP3   OH271538   2.382   0.999   2.655  0.5061  0.7637  0.4470
16708TIP3    H171539   2.376   0.922   2.711 -0.4385  1.0872  0.8038
16708TIP3    H271540   2.299   1.045   2.668  0.1867  0.7660 -1.3347
16709TIP3   OH271541   6.624   1.714  16.278 -0.2426  0.2194  0.1276
16709TIP3    H171542   6.699   1.707  16.218  0.7961  0.9926  1.2753
16709TIP3    H271543   6.602   1.807  16.276  0.2283  0.3804  1.4008
16710TIP3   OH271544   5.629   3.345   2.900 -0.4337  0.2262  0.2574
16710TIP3    H171545   5.652   3.404   2.828 -0.1764  0.2208  0.3347
16710TIP3    H271546   5.563   3.393   2.950  0.0944  0.6347  0.5729
16711TIP3   OH271547   3.520   1.240  16.307 -0.1614 -0.3760  0.2762
16711TIP3    H171548   3.584   1.179  16.343 -0.7851 -0.0203  2.1050
16711TIP3    H271549   3.555   1.327  16.329 -0.9755 -0.1686  0.8042
16712TIP3   OH271550   5.196   6.253   1.684  0.0829 -0.3099  0.1139
16712TIP3    H171551   5.115   6.282   1.641  0.9024 -1.4263 -2.3484
16712TIP3    H271552   5.186   6.158   1.692  0.7900 -0.3452  0.6146
16713TIP3   OH271553   3.936   3.574  13.403  1.0772 -0.1523 -0.4682
16713TIP3    H171554   3.936   3.578  13.499  1.0184  1.4353 -0.5037
16713TIP3    H271555   3.971   3.488  13.382  1.4599 -0.3685  0.9768
16714TIP3   OH271556   5.116   1.739  14.245 -0.4096  0.5967  0.3655
16714TIP3    H171557   5.029   1.703  14.259 -0.5625  1.3261  1.3890
16714TIP3    H271558   5.135   1.790  14.324  0.6654  1.0095 -0.1255
16715TIP3   OH271559   3.598   5.902   1.009  0.3941 -0.2905 -0.1573
16715TIP3    H171560   3.661   5.923   0.940  1.5517 -1.5374  0.4887
16715TIP3    H271561   3.538   5.838   0.969 -0.1563  0.4870 -0.6012
16716TIP3   OH271562   3.512   6.093   1.706 -0.4239  0.4135  0.1982
16716TIP3    H171563   3.543   6.105   1.616  0.1299  0.2576  0.3590
16716TIP3    H271564   3.452   6.019   1.702 -0.7988  0.7332 -0.1279
16717TIP3   OH271565   0.537   5.754   5.201 -0.1229 -0.2325 -0.5054
16717TIP3    H171566   0.528   5.787   5.112 -0.4502  1.8439  0.2544
16717TIP3    H271567   0.627   5.722   5.206  0.3916  1.0663 -1.1408
16718TIP3   OH271568   3.512   5.208  16.948 -0.4111 -0.4188  0.2354
16718TIP3    H171569   3.597   5.164  16.941  0.6758  1.2984  1.8945
16718TIP3    H271570   3.504   5.257  16.866  0.7511  0.2706  0.5086
16719TIP3   OH271571   4.206   4.608  14.360 -0.0864 -0.0577  0.0920
16719TIP3    H171572   4.248   4.524  14.380 -1.2715 -0.3372  1.6309
16719TIP3    H271573   4.215   4.659  14.440  0.0965  1.0761 -0.6274
16720TIP3   OH271574   2.787   4.563  17.326 -0.2618  0.8790 -0.8069
16720TIP3    H171575   2.733   4.484  17.337  1.3788 -0.2873 -0.8302
16720TIP3    H271576   2.835   4.547  17.244  0.4805  1.6651 -0.5318
16721TIP3   OH271577   5.345   0.739   0.361 -0.5063 -0.3221  0.3801
16721TIP3    H171578   5.261   0.777   0.386 -0.5058 -0.0796  0.0244
16721TIP3    H271579   5.406   0.813   0.359 -0.4937 -0.3448 -0.2655
16722TIP3   OH271580   0.786   1.961   1.305  0.2807  0.2342  0.3324
16722TIP3    H171581   0.762   1.874   1.336  0.7111  0.3325  0.9352
16722TIP3    H271582   0.817   1.946   1.215 -0.8062 -0.0616 -0.0168
16723TIP3   OH271583   5.594   6.006   3.215  0.2702 -0.6290  0.1907
16723TIP3    H171584   5.622   5.979   3.303  2.2900  1.4676  0.2876
16723TIP3    H271585   5.498   6.008   3.220  0.3186 -1.1518  2.1404
16724TIP3   OH271586   4.970   6.014  13.898  0.6938  0.3491  0.3180
16724TIP3    H171587   5.027   5.962  13.955 -0.8293 -1.5370  0.2308
16724TIP3    H271588   5.009   6.005  13.811 -0.3977 -2.1171 -0.0005
16725TIP3   OH271589   4.405   0.729  15.703  0.8064 -0.2499  0.2757
16725TIP3    H171590   4.355   0.653  15.732 -0.7913  0.5249 -0.3308
16725TIP3    H271591   4.496   0.709  15.727  0.5628 -2.6913 -0.5745
16726TIP3   OH271592   2.699   3.788   4.535  0.4456 -0.5717 -0.4786
16726TIP3    H171593   2.751   3.729   4.590  0.5450 -0.1675 -0.1308
16726TIP3    H271594   2.746   3.871   4.540  1.1604 -0.8376 -2.1845
16727TIP3   OH271595   0.184   2.979  13.323 -0.2741 -0.0831 -0.2017
16727TIP3    H171596   0.160   2.986  13.416 -0.5392 -0.0671 -0.2730
16727TIP3    H271597   0.177   3.068  13.290 -1.8891 -0.3611 -0.6653
16728TIP3   OH271598   0.519   2.917   5.204  0.2671  0.3940  0.4199
16728TIP3    H171599   0.471   2.837   5.183  0.9049  0.0761  0.1225
16728TIP3    H271600   0.464   2.962   5.268  0.0979 -0.4892  0.9234
16729TIP3   OH271601   3.406   2.348   0.594  0.0999 -0.3957  0.3883
16729TIP3    H171602   3.354   2.399   0.657 -0.3004 -1.7197  1.1699
16729TIP3    H271603   3.480   2.405   0.574 -0.4063  0.5658  1.0988
16730TIP3   OH271604   2.488   2.861  16.449 -0.0347 -0.6097 -0.0943
16730TIP3    H171605   2.443   2.944  16.467  1.7303  0.2453  0.6502
16730TIP3    H271606   2.441   2.796  16.501 -1.2963 -0.0425 -0.4959
16731TIP3   OH271607   0.361   6.757  14.141  0.3139 -0.0112  0.1221
16731TIP3    H171608   0.432   6.821  14.135 -1.3107  1.8603 -0.0154
16731TIP3    H271609   0.395   6.679  14.095  2.2052  0.8398 -0.0248
16732TIP3   OH271610   1.048   6.216  15.228  0.1985 -0.0308 -0.1105
16732TIP3    H171611   1.090   6.297  15.198  0.6600  0.3455  1.4869
16732TIP3    H271612   1.103   6.186  15.300 -0.7925 -0.9936  0.2601
16733TIP3   OH271613   2.227   0.071   1.643  0.0200 -0.0290  0.6400
16733TIP3    H171614   2.196  -0.011   1.605  1.8053 -0.6798  0.4865
16733TIP3    H271615   2.297   0.100   1.584 -1.3476  2.2725 -0.0032
16734TIP3   OH271616   5.775   0.454  10.683  0.4921  0.4488  0.2373
16734TIP3    H171617   5.742   0.471  10.771 -0.3072  2.3617 -0.3565
16734TIP3    H271618   5.722   0.382  10.650  1.9405 -1.4476  1.8688
16735TIP3   OH271619   4.501   2.253   4.660  0.0251  0.0885  0.5291
16735TIP3    H171620   4.480   2.345   4.644  1.0391  0.2010 -0.2778
16735TIP3    H271621   4.472   2.208   4.580  0.7641 -0.0822  0.3522
16736TIP3   OH271622   4.435   0.146   5.656 -0.4019 -0.0816  0.0378
16736TIP3    H171623   4.401   0.219   5.707  1.8293  1.6567 -0.7640
16736TIP3    H271624   4.390   0.069   5.691  0.3501  1.0530  3.9990
16737TIP3   OH271625   6.512   2.402   2.119  0.5295 -0.9641  0.1906
16737TIP3    H171626   6.460   2.344   2.063  2.3508 -0.1323 -2.6087
16737TIP3    H271627   6.580   2.346   2.156  2.0112 -0.8639 -2.1456
16738TIP3   OH271628   1.581   6.443   2.492  0.0624 -0.3332  0.0189
16738TIP3    H171629   1.609   6.392   2.568 -0.0149 -2.1519 -1.1179
16738TIP3    H271630   1.496   6.479   2.517  0.5079 -0.0449  1.1621
16739TIP3   OH271631   2.708   6.592  14.550 -0.7072  0.5235  0.1522
16739TIP3    H171632   2.768   6.666  14.562 -1.0619  0.9303 -0.5291
16739TIP3    H271633   2.660   6.613  14.470 -0.5721 -0.6078 -0.2490
16740TIP3   OH271634   0.081   0.091  12.911 -0.2654 -0.2087 -0.2434
16740TIP3    H171635   0.137   0.039  12.969 -2.1462  1.6074  3.5089
16740TIP3    H271636   0.141   0.153  12.869  0.9826 -0.5214  0.9914
16741TIP3   OH271637   0.163   4.209   1.023  0.3302  0.6642  0.1710
16741TIP3    H171638   0.112   4.258   1.088 -0.3810  0.5638 -0.3028
16741TIP3    H271639   0.201   4.136   1.073  1.4907  1.7241  0.9024
16742TIP3   OH271640   1.667   0.983   1.518  0.3666  0.1272 -0.1212
16742TIP3    H171641   1.651   0.953   1.607  0.8011  0.5782  0.1177
16742TIP3    H271642   1.689   0.903   1.469  0.7676 -0.0445  0.3268
16743TIP3   OH271643   5.752   2.797   0.668  0.2834 -0.0851  0.4613
16743TIP3    H171644   5.685   2.750   0.618  0.6659 -0.1616  0.0129
16743TIP3    H271645   5.795   2.853   0.604 -0.0466  0.7465  0.9574
16744TIP3   OH271646   3.433   3.501   3.020 -0.0745  0.2041 -0.2994
16744TIP3    H171647   3.377   3.500   3.098  1.1090 -0.5620  0.5689
16744TIP3    H271648   3.450   3.408   3.002  3.0445  0.3819  1.0858
16745TIP3   OH271649   6.469   3.242  12.553 -0.0264 -0.4297 -0.3864
16745TIP3    H171650   6.455   3.334  12.572 -1.0298 -0.7593  0.5759
16745TIP3    H271651   6.382   3.209  12.529  0.3348 -1.1138 -0.8021
16746TIP3   OH271652   1.640   4.024   2.285 -0.0482 -0.2191 -0.0600
16746TIP3    H171653   1.647   3.966   2.209  0.3238 -1.2247  0.7036
16746TIP3    H271654   1.597   4.103   2.252  2.4597  0.4861 -1.9094
16747TIP3   OH271655   1.091   6.388  12.789 -0.2635  0.0637 -0.2396
16747TIP3    H171656   1.152   6.316  12.808  0.0483  0.4564  0.3045
16747TIP3    H271657   1.126   6.429  12.710 -0.5423 -0.4791 -0.6558
16748TIP3   OH271658   3.249   4.911  14.733  0.6741 -0.3273  0.2456
16748TIP3    H171659   3.200   4.991  14.717  0.7510 -0.7049 -2.3508
16748TIP3    H271660   3.184   4.848  14.765  0.0601  0.0382 -0.2602
16749TIP3   OH271661   1.843   1.198  12.487 -0.1280  0.2949  0.2433
16749TIP3    H171662   1.869   1.126  12.429 -0.7706  0.9029 -0.8274
16749TIP3    H271663   1.786   1.157  12.553 -0.8579 -0.1076 -0.6269
16750TIP3   OH271664   2.728   4.506   4.716 -0.6534 -0.0777 -0.2776
16750TIP3    H171665   2.780   4.429   4.695 -0.6405 -0.3084  0.5760
16750TIP3    H271666   2.769   4.577   4.665  0.4369 -0.2685  0.3020
16751TIP3   OH271667   3.553   2.950   5.529 -0.1750  0.2110 -0.3371
16751TIP3    H171668   3.647   2.941   5.512  0.3440  1.0256  1.7934
16751TIP3    H271669   3.524   2.862   5.552  0.7265  0.4102  1.7558
16752TIP3   OH271670   5.367   1.371  15.721 -0.1491 -0.5745  0.1595
16752TIP3    H171671   5.366   1.463  15.694  1.9329 -0.7347 -0.6353
16752TIP3    H271672   5.308   1.367  15.796  0.9485  1.7323  1.2338
16753TIP3   OH271673   5.560   6.353   5.057 -0.0622  0.8962 -0.2135
16753TIP3    H171674   5.650   6.322   5.051 -0.5781 -0.5619 -0.9673
16753TIP3    H271675   5.551   6.416   4.985 -0.1558 -0.3919 -1.3699
16754TIP3   OH271676   6.225   6.688   1.911 -0.6008 -0.1747  0.0437
16754TIP3    H171677   6.299   6.629   1.926 -1.3707 -0.8906  1.2090
16754TIP3    H271678   6.229   6.751   1.983 -1.1787 -0.2890  0.1800
16755TIP3   OH271679   6.317   5.657  14.789 -0.2675 -0.0216 -0.6188
16755TIP3    H171680   6.367   5.576  14.775 -0.9514 -0.6824  0.5898
16755TIP3    H271681   6.344   5.687  14.876  1.6157  2.2878 -1.8669
16756TIP3   OH271682   3.055   1.137  13.138 -0.1354 -0.0455  0.0783
16756TIP3    H171683   3.130   1.177  13.093 -1.3484  1.2460 -0.9134
16756TIP3    H271684   2.979   1.182  13.100 -1.4378 -1.6460  0.7159
16757TIP3   OH271685   2.673   1.892  14.322  0.0378 -0.2911 -0.6903
16757TIP3    H171686   2.641   1.966  14.374  1.1868 -0.7539  0.7407
16757TIP3    H271687   2.612   1.821  14.341  0.1521 -0.3057 -0.3654
16758TIP3   OH271688   4.094   0.986  11.578 -0.5421 -0.0420  0.4778
16758TIP3    H171689   4.175   1.026  11.548  0.2761  1.1884  3.8690
16758TIP3    H271690   4.074   0.920  11.511  0.7333  2.6060 -2.7881
16759TIP3   OH271691   3.878   2.734  16.176  0.2406  0.7462  0.1231
16759TIP3    H171692   3.947   2.673  16.202 -0.3056  0.1220  0.1427
16759TIP3    H271693   3.924   2.803  16.128  0.8453  0.2121 -0.0875
16760TIP3   OH271694   5.544   6.760  13.235  0.0301  0.0286 -0.8627
16760TIP3    H171695   5.538   6.671  13.270  0.4309 -0.3160 -1.6355
16760TIP3    H271696   5.459   6.775  13.193 -0.3371  0.3274 -0.0351
16761TIP3   OH271697   1.540   1.466   3.050  0.0204 -0.0789  0.2360
16761TIP3    H171698   1.608   1.427   2.995 -1.0559 -1.3890 -0.2250
16761TIP3    H271699   1.476   1.500   2.987 -0.0181  0.6482  0.6665
16762TIP3   OH271700   6.425   1.790  11.636  0.0999  0.2387 -0.0804
16762TIP3    H171701   6.422   1.826  11.725  1.2953 -0.7093  0.3649
16762TIP3    H271702   6.334   1.794  11.606 -0.0617  2.0963  0.5427
16763TIP3   OH271703   5.105   2.058   4.337 -0.0393  0.6225 -0.3301
16763TIP3    H171704   5.048   2.005   4.393  0.8285 -0.6147 -0.5692
16763TIP3    H271705   5.152   2.114   4.397 -0.0810  0.2393  0.0660
16764TIP3   OH271706   6.204   4.051  11.596 -0.3278  0.1460  0.6884
16764TIP3    H171707   6.225   4.144  11.603  0.4329  0.0854 -0.4662
16764TIP3    H271708   6.280   4.013  11.553 -0.5401 -1.0609  1.3495
16765TIP3   OH271709   2.508   6.539  16.122 -0.5024 -0.2715  0.3782
16765TIP3    H171710   2.447   6.467  16.106 -0.1973 -0.0149 -2.3511
16765TIP3    H271711   2.585   6.498  16.161 -0.4955 -1.4112 -0.7766
16766TIP3   OH271712   6.044   0.572  14.879 -0.0180 -0.0766  0.0587
16766TIP3    H171713   6.115   0.569  14.943  0.2746  1.3757 -0.1459
16766TIP3    H271714   6.050   0.660  14.841  0.1683 -1.0438 -2.3442
16767TIP3   OH271715   1.247   3.734   4.208 -0.0609 -0.4455  0.2798
16767TIP3    H171716   1.312   3.663   4.203 -0.3155 -0.6144 -0.8799
16767TIP3    H271717   1.189   3.708   4.280  1.4386 -0.0266  1.6950
16768TIP3   OH271718   5.123   4.475   2.407 -0.2999 -0.4149  0.3756
16768TIP3    H171719   5.093   4.424   2.332  0.8115 -0.0397 -0.3409
16768TIP3    H271720   5.043   4.494   2.457 -1.2630  0.5007 -1.4253
16769TIP3   OH271721   1.724   5.326  17.241 -0.2306 -0.1778  0.0557
16769TIP3    H171722   1.743   5.281  17.159 -0.8392 -0.4612  0.0608
16769TIP3    H271723   1.633   5.354  17.232 -0.4159 -0.5334  0.7800
16770TIP3   OH271724   1.893   4.306  12.456 -0.0878  0.1126  0.6141
16770TIP3    H171725   1.956   4.250  12.501  1.5582  2.3708  1.3144
16770TIP3    H271726   1.922   4.305  12.365 -0.1846 -0.2848  0.5842
16771TIP3   OH271727   0.119   0.640   0.091 -0.6582 -0.3921 -0.6000
16771TIP3    H171728   0.191   0.578   0.077  0.1692 -0.0141  1.5283
16771TIP3    H271729   0.158   0.726   0.077 -1.3114 -0.2485 -1.6487
16772TIP3   OH271730   4.793   4.244   4.169 -0.0088 -0.2572  0.0808
16772TIP3    H171731   4.754   4.243   4.082  0.3268 -0.1667 -0.0726
16772TIP3    H271732   4.885   4.265   4.154  0.1179 -0.5585  0.4322
16773TIP3   OH271733   3.406   0.498  12.862  0.1524  0.2887  0.2505
16773TIP3    H171734   3.342   0.438  12.821  1.6480 -0.2018 -1.5240
16773TIP3    H271735   3.385   0.494  12.955  0.4946 -3.5081  0.3455
16774TIP3   OH271736   4.461   5.438   1.623  0.4297 -0.7425  0.6250
16774TIP3    H171737   4.545   5.440   1.578  0.3488  1.9140  0.4529
16774TIP3    H271738   4.484   5.421   1.715  0.9857 -1.4926  0.3635
16775TIP3   OH271739   3.701   3.300  17.282  0.2955  0.4725  0.0817
16775TIP3    H171740   3.770   3.242  17.316  0.6728  0.8728  0.0052
16775TIP3    H271741   3.740   3.340  17.205 -0.5960 -0.5058 -0.9006
16776TIP3   OH271742   6.419   2.570  16.415  0.4117  0.1235  0.7917
16776TIP3    H171743   6.344   2.527  16.373  0.8291 -0.2777  0.4408
16776TIP3    H271744   6.389   2.591  16.503 -0.4858  0.9950  0.2918
16777TIP3   OH271745   3.362   0.471   3.874 -0.1494  0.1583 -0.6199
16777TIP3    H171746   3.320   0.421   3.804 -0.3786  1.0805 -1.1556
16777TIP3    H271747   3.291   0.523   3.912  0.2602  0.7836 -0.6994
16778TIP3   OH271748   5.386   0.864   4.918 -0.1689 -0.1762 -0.4085
16778TIP3    H171749   5.453   0.800   4.941  0.0655 -0.0970 -0.8549
16778TIP3    H271750   5.305   0.814   4.914 -0.4487  0.0110  1.7419
16779TIP3   OH271751   2.956   6.191  14.907 -0.0049  0.5193  0.5802
16779TIP3    H171752   2.971   6.274  14.861  1.6149  1.8295  3.2105
16779TIP3    H271753   2.870   6.202  14.948  0.0301  0.7355  0.5973
16780TIP3   OH271754   0.005   3.919  13.875  0.0459 -0.3187  0.0233
16780TIP3    H171755   0.090   3.962  13.867 -0.3091  0.6365  1.0841
16780TIP3    H271756  -0.014   3.922  13.969 -1.7203  0.5989 -0.3230
16781TIP3   OH271757   3.090   4.504  12.588  0.2931  0.5109 -0.6763
16781TIP3    H171758   3.067   4.412  12.595  2.6766 -0.1382 -0.2671
16781TIP3    H271759   3.137   4.523  12.669  1.0138  1.6933 -1.3353
16782TIP3   OH271760   3.398   5.120   4.479 -0.2861  0.0918  0.5117
16782TIP3    H171761   3.486   5.144   4.507  0.6263 -1.4092 -0.8733
16782TIP3    H271762   3.385   5.031   4.512 -1.4229  0.3944  0.9500
16783TIP3   OH271763   5.210   6.277  17.238  0.4683  0.3556 -0.0267
16783TIP3    H171764   5.279   6.282  17.304 -1.2214  1.5101  1.7471
16783TIP3    H271765   5.145   6.217  17.275  0.0144  0.0934 -1.1940
16784TIP3   OH271766   5.429   1.786   5.398 -0.1067  0.7566  0.0644
16784TIP3    H171767   5.417   1.865   5.345  1.6586  0.3930 -0.9291
16784TIP3    H271768   5.489   1.731   5.347  0.5050 -0.2389  1.7791
16785TIP3   OH271769   1.610   4.131  15.139 -0.4401  0.0604  0.3375
16785TIP3    H171770   1.600   4.093  15.226 -0.9441  0.9309  0.6643
16785TIP3    H271771   1.533   4.188  15.128  0.3071  1.0032 -0.1295
16786TIP3   OH271772   0.247   3.186  11.150 -0.1817  0.7734 -0.6220
16786TIP3    H171773   0.240   3.191  11.055  0.0942 -1.4025 -0.8019
16786TIP3    H271774   0.341   3.185  11.167 -0.2298  1.3026 -0.2974
16787TIP3   OH271775   2.323   3.485   5.819  0.5279  0.2118 -0.2505
16787TIP3    H171776   2.398   3.438   5.782  0.5533 -0.7761  0.9686
16787TIP3    H271777   2.308   3.558   5.759  0.0017 -1.7627 -2.6471
16788TIP3   OH271778   3.590   4.114  16.840 -0.1573 -0.1987 -0.0475
16788TIP3    H171779   3.610   4.190  16.785 -1.8971  0.7376  0.5260
16788TIP3    H271780   3.603   4.039  16.782  1.8936  0.4857 -0.5507
16789TIP3   OH271781   5.187   4.961   4.172 -0.1272  0.3328 -0.2451
16789TIP3    H171782   5.205   4.884   4.226  1.4808 -0.4349 -1.7714
16789TIP3    H271783   5.154   5.026   4.234 -0.0575 -1.0590  1.3434
16790TIP3   OH271784   1.022   1.668  13.934  0.4026  0.3284  0.6091
16790TIP3    H171785   1.112   1.647  13.958  0.5446  1.0537  0.7576
16790TIP3    H271786   1.024   1.680  13.839  0.4172  0.1086  0.5831
16791TIP3   OH271787   2.414   1.212   2.986 -0.1454 -0.3684  0.4124
16791TIP3    H171788   2.445   1.271   3.055  3.2095 -0.9691 -0.3850
16791TIP3    H271789   2.393   1.131   3.032  0.0207 -0.1070  0.9598
16792TIP3   OH271790   0.684   4.459  12.325 -0.1567 -0.5712  0.4409
16792TIP3    H171791   0.607   4.420  12.367 -0.0049 -0.6600  0.6340
16792TIP3    H271792   0.723   4.388  12.274 -1.2904 -0.0717 -1.2265
16793TIP3   OH271793   1.570   0.041   3.252 -0.4893 -0.0385 -0.1215
16793TIP3    H171794   1.557   0.070   3.343  0.8509  0.1159  0.0402
16793TIP3    H271795   1.644  -0.020   3.256  1.8472  2.4650 -1.4993
16794TIP3   OH271796   4.753   4.585   1.561 -0.2046 -0.4728 -0.3318
16794TIP3    H171797   4.688   4.622   1.621  2.6248 -0.4617  3.0494
16794TIP3    H271798   4.769   4.497   1.595  1.6842 -0.3657 -0.8481
16795TIP3   OH271799   6.570   1.611   5.166  0.5316 -0.2437 -0.0379
16795TIP3    H171800   6.585   1.626   5.073 -0.5045 -0.8136 -0.3211
16795TIP3    H271801   6.479   1.639   5.180 -0.1986 -2.4847  0.2120
16796TIP3   OH271802   6.115   3.212   0.024 -0.9522  0.8808  0.3866
16796TIP3    H171803   6.068   3.154  -0.037  0.1482  1.2317 -0.8328
16796TIP3    H271804   6.050   3.277   0.049 -0.9649  1.8715 -1.9453
16797TIP3   OH271805   6.463   1.590   0.801  0.0771 -0.4076  0.0016
16797TIP3    H171806   6.402   1.536   0.851  0.4782  0.0507  1.0073
16797TIP3    H271807   6.475   1.668   0.854  0.9316 -0.1436 -0.5630
16798TIP3   OH271808   3.547   2.391  16.609 -0.2443 -0.3406  0.2388
16798TIP3    H171809   3.616   2.435  16.659 -0.0473 -0.1801 -0.1762
16798TIP3    H271810   3.590   2.361  16.529 -0.5147 -0.7698  0.2507
16799TIP3   OH271811   3.489   4.257  15.662  0.3221 -0.0791  0.6915
16799TIP3    H171812   3.506   4.249  15.568  0.7041 -0.2690  0.7770
16799TIP3    H271813   3.500   4.168  15.696 -0.9865 -0.2516  0.7276
16800TIP3   OH271814   2.974   4.685   3.808  0.2463 -0.5465 -0.4893
16800TIP3    H171815   2.909   4.753   3.789  0.8913  0.2170 -0.0500
16800TIP3    H271816   2.923   4.614   3.846 -0.1067  1.0506  2.3420
16801TIP3   OH271817   2.496   6.505  13.161 -0.7174  0.1866 -0.1524
16801TIP3    H171818   2.511   6.420  13.203 -1.1354 -0.2077 -0.7902
16801TIP3    H271819   2.480   6.565  13.234  0.2275 -0.1378  0.3459
16802TIP3   OH271820   2.943   3.978   5.235  0.0988 -0.0472  0.3989
16802TIP3    H171821   2.855   3.961   5.203 -0.0939  2.4766 -0.6606
16802TIP3    H271822   2.952   3.923   5.313 -1.9798 -1.1665 -0.0848
16803TIP3   OH271823   1.744   1.490  10.754 -0.1785  0.9504 -0.7298
16803TIP3    H171824   1.691   1.565  10.726  2.2109  2.3424 -1.8356
16803TIP3    H271825   1.825   1.498  10.704  1.1850 -0.9397  1.0229
16804TIP3   OH271826   5.253   2.081  11.597 -0.5361 -0.1502  0.2584
16804TIP3    H171827   5.265   2.119  11.684 -2.0785 -0.8285  0.8117
16804TIP3    H271828   5.243   1.987  11.613  0.0254 -0.4015 -0.7535
16805TIP3   OH271829   1.056   2.165   5.850  0.1550 -0.9558 -0.4702
16805TIP3    H171830   1.106   2.116   5.785 -1.0361  1.3981 -3.3932
16805TIP3    H271831   1.098   2.251   5.853 -0.1295 -0.8485  1.5793
16806TIP3   OH271832   5.329   5.334  14.045  0.2710  0.4132  0.3450
16806TIP3    H171833   5.388   5.319  14.119 -1.0100  1.2225  1.5916
16806TIP3    H271834   5.324   5.429  14.037 -0.8397  0.3626  0.2657
16807TIP3   OH271835   1.659   6.361  13.096 -1.1138 -0.4128  0.8872
16807TIP3    H171836   1.693   6.450  13.081  2.6380 -1.6687  0.9655
16807TIP3    H271837   1.616   6.338  13.014  1.0580  0.2450 -0.5360
16808TIP3   OH271838   2.892   6.264   4.504  0.2083  0.6155 -0.0619
16808TIP3    H171839   2.833   6.325   4.549  0.4230  1.3135 -0.7020
16808TIP3    H271840   2.894   6.295   4.413 -0.1600 -0.7145 -0.5494
16809TIP3   OH271841   6.090   3.749  15.826  0.3180  0.1190  0.4478
16809TIP3    H171842   6.089   3.844  15.833 -2.8180  0.2521 -0.5732
16809TIP3    H271843   6.121   3.732  15.737 -1.0969  0.3133 -0.1010
16810TIP3   OH271844   5.572   6.301   0.651  0.0325  0.3825  0.3392
16810TIP3    H171845   5.633   6.309   0.724 -1.2623  2.2365  1.3094
16810TIP3    H271846   5.608   6.231   0.597  1.5800 -0.3494  2.2106
16811TIP3   OH271847   5.483   4.029  17.320  0.2704  0.0730 -0.5482
16811TIP3    H171848   5.492   3.963  17.252 -0.9371  0.6246 -1.2829
16811TIP3    H271849   5.508   3.984  17.401  1.5443 -0.6410 -1.3085
16812TIP3   OH271850   5.010   3.264  13.840  0.2497  0.2585  0.0255
16812TIP3    H171851   4.937   3.317  13.870 -1.5625 -1.2564 -1.4160
16812TIP3    H271852   4.984   3.174  13.860  1.7166 -0.3233 -0.5214
16813TIP3   OH271853   4.411   1.772   4.245  0.3460 -0.3457 -0.3289
16813TIP3    H171854   4.347   1.715   4.203  0.6548 -0.3955 -0.7324
16813TIP3    H271855   4.385   1.773   4.337 -0.9102  0.5342 -0.6745
16814TIP3   OH271856   0.071   4.774  14.113  1.0159 -0.5918 -0.1551
16814TIP3    H171857   0.133   4.837  14.078  0.1319  0.3064 -0.1493
16814TIP3    H271858   0.059   4.709  14.044  0.8234  0.0591 -0.7352
16815TIP3   OH271859   1.102   1.195   4.172 -0.5469 -0.4045  0.6060
16815TIP3    H171860   1.127   1.287   4.169  0.0876 -0.5603  0.7991
16815TIP3    H271861   1.181   1.148   4.143  0.0046 -1.0175  2.8895
16816TIP3   OH271862   5.567   0.856  14.570  0.9787  0.0292 -0.1244
16816TIP3    H171863   5.607   0.911  14.638 -1.0571  0.2169  0.9954
16816TIP3    H271864   5.553   0.916  14.496 -0.1683  0.7839  0.6704
16817TIP3   OH271865   3.061   6.711   3.213  0.4801 -0.4774  0.1318
16817TIP3    H171866   3.056   6.621   3.244 -0.3884 -0.0945  1.1434
16817TIP3    H271867   3.092   6.703   3.122  1.1323 -1.7301  0.4442
16818TIP3   OH271868   4.462   2.650  12.498 -0.4299 -0.5068  0.0515
16818TIP3    H171869   4.548   2.622  12.470 -1.1726 -2.8833 -0.0223
16818TIP3    H271870   4.445   2.730  12.448  0.5797 -1.5501 -2.0643
16819TIP3   OH271871   1.925   4.011   3.024  0.4981  0.1216  0.6202
16819TIP3    H171872   1.854   3.947   3.029  0.8745 -0.2979  0.6524
16819TIP3    H271873   1.926   4.053   3.110  0.5375 -0.1383  0.7464
16820TIP3   OH271874   3.156   2.918  16.460 -0.5282  0.1454 -0.1744
16820TIP3    H171875   3.229   2.960  16.415  0.3008  0.4881  1.4023
16820TIP3    H271876   3.198   2.865  16.528 -1.7510  0.3386  0.7485
16821TIP3   OH271877   6.119   2.846  10.366 -0.0044 -0.2748 -0.2617
16821TIP3    H171878   6.155   2.826  10.279 -1.6596 -0.5751 -0.9187
16821TIP3    H271879   6.090   2.762  10.400  0.0261 -0.0589  0.3010
16822TIP3   OH271880   2.759   0.949   2.377  0.3850  0.2137  0.2934
16822TIP3    H171881   2.682   0.926   2.326  0.3194  0.9403  0.0543
16822TIP3    H271882   2.783   0.868   2.423  0.9535 -0.7126 -1.5288
16823TIP3   OH271883   2.973   6.317   2.002 -0.0698 -0.1495  0.0135
16823TIP3    H171884   2.897   6.375   2.002 -0.6196 -0.8562  0.3257
16823TIP3    H271885   2.974   6.276   2.088  0.7701 -0.0231  0.0769
16824TIP3   OH271886   6.396   1.727  13.194 -0.0361  0.1275 -0.7061
16824TIP3    H171887   6.307   1.737  13.159  0.6653  0.2951 -2.5373
16824TIP3    H271888   6.407   1.633  13.205  0.2847 -0.0720 -2.5390
16825TIP3   OH271889   0.026   0.863   2.271  0.4834  0.3400  0.1854
16825TIP3    H171890   0.097   0.834   2.328  2.4450  0.5554 -1.9780
16825TIP3    H271891   0.070   0.918   2.205 -2.0752  2.5150  0.1350
16826TIP3   OH271892   0.215   2.809   3.955 -0.4952  0.0333 -0.3734
16826TIP3    H171893   0.276   2.738   3.972  0.5531  0.9852 -0.0445
16826TIP3    H271894   0.269   2.888   3.953 -1.8838  1.1396  1.6201
16827TIP3   OH271895   0.038   6.430  14.374 -0.5917  0.1534 -0.0143
16827TIP3    H171896   0.088   6.354  14.343  0.7339  1.5592 -1.5302
16827TIP3    H271897   0.004   6.470  14.294  0.0330  1.9897  0.5900
16828TIP3   OH271898   6.059   2.679   1.774  0.4136 -0.2505 -0.0102
16828TIP3    H171899   5.978   2.633   1.753 -0.0465  0.6232 -0.1924
16828TIP3    H271900   6.120   2.610   1.799 -1.0203 -0.7533  2.3379
16829TIP3   OH271901   5.456   5.577  16.104  0.2528 -0.1379  0.2565
16829TIP3    H171902   5.502   5.661  16.109 -1.6047  0.9162  0.5616
16829TIP3    H271903   5.513   5.522  16.050  1.7354  1.1534  0.4196
16830TIP3   OH271904   0.503   4.108  14.585  0.6626  0.4108 -0.2249
16830TIP3    H171905   0.523   4.051  14.510  2.2799  0.0264  0.4750
16830TIP3    H271906   0.506   4.050  14.661  2.2011  1.3793  0.4885
16831TIP3   OH271907   1.411   5.895  15.852  0.4702  0.1073  0.6312
16831TIP3    H171908   1.480   5.958  15.872  1.3350  0.4144 -2.6625
16831TIP3    H271909   1.457   5.815  15.826 -0.3439  0.1357 -1.0861
16832TIP3   OH271910   6.416   6.022  13.210 -0.0818 -0.0080 -0.3733
16832TIP3    H171911   6.389   6.004  13.301  0.5270 -0.6019 -0.2967
16832TIP3    H271912   6.427   6.117  13.206  0.8825 -0.0655  0.4742
16833TIP3   OH271913   0.969   5.101   4.205  0.6853 -0.0320 -0.0790
16833TIP3    H171914   0.915   5.104   4.126 -0.5590 -0.2314  0.7265
16833TIP3    H271915   0.908   5.119   4.277  1.9470  1.0312  0.7805
16834TIP3   OH271916   1.022   1.212  13.962 -0.5292 -0.1947  0.5712
16834TIP3    H171917   0.953   1.269  13.928 -0.3389 -0.1016  0.3340
16834TIP3    H271918   1.041   1.247  14.049  0.5653  0.9930 -0.1186
16835TIP3   OH271919   2.987   4.986   1.029  0.1795 -0.1472 -0.6524
16835TIP3    H171920   3.071   4.958   1.064 -0.6128 -2.0905 -0.2173
16835TIP3    H271921   2.924   4.968   1.099 -0.7461  0.4317 -1.3072
16836TIP3   OH271922   3.785   5.574  13.679 -0.0065  0.2469  0.4473
16836TIP3    H171923   3.823   5.509  13.738  0.0594 -0.2305 -0.1083
16836TIP3    H271924   3.760   5.647  13.736  0.3693 -0.0598  1.0143
16837TIP3   OH271925   2.363   6.022  15.244  0.4969  1.0012 -0.5337
16837TIP3    H171926   2.367   6.088  15.175  1.8453  0.1959 -1.2670
16837TIP3    H271927   2.454   5.995  15.257 -0.0415 -0.9350 -0.5041
16838TIP3   OH271928   3.249   4.506   0.778 -0.2075  0.4339 -0.7515
16838TIP3    H171929   3.242   4.562   0.700  1.2519  2.2507  0.3120
16838TIP3    H271930   3.225   4.564   0.851  0.6720 -0.5407  0.3497
16839TIP3   OH271931   3.642   4.792  12.375 -0.3128 -0.4784  0.0286
16839TIP3    H171932   3.661   4.782  12.468 -0.9744  0.9246  0.3386
16839TIP3    H271933   3.696   4.726  12.332 -0.1343 -1.2623  1.4185
16840TIP3   OH271934   6.233   2.994   4.609  0.6471 -0.2713  0.0877
16840TIP3    H171935   6.228   2.923   4.545  1.7792  0.1768 -0.5361
16840TIP3    H271936   6.240   2.950   4.694  1.7322 -0.9262 -0.3179
16841TIP3   OH271937   4.940   4.626   6.274  0.0560 -0.1651 -0.1778
16841TIP3    H171938   4.996   4.693   6.314 -1.3882  1.1116 -0.1524
16841TIP3    H271939   4.859   4.631   6.325 -0.3144 -1.5056 -0.6041
16842TIP3   OH271940   2.269   3.746   1.349 -0.7511 -0.2616  0.1589
16842TIP3    H171941   2.288   3.660   1.312 -2.1683  0.3318 -2.1235
16842TIP3    H271942   2.177   3.762   1.327 -0.8561  1.3635  1.5507
16843TIP3   OH271943   5.691   0.486  16.239 -0.0078 -0.4400 -0.2078
16843TIP3    H171944   5.629   0.422  16.274 -1.4516 -0.0693 -1.9649
16843TIP3    H271945   5.638   0.544  16.184  1.5489  1.2490 -0.0112
16844TIP3   OH271946   1.875   4.693   6.296  0.0786  0.4804 -0.5314
16844TIP3    H171947   1.913   4.733   6.374 -2.7142  0.9234  0.7502
16844TIP3    H271948   1.871   4.764   6.232  2.1542  0.1781 -1.0572
16845TIP3   OH271949   2.917   2.716   1.668 -1.2603  0.0586  0.2153
16845TIP3    H171950   2.910   2.774   1.592  0.9279 -0.4336 -0.4449
16845TIP3    H271951   2.900   2.628   1.632  3.0774 -0.6812 -0.6700
16846TIP3   OH271952   6.132   6.329   5.696 -0.3844  0.1930 -0.0814
16846TIP3    H171953   6.114   6.422   5.703 -0.2249  0.1576  0.8325
16846TIP3    H271954   6.194   6.310   5.767  1.2180 -0.2025 -1.4932
16847TIP3   OH271955   4.041   2.353   6.257 -0.4525  0.0506  0.0709
16847TIP3    H171956   4.026   2.428   6.199  0.3511 -0.2810 -0.6026
16847TIP3    H271957   4.090   2.292   6.203 -2.6695 -1.7845 -0.0037
16848TIP3   OH271958   5.191   6.683  11.357  0.5447 -0.0867  0.5835
16848TIP3    H171959   5.275   6.640  11.348  0.0883 -1.1295  1.0921
16848TIP3    H271960   5.131   6.614  11.387 -0.6531  0.4553 -0.4553
16849TIP3   OH271961   2.743   2.551  17.027 -0.1797 -0.3632  0.0313
16849TIP3    H171962   2.718   2.599  16.947  1.0096  0.5610  0.1883
16849TIP3    H271963   2.821   2.596  17.058  0.2460 -1.6615  0.8931
16850TIP3   OH271964   2.866   2.344   5.252 -0.4039  0.0930 -0.4244
16850TIP3    H171965   2.941   2.296   5.217 -1.2966 -0.8076 -1.1232
16850TIP3    H271966   2.823   2.382   5.175  0.8288  2.9409  0.1443
16851TIP3   OH271967   1.981   4.008  17.078  0.7781 -0.1767  0.1172
16851TIP3    H171968   1.974   3.977  17.168  1.0129  0.1016  0.2313
16851TIP3    H271969   1.890   4.025  17.052  0.8050  1.1365  0.7969
16852TIP3   OH271970   1.529   3.725   5.254  0.1898 -0.0370 -0.3332
16852TIP3    H171971   1.581   3.704   5.175 -0.2101  2.2630 -1.2673
16852TIP3    H271972   1.592   3.765   5.314  0.3958 -1.3726  0.3760
16853TIP3   OH271973   2.714   4.846  12.235  0.0745 -0.5260  0.5120
16853TIP3    H171974   2.728   4.766  12.286  0.6602  1.1469  3.1158
16853TIP3    H271975   2.801   4.884  12.226  0.2859 -1.4663 -3.2270
16854TIP3   OH271976   4.934   3.684  17.044 -0.4841 -0.3314  0.5938
16854TIP3    H171977   4.973   3.704  16.958  1.1111  0.9704  1.5661
16854TIP3    H271978   4.845   3.656  17.024  0.0047 -0.5408 -1.5233
16855TIP3   OH271979   0.390   3.241   0.766 -0.6398  0.1655 -0.3802
16855TIP3    H171980   0.423   3.198   0.846 -0.2976  1.4415  0.1952
16855TIP3    H271981   0.301   3.267   0.788 -0.2368  1.3382 -0.0598
16856TIP3   OH271982   5.549   1.807  14.040  0.3369 -0.7601 -0.4797
16856TIP3    H171983   5.639   1.779  14.023  0.1192 -2.8281  1.3377
16856TIP3    H271984   5.518   1.841  13.956  2.2685 -1.5466 -1.5698
16857TIP3   OH271985   0.822   0.080  12.749 -0.3012  0.1845  0.2329
16857TIP3    H171986   0.754   0.129  12.796 -0.0246  0.7825  0.0181
16857TIP3    H271987   0.820   0.115  12.660 -0.0358 -0.1308  0.1003
16858TIP3   OH271988   3.691   5.510   0.116 -0.4909  0.1488  0.7235
16858TIP3    H171989   3.620   5.574   0.118  0.2591  1.0334 -0.3394
16858TIP3    H271990   3.749   5.536   0.188 -0.8228 -0.1045  1.0892
16859TIP3   OH271991   1.822   6.521  12.654  0.1659  0.2071 -0.0350
16859TIP3    H171992   1.803   6.451  12.590  2.0361  1.3269 -1.9423
16859TIP3    H271993   1.865   6.476  12.726 -0.0516 -0.8214 -0.5133
16860TIP3   OH271994   5.528   3.213  11.235 -0.1729 -0.4409  1.1312
16860TIP3    H171995   5.444   3.251  11.207 -0.4595 -1.8957 -0.1731
16860TIP3    H271996   5.594   3.275  11.205 -0.6145 -0.9202 -1.0425
16861TIP3   OH271997   5.616   6.012  13.254 -0.4903  0.0170 -0.4806
16861TIP3    H171998   5.574   6.089  13.293 -0.1745  1.6610 -3.0975
16861TIP3    H271999   5.586   6.012  13.163 -1.0319 -3.4334 -0.4295
16862TIP3   OH272000   1.020   6.486   1.669 -1.3394  0.0826 -0.1368
16862TIP3    H172001   1.046   6.434   1.745  0.4781  1.5418  0.3170
16862TIP3    H272002   0.929   6.462   1.654 -1.4109 -1.1035  1.7876
16863TIP3   OH272003   6.099   1.249   1.879  0.4016 -0.4839 -0.4964
16863TIP3    H172004   6.107   1.218   1.789  0.9195  1.8943 -1.3598
16863TIP3    H272005   6.186   1.238   1.917  0.0870 -1.8389 -0.1415
16864TIP3   OH272006   0.708   2.685   5.176  0.3542  0.5288  0.0712
16864TIP3    H172007   0.697   2.662   5.084 -0.6737  4.5142 -0.9970
16864TIP3    H272008   0.622   2.717   5.203  1.0747  1.0426  1.9318
16865TIP3   OH272009   5.041   0.395  14.532  0.5519 -0.2001 -0.3002
16865TIP3    H172010   4.951   0.424  14.516 -0.8768 -3.1553  1.5874
16865TIP3    H272011   5.077   0.461  14.592 -0.1611  1.2181 -1.3621
16866TIP3   OH272012   4.197   3.356   3.024  0.2471  0.0271  0.2422
16866TIP3    H172013   4.109   3.319   3.036  0.4301 -0.4647  0.0696
16866TIP3    H272014   4.184   3.450   3.035 -0.4032  0.0127 -0.2973
16867TIP3   OH272015   1.022   2.890   3.405 -0.2305 -0.2120  0.1976
16867TIP3    H172016   1.054   2.801   3.395 -0.8790 -0.2957 -1.4046
16867TIP3    H272017   1.032   2.909   3.499 -0.3200 -2.0403  0.6049
16868TIP3   OH272018   1.171   1.942  17.108 -0.3746  0.3992  0.0525
16868TIP3    H172019   1.116   1.868  17.084 -0.4888  0.1616  1.0063
16868TIP3    H272020   1.150   1.960  17.200  2.8345 -1.3006  1.3047
16869TIP3   OH272021   0.949   1.124  16.385 -0.2491  0.3573 -0.5255
16869TIP3    H172022   0.857   1.098  16.394 -0.9507  2.7349  0.0424
16869TIP3    H272023   0.981   1.128  16.475  0.3166 -0.1018 -0.7021
16870TIP3   OH272024   3.164   2.846   1.520  0.6420 -0.0753 -0.1622
16870TIP3    H172025   3.216   2.887   1.450  0.5681  0.3396  0.0256
16870TIP3    H272026   3.074   2.869   1.498  0.6410  0.3136  0.2335
16871TIP3   OH272027   4.660   1.871  14.675 -0.4285 -0.3433 -0.2551
16871TIP3    H172028   4.567   1.891  14.671 -0.8595 -2.2575 -0.6572
16871TIP3    H272029   4.680   1.868  14.768 -0.7062  0.3102 -0.1694
16872TIP3   OH272030   2.994   5.576  15.312  0.0422  0.5601  0.6314
16872TIP3    H172031   3.057   5.644  15.286 -1.0681  0.5461 -2.5629
16872TIP3    H272032   2.911   5.623  15.319 -0.6458 -0.3062 -1.1435
16873TIP3   OH272033   4.921   3.844  12.226 -0.4997  0.3929  0.1101
16873TIP3    H172034   4.911   3.859  12.132  0.8312  2.7016  0.2650
16873TIP3    H272035   4.832   3.843  12.260 -1.0369 -1.0884 -1.2186
16874TIP3   OH272036   1.744   2.155  11.974 -0.0173 -0.0296  0.4130
16874TIP3    H172037   1.697   2.228  12.013  0.3316  0.0061  0.7751
16874TIP3    H272038   1.689   2.126  11.901 -1.0721 -0.6092  1.4009
16875TIP3   OH272039   1.999   2.286   3.748 -0.0153 -0.0942  0.0377
16875TIP3    H172040   1.995   2.365   3.694  2.8021  0.5899  0.6731
16875TIP3    H272041   2.049   2.313   3.826 -0.5171 -2.0747  1.1024
16876TIP3   OH272042   2.798   2.006  14.018 -0.0124  0.1356  0.1119
16876TIP3    H172043   2.750   1.957  14.085 -0.6107  2.1368  1.2267
16876TIP3    H272044   2.889   2.004  14.048 -0.1918  0.5386  0.7101
16877TIP3   OH272045   6.638   2.170  12.522  0.5244 -0.3537  0.6917
16877TIP3    H172046   6.558   2.173  12.575  1.1559 -1.9027  1.8143
16877TIP3    H272047   6.699   2.116  12.573  1.8253 -0.3437 -0.7642
16878TIP3   OH272048   5.783   5.792  12.259  0.6780 -0.5718 -0.1900
16878TIP3    H172049   5.705   5.755  12.218 -0.5191  1.7886 -0.2587
16878TIP3    H272050   5.821   5.847  12.191  0.8939  0.3263  0.6353
16879TIP3   OH272051   5.704   3.738  13.372 -0.1837  0.2314  0.1981
16879TIP3    H172052   5.750   3.701  13.297 -1.3932 -0.5629 -0.1933
16879TIP3    H272053   5.747   3.700  13.448  0.3369  0.1666 -0.1226
16880TIP3   OH272054   6.039   2.503  13.002  0.5508  0.7235 -0.2148
16880TIP3    H172055   6.012   2.595  12.996 -2.7485 -0.0092  0.9041
16880TIP3    H272056   6.021   2.479  13.093  2.2816 -0.8144 -0.2249
16881TIP3   OH272057   6.421   2.423  15.707  0.2760 -0.1843 -0.4567
16881TIP3    H172058   6.410   2.505  15.754 -1.2528 -0.1438 -0.8300
16881TIP3    H272059   6.505   2.389  15.737  0.3848  0.9374  0.5795
16882TIP3   OH272060   0.617   4.297   0.288 -0.3056 -0.5211  0.4289
16882TIP3    H172061   0.695   4.353   0.281 -2.4604  2.7568  0.0915
16882TIP3    H272062   0.589   4.285   0.197 -1.7352  0.8810  0.6363
16883TIP3   OH272063   4.293   2.970   4.497 -0.0515  0.1564 -0.9354
16883TIP3    H172064   4.210   3.015   4.481 -0.2231  0.4842  0.7218
16883TIP3    H272065   4.356   3.017   4.443 -0.7527  0.5168 -1.4680
16884TIP3   OH272066   6.342   5.630   6.183  0.6061  0.2017 -0.3553
16884TIP3    H172067   6.397   5.687   6.238  0.7072 -0.2678  0.0399
16884TIP3    H272068   6.298   5.572   6.245  1.0559 -0.6313 -0.7949
16885TIP3   OH272069   5.069   5.699   4.344  1.0909  0.6157  0.2725
16885TIP3    H172070   5.121   5.771   4.382 -0.1489  3.0150 -2.1846
16885TIP3    H272071   5.113   5.680   4.261 -0.9477  1.6762 -1.1554
16886TIP3   OH272072   6.666   2.176  15.359  0.0564  0.1665  0.1316
16886TIP3    H172073   6.662   2.265  15.394 -0.5674 -0.2471  1.1483
16886TIP3    H272074   6.588   2.133  15.393  0.9656 -1.1374  0.6787
16887TIP3   OH272075   0.566   0.548  17.232  0.5977 -0.9650  0.1008
16887TIP3    H172076   0.621   0.493  17.288  2.2810 -0.4455 -0.9745
16887TIP3    H272077   0.625   0.579  17.163 -0.9063  0.1517 -0.7450
16888TIP3   OH272078   2.128   4.906  12.336 -0.0803  0.1251  0.3285
16888TIP3    H172079   2.101   4.864  12.418 -0.5469 -1.0135 -0.3756
16888TIP3    H272080   2.048   4.948  12.304 -0.8506 -2.2526 -1.1660
16889TIP3   OH272081   6.708   0.368   1.628  0.0106  0.3193 -0.1354
16889TIP3    H172082   6.795   0.351   1.662 -0.3195 -2.4506 -0.4108
16889TIP3    H272083   6.651   0.310   1.679 -1.2502  0.0747 -1.7499
16890TIP3   OH272084   6.368   0.062  16.265  0.4406  0.2381  0.2832
16890TIP3    H172085   6.352   0.132  16.202  0.0162  0.7391  0.9305
16890TIP3    H272086   6.462   0.045  16.259  0.3548  0.0246 -0.7259
16891TIP3   OH272087   4.375   2.876   3.973 -0.4434  0.2122  0.6604
16891TIP3    H172088   4.364   2.797   4.026 -0.7265  0.9357  1.7109
16891TIP3    H272089   4.333   2.945   4.025  0.6355  1.2257  0.2105
16892TIP3   OH272090   6.035   5.101   6.575  0.0203  0.0749 -0.5490
16892TIP3    H172091   6.104   5.166   6.558 -0.6356  0.6747 -0.9796
16892TIP3    H272092   6.079   5.017   6.568  0.8484  0.4660 -0.1904
16893TIP3   OH272093   5.037   0.008  11.628  0.0424 -0.5531  0.1826
16893TIP3    H172094   4.970   0.056  11.676  0.6738 -0.3529  0.8714
16893TIP3    H272095   5.047   0.056  11.546 -0.0107 -0.0621  0.4656
16894TIP3   OH272096   1.327   6.185   0.538  0.4726  0.6172 -0.0343
16894TIP3    H172097   1.262   6.156   0.603 -1.7368  0.5916 -2.1222
16894TIP3    H272098   1.318   6.280   0.537 -0.9786  0.5084 -1.6489
16895TIP3   OH272099   3.019   2.580  11.922  0.1712 -0.1150 -0.2134
16895TIP3    H172100   3.010   2.621  12.008 -0.4698 -0.0219 -0.3199
16895TIP3    H272101   3.054   2.649  11.866  0.8283 -0.2482  0.0274
16896TIP3   OH272102   1.885   4.557  15.671 -0.1964  0.6098  0.5899
16896TIP3    H172103   1.937   4.505  15.610 -1.1439  1.4048 -0.9673
16896TIP3    H272104   1.938   4.561  15.751  0.8578 -0.8967  0.0190
16897TIP3   OH272105   4.249   6.476  15.623 -0.4764  0.3056  0.2487
16897TIP3    H172106   4.174   6.515  15.669 -0.9680  0.3375 -0.5467
16897TIP3    H272107   4.228   6.487  15.530  1.3463  1.9100 -0.0303
16898TIP3   OH272108   5.588   4.930   6.130  0.1788  0.0298  0.6997
16898TIP3    H172109   5.586   5.015   6.086  0.0008 -0.2477  0.1570
16898TIP3    H272110   5.501   4.921   6.168 -0.1564 -0.3696 -0.1471
16899TIP3   OH272111   0.834   1.594  14.114  0.4233  0.1626  0.2969
16899TIP3    H172112   0.903   1.610  14.050  0.4659  0.6373  0.4603
16899TIP3    H272113   0.880   1.592  14.198  0.6240 -2.0478  0.2037
16900TIP3   OH272114   4.456   5.810   4.425 -0.2537  0.8036 -0.5568
16900TIP3    H172115   4.372   5.782   4.387 -0.2788  0.3951 -0.2037
16900TIP3    H272116   4.502   5.729   4.445 -0.3395  0.9993  0.4976
16901TIP3   OH272117   2.322   1.639  15.081 -0.1530 -0.1584  0.4514
16901TIP3    H172118   2.399   1.585  15.097  1.0459 -0.0786 -3.8250
16901TIP3    H272119   2.308   1.685  15.164  3.1295 -1.7089  2.0745
16902TIP3   OH272120   6.293   4.164   2.687  0.3378  0.5649 -0.0130
16902TIP3    H172121   6.382   4.179   2.719 -0.0609  2.5324  0.3210
16902TIP3    H272122   6.274   4.242   2.634  0.0522 -1.4185 -3.0622
16903TIP3   OH272123   4.224   4.833   5.567 -0.1068 -0.2126  0.8258
16903TIP3    H172124   4.186   4.751   5.597  0.2493 -0.7182 -0.0531
16903TIP3    H272125   4.314   4.831   5.600 -0.2459  0.0648  1.2308
16904TIP3   OH272126   0.543   0.597   4.222 -0.9072  0.5262  0.0016
16904TIP3    H172127   0.523   0.596   4.315  1.8273  1.0552  0.6552
16904TIP3    H272128   0.615   0.659   4.213 -0.8669  0.2391 -2.4354
16905TIP3   OH272129   3.805   0.179  17.282 -0.1086 -0.7215  0.4605
16905TIP3    H172130   3.733   0.117  17.272 -1.0652  0.4606 -0.3940
16905TIP3    H272131   3.779   0.254  17.227 -0.2578  1.5400  3.3535
16906TIP3   OH272132   1.890   0.820   5.005  0.0814 -0.4396  0.0087
16906TIP3    H172133   1.964   0.807   5.064  0.8980  1.4073 -0.5166
16906TIP3    H272134   1.927   0.807   4.917  0.2503  1.9638 -0.3566
16907TIP3   OH272135   5.264   1.248   3.196 -0.0232  0.3758 -0.1756
16907TIP3    H172136   5.347   1.250   3.149 -0.8346 -1.3119 -1.8036
16907TIP3    H272137   5.285   1.210   3.281  0.7217 -1.0701 -0.9759
16908TIP3   OH272138   5.440   6.653   1.401 -0.0582  0.0705 -0.0390
16908TIP3    H172139   5.385   6.577   1.382  0.1752  0.3186 -1.9258
16908TIP3    H272140   5.513   6.646   1.340  0.4316  1.3421  0.3590
16909TIP3   OH272141   5.842   1.769  11.852  0.6602  0.1088 -0.4906
16909TIP3    H172142   5.838   1.683  11.810  1.7832 -0.1719 -0.0686
16909TIP3    H272143   5.846   1.831  11.779  0.6635 -0.2521 -0.8004
16910TIP3   OH272144   6.407   5.138  12.806 -0.6005  0.3177  0.1176
16910TIP3    H172145   6.345   5.094  12.864 -0.2132  0.0030  0.3011
16910TIP3    H272146   6.474   5.072  12.788  0.8312  1.2651  1.6665
16911TIP3   OH272147   0.218   3.430  14.557 -0.5170  0.6602 -0.0613
16911TIP3    H172148   0.251   3.443  14.646 -1.0439 -2.0713  0.6061
16911TIP3    H272149   0.129   3.465  14.560  0.1901  2.6331 -0.2208
16912TIP3   OH272150   4.786   5.325   6.345  0.0093 -0.0934  0.0786
16912TIP3    H172151   4.800   5.306   6.252 -0.2944 -0.1590  0.0465
16912TIP3    H272152   4.848   5.267   6.391 -1.0238 -1.3088 -0.0082
16913TIP3   OH272153   1.189   0.917  14.456  0.1948 -0.5739  0.0015
16913TIP3    H172154   1.278   0.950  14.439 -0.6676  1.6006 -0.7081
16913TIP3    H272155   1.133   0.972  14.401 -1.4971 -2.8227 -0.6426
16914TIP3   OH272156   4.672   6.709  16.056  0.2067  0.4219 -0.4970
16914TIP3    H172157   4.672   6.782  16.118 -2.2079  0.3903 -0.3631
16914TIP3    H272158   4.651   6.750  15.972  1.2807  0.1810 -0.8888
16915TIP3   OH272159   1.081   3.484  16.323 -0.0350 -0.2178  0.8612
16915TIP3    H172160   1.161   3.444  16.291  0.9117  1.5851  0.8571
16915TIP3    H272161   1.030   3.411  16.358  1.3077 -1.4816  0.2824
16916TIP3   OH272162   0.618   5.597   2.692  0.5345  0.4724 -0.1056
16916TIP3    H172163   0.633   5.596   2.597  0.0036  1.9680 -0.2421
16916TIP3    H272164   0.693   5.645   2.728  2.1640 -2.3810  0.5976
16917TIP3   OH272165   2.726   3.429   2.637 -0.0535 -0.5078 -0.3547
16917TIP3    H172166   2.817   3.442   2.662 -0.5853  0.5208  1.2034
16917TIP3    H272167   2.726   3.347   2.589  1.7906 -0.1953 -0.9821
16918TIP3   OH272168   3.210   1.972   3.550  0.4821  0.2243  0.5864
16918TIP3    H172169   3.228   2.021   3.470 -1.0980 -1.4764 -0.9042
16918TIP3    H272170   3.274   1.901   3.549 -1.6382 -1.8344 -1.1267
16919TIP3   OH272171   5.719   0.976  14.750  0.1326 -0.1094  0.0383
16919TIP3    H172172   5.770   1.035  14.694  1.5044 -0.0583  1.2932
16919TIP3    H272173   5.781   0.947  14.817 -1.2599 -0.7909  1.0691
16920TIP3   OH272174   6.625   2.935  16.087 -0.5254 -0.5405  0.0203
16920TIP3    H172175   6.576   2.963  16.163  0.1337  0.2154  0.1846
16920TIP3    H272176   6.580   2.857  16.056 -2.6222  0.8459 -0.6200
16921TIP3   OH272177   1.209   3.835   1.486 -0.2804  0.6445  0.0443
16921TIP3    H172178   1.177   3.924   1.499  0.9373  0.9156  1.4181
16921TIP3    H272179   1.262   3.840   1.406 -1.3827  0.7992 -0.6983
16922TIP3   OH272180   1.805   0.632   0.279 -0.2020 -0.2724  0.2972
16922TIP3    H172181   1.796   0.582   0.198  0.0170  0.8369 -0.4289
16922TIP3    H272182   1.825   0.721   0.251  2.3388 -0.3458  1.6052
16923TIP3   OH272183   3.767   0.705   5.636 -0.8146 -0.2182  0.0297
16923TIP3    H172184   3.820   0.755   5.699 -0.5004  0.0046 -0.3970
16923TIP3    H272185   3.815   0.623   5.624 -0.0284  0.3637 -1.0675
16924TIP3   OH272186   3.849   6.194  16.849 -0.1155  0.1556 -0.1681
16924TIP3    H172187   3.805   6.239  16.921 -0.3016  1.8734 -1.2862
16924TIP3    H272188   3.848   6.102  16.874  0.4743  0.7503  2.3495
16925TIP3   OH272189   0.165   4.426  16.914  0.4676  0.0968  0.1247
16925TIP3    H172190   0.178   4.382  16.830  2.8867 -0.9064  0.9278
16925TIP3    H272191   0.100   4.372  16.960 -0.8775  0.6646 -1.0602
16926TIP3   OH272192   1.568   6.028  13.994 -0.3826  0.5632 -0.5617
16926TIP3    H172193   1.546   6.030  13.901 -0.9564  0.7856 -0.4276
16926TIP3    H272194   1.567   5.935  14.017  1.1775  0.3955 -1.0918
16927TIP3   OH272195   4.452   5.927  17.335 -0.0170 -0.7480 -0.5307
16927TIP3    H172196   4.368   5.961  17.302 -0.6264 -1.6804  0.0167
16927TIP3    H272197   4.486   5.874  17.263 -0.0524 -0.6212 -0.6406
16928TIP3   OH272198   6.524   0.457  13.144 -0.3302  0.0632  0.1293
16928TIP3    H172199   6.458   0.496  13.201 -2.8653 -2.0821 -1.1564
16928TIP3    H272200   6.593   0.427  13.204 -1.1629  1.0601  1.6586
16929TIP3   OH272201   6.168   6.366  14.036  0.7030  0.4481  0.2899
16929TIP3    H172202   6.210   6.304  14.095  1.4381  1.3816  0.7828
16929TIP3    H272203   6.142   6.314  13.960  2.2941 -0.2507  0.1969
16930TIP3   OH272204   1.558   2.015   2.728  0.3906 -0.0582  0.1355
16930TIP3    H172205   1.492   2.075   2.761  0.6920  0.3003  0.0928
16930TIP3    H272206   1.641   2.062   2.738  0.4775  0.1585 -1.3185
16931TIP3   OH272207   3.890   5.186   1.524  0.1774 -0.3383 -0.6131
16931TIP3    H172208   3.798   5.180   1.498  0.0120 -0.5264  0.0176
16931TIP3    H272209   3.921   5.095   1.526 -0.0862 -0.4062  0.8283
16932TIP3   OH272210   1.654   6.184  12.834 -0.2042  0.4137  0.0657
16932TIP3    H172211   1.742   6.160  12.863 -0.0543  0.6833 -0.1656
16932TIP3    H272212   1.605   6.101  12.834  0.4571 -0.0014 -1.2736
16933TIP3   OH272213   5.491   6.465  14.367 -0.5735  0.0626 -0.3197
16933TIP3    H172214   5.517   6.555  14.387 -0.6245 -0.2949  1.5283
16933TIP3    H272215   5.407   6.473  14.323 -1.4425  0.8753  1.4203
16934TIP3   OH272216   1.523   5.860  16.442 -0.2352  0.2278 -0.8529
16934TIP3    H172217   1.441   5.869  16.392  0.3911  0.1125 -1.9280
16934TIP3    H272218   1.500   5.888  16.530 -1.8915 -1.4309 -0.6779
16935TIP3   OH272219   2.966   6.748   0.163 -0.1011 -0.4898 -0.3092
16935TIP3    H172220   2.958   6.799   0.082  0.0220 -0.7090 -0.4623
16935TIP3    H272221   2.894   6.779   0.218  0.6943  0.7332  0.0973
16936TIP3   OH272222   4.013   2.360   4.335  0.5808 -0.0473  0.1198
16936TIP3    H172223   3.949   2.309   4.385  2.9952 -0.3952  3.1115
16936TIP3    H272224   3.996   2.336   4.244 -2.2241 -1.5860  0.9083
16937TIP3   OH272225   0.213   1.249  11.605  0.0158  0.0368  0.4875
16937TIP3    H172226   0.254   1.178  11.556  1.0418 -0.0213  1.3832
16937TIP3    H272227   0.119   1.233  11.596  0.1851 -0.2813 -0.9656
16938TIP3   OH272228   3.285   2.173  15.684 -0.1754  0.1001 -0.6732
16938TIP3    H172229   3.379   2.189  15.688  0.0338 -1.0094  3.4113
16938TIP3    H272230   3.245   2.260  15.693  0.5441  0.2861  0.9080
16939TIP3   OH272231   5.691   4.655  16.970  0.3285  0.3283  0.0691
16939TIP3    H172232   5.674   4.663  17.064 -3.0990 -0.0503 -0.3650
16939TIP3    H272233   5.671   4.742  16.935 -0.1902 -0.0094 -0.4890
16940TIP3   OH272234   6.267   5.430  16.589  0.5385 -0.3990 -0.2132
16940TIP3    H172235   6.194   5.380  16.552 -0.6552  0.7137  0.5837
16940TIP3    H272236   6.288   5.385  16.671  1.2248 -1.1189 -0.7686
16941TIP3   OH272237   5.828   6.568  17.182  0.1522  1.0625 -0.3087
16941TIP3    H172238   5.887   6.503  17.145 -0.2871  0.0490  0.7153
16941TIP3    H272239   5.772   6.594  17.108 -1.5543 -1.8498 -0.1963
16942TIP3   OH272240   1.059   6.698   6.804 -0.1387  0.1625  0.2575
16942TIP3    H172241   1.068   6.762   6.875 -1.8659  0.2885  0.3899
16942TIP3    H272242   1.088   6.745   6.726 -0.5490  0.8248  0.4985
16943TIP3   OH272243   3.632   6.695  17.298 -0.1434  0.3149 -0.2338
16943TIP3    H172244   3.597   6.607  17.286  2.2392 -0.5799 -1.1165
16943TIP3    H272245   3.588   6.748  17.231 -2.6858  0.2457  1.2243
16944TIP3   OH272246   5.787   6.107  11.675 -0.3269  0.4785 -0.0775
16944TIP3    H172247   5.731   6.065  11.610  1.6722  0.0206 -1.5978
16944TIP3    H272248   5.767   6.200  11.669 -1.5478  0.2420  0.0806
16945TIP3   OH272249   2.635   1.882  16.028  0.5905  0.4130  0.1222
16945TIP3    H172250   2.590   1.865  15.945  0.5115 -0.3538  0.3140
16945TIP3    H272251   2.705   1.943  16.005  1.6510 -1.0822 -0.8524
16946TIP3   OH272252   4.170   4.466  11.439 -0.0583 -0.0459  0.0293
16946TIP3    H172253   4.218   4.508  11.511 -1.5114  0.5489  0.6977
16946TIP3    H272254   4.237   4.418  11.390  1.0202 -0.2591  1.6312
16947TIP3   OH272255   5.778   0.980   4.521  0.0693 -0.3221 -0.3219
16947TIP3    H172256   5.731   0.910   4.564  0.2098  0.1724  0.6667
16947TIP3    H272257   5.713   1.023   4.466 -0.6691  0.3753  1.0530
16948TIP3   OH272258   4.522   4.401  11.576 -0.0223 -0.2946  0.5630
16948TIP3    H172259   4.609   4.440  11.587  0.1690 -0.3760 -0.4951
16948TIP3    H272260   4.538   4.307  11.572 -0.4797 -0.5502  3.0772
16949TIP3   OH272261   4.981   2.166  12.603 -0.0729 -0.3618  0.8492
16949TIP3    H172262   5.028   2.104  12.547 -0.2655 -0.2496  0.5619
16949TIP3    H272263   5.044   2.236  12.620 -0.5414  0.4843 -0.6637
16950TIP3   OH272264   2.010   4.821  12.573 -0.5393 -0.5079 -0.0103
16950TIP3    H172265   1.941   4.876  12.610 -0.5401 -0.0712 -0.6513
16950TIP3    H272266   2.063   4.795  12.648 -0.1988  0.8292  0.2335
16951TIP3   OH272267   3.840   2.183  14.666 -0.2513  0.1367  0.3555
16951TIP3    H172268   3.806   2.168  14.578  1.5631 -0.4504 -0.2986
16951TIP3    H272269   3.766   2.218  14.716 -1.0098  1.6168 -1.7061
16952TIP3   OH272270   0.835   2.906   3.215 -0.5433 -0.7309 -0.8816
16952TIP3    H172271   0.887   2.895   3.135  1.0024  1.0485 -0.1958
16952TIP3    H272272   0.899   2.905   3.286 -1.5622  0.4896  0.1089
16953TIP3   OH272273   5.178   5.499   4.091 -0.2867  0.5042 -0.0912
16953TIP3    H172274   5.207   5.508   4.000  1.3499  0.4192  0.3898
16953TIP3    H272275   5.086   5.473   4.084  0.1624 -0.8599 -1.7477
16954TIP3   OH272276   5.188   2.094   0.732  0.8673  0.3603  0.3770
16954TIP3    H172277   5.112   2.137   0.772  1.3629 -0.0289  1.8005
16954TIP3    H272278   5.153   2.014   0.694  0.1752  1.3139 -1.1065
16955TIP3   OH272279   5.423   3.707  14.864 -0.3922  0.0663  0.6311
16955TIP3    H172280   5.489   3.638  14.860 -0.9169 -0.4352  0.5767
16955TIP3    H272281   5.393   3.707  14.955 -1.3163 -0.6578  0.3414
16956TIP3   OH272282   6.406   1.246  16.283  0.4650 -0.1912  0.0591
16956TIP3    H172283   6.363   1.327  16.255  1.1640 -0.1977 -1.0855
16956TIP3    H272284   6.341   1.178  16.265  0.1418  0.0316  0.3602
16957TIP3   OH272285   2.470   0.498  12.666 -0.4904 -0.0217 -0.1328
16957TIP3    H172286   2.562   0.495  12.639 -0.2196  0.1376  0.7595
16957TIP3    H272287   2.460   0.425  12.727 -1.0385 -0.2213 -0.4531
16958TIP3   OH272288   4.091   4.723   5.170 -0.0807  0.2692 -0.2798
16958TIP3    H172289   4.096   4.812   5.204 -3.6541  1.2474 -1.9084
16958TIP3    H272290   4.142   4.726   5.089  1.1328  0.3192  0.4549
16959TIP3   OH272291   6.360   5.181   3.414 -0.1113 -0.1905  0.0629
16959TIP3    H172292   6.276   5.209   3.450 -0.4325  0.2138 -0.9904
16959TIP3    H272293   6.424   5.202   3.483 -0.8000 -0.0482  0.6653
16960TIP3   OH272294   6.259   2.212  13.876  0.2844  0.0375  0.3316
16960TIP3    H172295   6.209   2.231  13.796 -0.8185 -0.0995  0.9614
16960TIP3    H272296   6.258   2.294  13.925  1.0343  0.1454  0.1774
16961TIP3   OH272297   5.480   2.812   3.520 -0.7343 -0.7310  0.3103
16961TIP3    H172298   5.552   2.757   3.491  1.4214  3.0480 -2.4324
16961TIP3    H272299   5.410   2.797   3.456  0.2205  0.2998 -1.0333
16962TIP3   OH272300   5.579   0.037   3.031  0.1880 -0.2688  0.2105
16962TIP3    H172301   5.541  -0.033   2.978 -0.5670  1.7748 -2.1489
16962TIP3    H272302   5.504   0.092   3.055  0.8613  0.2129  1.3249
16963TIP3   OH272303   3.824   2.278  13.284  0.1104 -0.2367  0.3908
16963TIP3    H172304   3.748   2.223  13.303  0.6836 -1.3033 -0.3438
16963TIP3    H272305   3.882   2.223  13.233  0.1508  1.4549 -1.5141
16964TIP3   OH272306   4.483   3.832   0.764 -0.5663 -0.4356 -0.0884
16964TIP3    H172307   4.532   3.775   0.704  0.0955  1.4619 -1.4289
16964TIP3    H272308   4.395   3.835   0.729 -0.2673  0.3933 -0.7899
16965TIP3   OH272309   4.401   2.200  16.433 -0.5155 -0.3036  0.6262
16965TIP3    H172310   4.448   2.123  16.401 -1.1508 -0.8771  1.0374
16965TIP3    H272311   4.334   2.164  16.492 -1.1235  0.5271  0.4588
16966TIP3   OH272312   5.383   6.666   0.395 -0.0302  0.6733 -0.2734
16966TIP3    H172313   5.359   6.589   0.446 -1.1163  0.3895 -1.1713
16966TIP3    H272314   5.463   6.699   0.437 -0.1533 -0.3042  0.7774
16967TIP3   OH272315   0.663   2.299  16.259 -0.4671  0.3838 -0.0939
16967TIP3    H172316   0.638   2.207  16.253  0.2957  0.2061 -0.6218
16967TIP3    H272317   0.661   2.318  16.353 -2.8721  0.4766 -0.0964
16968TIP3   OH272318   1.881   6.384  15.584  0.2943 -0.5640  0.0403
16968TIP3    H172319   1.900   6.303  15.538 -0.6285 -0.8802  0.2090
16968TIP3    H272320   1.962   6.403  15.632  0.5117 -1.4053  0.0283
16969TIP3   OH272321   5.638   0.882  14.297  0.1886  0.6238  0.1829
16969TIP3    H172322   5.696   0.864  14.371  0.5085  1.1428  0.0675
16969TIP3    H272323   5.594   0.799  14.280 -0.5386  0.7135  1.5013
16970TIP3   OH272324   6.731   6.621  13.027 -0.0006 -0.2435 -0.0528
16970TIP3    H172325   6.700   6.711  13.037  2.2104  0.4276  1.3640
16970TIP3    H272326   6.792   6.608  13.100 -0.2229 -2.8927 -0.2438
16971TIP3   OH272327   3.264   6.514   3.380 -0.2897 -0.8005 -0.2919
16971TIP3    H172328   3.294   6.518   3.289 -2.6212  0.9315 -1.0660
16971TIP3    H272329   3.245   6.604   3.404 -2.2216 -1.4903  1.0383
16972TIP3   OH272330   2.738   2.564  11.967 -0.1511 -0.4535 -0.9654
16972TIP3    H172331   2.817   2.519  11.936 -0.5472 -1.0550 -1.1022
16972TIP3    H272332   2.756   2.582  12.060  1.7619  2.8661 -1.7866
16973TIP3   OH272333   2.048   4.489  15.918  0.3194  0.0298 -0.3886
16973TIP3    H172334   1.976   4.426  15.926 -0.9514  1.5023  0.1973
16973TIP3    H272335   2.010   4.573  15.943  2.7793  0.5405  2.1367
16974TIP3   OH272336   2.187   2.294  16.817 -0.0459 -0.0095  0.1023
16974TIP3    H172337   2.146   2.267  16.900 -0.2030 -0.3134 -0.0739
16974TIP3    H272338   2.267   2.339  16.844 -0.4718  0.5522  0.4485
16975TIP3   OH272339   5.550   2.765  17.090 -0.5178 -0.2822  0.1815
16975TIP3    H172340   5.630   2.813  17.110 -1.1913  0.6143  0.8249
16975TIP3    H272341   5.526   2.793  17.002 -0.9725  0.6804  0.6010
16976TIP3   OH272342   6.559   0.524   3.871  0.6486  0.3195 -0.1905
16976TIP3    H172343   6.471   0.508   3.905 -0.0154  1.6967 -1.1369
16976TIP3    H272344   6.617   0.509   3.946 -0.4336 -0.1015  0.5864
16977TIP3   OH272345   6.012   4.582   2.892 -0.2170  0.2765  0.4290
16977TIP3    H172346   6.058   4.614   2.815  0.7038  0.3834  0.9993
16977TIP3    H272347   5.957   4.511   2.860 -0.2739  0.6954 -0.4120
16978TIP3   OH272348   0.044   1.825  15.496 -0.2214 -0.0367  0.3326
16978TIP3    H172349  -0.037   1.867  15.523 -0.5369 -1.5476  1.8575
16978TIP3    H272350   0.113   1.875  15.541 -0.4578 -0.0742  0.7387
16979TIP3   OH272351   6.384   3.310  11.344  0.2215  0.1606  0.5460
16979TIP3    H172352   6.466   3.320  11.297 -1.7481 -0.5633 -3.4466
16979TIP3    H272353   6.405   3.252  11.418  3.2325  0.0041 -0.3145
16980TIP3   OH272354   3.617   6.315   5.757  0.6701 -0.0970 -0.9679
16980TIP3    H172355   3.556   6.352   5.693 -0.5419  0.7525  0.6011
16980TIP3    H272356   3.648   6.391   5.807  0.2586 -0.8852  0.5524
16981TIP3   OH272357   3.145   5.629  15.032  0.4858  0.3111  0.3805
16981TIP3    H172358   3.066   5.664  14.992  0.6489 -1.2884 -1.5724
16981TIP3    H272359   3.114   5.561  15.092  0.3495  0.1668  0.1482
16982TIP3   OH272360   6.648   2.977   6.533 -0.5663 -0.1458 -0.1806
16982TIP3    H172361   6.601   2.915   6.477  0.0376 -0.6487 -0.1433
16982TIP3    H272362   6.613   2.961   6.621  0.2678 -1.1196 -0.0118
16983TIP3   OH272363   1.426   4.886   1.272 -0.7722 -0.0375  0.1876
16983TIP3    H172364   1.331   4.892   1.287 -0.8555  1.1861 -0.6938
16983TIP3    H272365   1.459   4.974   1.288  0.1321 -0.3142 -0.0836
16984TIP3   OH272366   3.650   1.375  11.807 -0.1419 -0.8795  0.1502
16984TIP3    H172367   3.641   1.435  11.881 -0.5686  1.9875 -2.0851
16984TIP3    H272368   3.740   1.341  11.815 -0.0417 -0.3320  1.7308
16985TIP3   OH272369   0.201   2.252   1.526  0.2435  0.3868  0.2960
16985TIP3    H172370   0.148   2.173   1.534  0.8748  0.1087  2.1586
16985TIP3    H272371   0.181   2.286   1.438  1.6531 -3.0435 -1.5534
16986TIP3   OH272372   5.241   0.517  13.795 -0.6972 -0.1169  0.1600
16986TIP3    H172373   5.215   0.458  13.865  3.1021 -0.1662  1.7429
16986TIP3    H272374   5.243   0.463  13.716 -2.8601 -0.5921  0.3792
16987TIP3   OH272375   5.210   1.546   1.681  0.2083  0.3861 -0.1580
16987TIP3    H172376   5.210   1.454   1.707 -0.9441 -0.4992 -2.8663
16987TIP3    H272377   5.293   1.558   1.635  0.3762  0.7137  0.2288
16988TIP3   OH272378   5.067   3.514  16.578  0.0207 -0.1513 -0.1897
16988TIP3    H172379   5.084   3.502  16.485 -1.5606  1.0259 -0.6692
16988TIP3    H272380   5.151   3.493  16.621  1.6273  1.9752 -2.0834
16989TIP3   OH272381   4.350   4.377  14.435 -0.9227 -0.4372  0.3332
16989TIP3    H172382   4.422   4.340  14.385 -2.5912 -1.4659 -1.4378
16989TIP3    H272383   4.343   4.321  14.512 -0.8271 -1.3452 -0.3007
16990TIP3   OH272384   1.491   4.927   0.923  0.3689  0.2827  0.0441
16990TIP3    H172385   1.426   4.913   0.992 -0.5042 -0.6627 -0.9165
16990TIP3    H272386   1.513   5.020   0.928 -0.8568  0.5607  0.5800
16991TIP3   OH272387   2.571   5.417   2.320 -0.4151  0.4817  0.2103
16991TIP3    H172388   2.611   5.491   2.274 -3.0653 -0.4718 -4.1759
16991TIP3    H272389   2.500   5.456   2.370 -0.8252  1.1223 -0.8269
16992TIP3   OH272390   5.174   0.194  11.337  0.0010 -0.2843  0.2058
16992TIP3    H172391   5.201   0.103  11.323 -1.6673 -0.8156  0.2247
16992TIP3    H272392   5.247   0.246  11.305  1.5784 -1.6261  1.4212
16993TIP3   OH272393   3.851   2.290  15.263  0.2256  0.4382 -0.6714
16993TIP3    H172394   3.883   2.355  15.200  2.0412  1.5334  1.2805
16993TIP3    H272395   3.866   2.330  15.349 -1.5014 -1.3058  0.5178
16994TIP3   OH272396   1.102   5.558   6.313  0.1844  0.2336 -0.4311
16994TIP3    H172397   1.184   5.590   6.350  0.1191  1.2960 -1.1555
16994TIP3    H272398   1.057   5.637   6.282 -2.3772  0.0327  2.3641
16995TIP3   OH272399   2.805   6.523   2.085  0.7603 -0.4856 -0.2874
16995TIP3    H172400   2.727   6.567   2.052  0.7180 -1.9583 -2.2782
16995TIP3    H272401   2.771   6.457   2.146  0.5778 -0.2335 -0.1110
16996TIP3   OH272402   1.572   2.867  13.373 -0.1836  0.1638 -0.2792
16996TIP3    H172403   1.587   2.961  13.381 -0.5704  0.2554 -0.6604
16996TIP3    H272404   1.657   2.832  13.344  0.1589  0.3016  0.5164
16997TIP3   OH272405   1.806   3.133   1.042  0.0305  0.2335  0.3318
16997TIP3    H172406   1.865   3.078   0.990 -1.3877 -1.0923  0.0727
16997TIP3    H272407   1.864   3.197   1.084  1.2322  1.7740 -3.2967
16998TIP3   OH272408   3.182   1.481  14.455  0.6073  0.4505 -0.6125
16998TIP3    H172409   3.113   1.436  14.504  0.8387  0.6249 -0.1205
16998TIP3    H272410   3.262   1.463  14.504  0.6366  1.7970 -0.1247
16999TIP3   OH272411   0.055   5.778   4.020  0.2037  0.1839  0.0927
16999TIP3    H172412  -0.009   5.739   4.080 -1.1415 -0.0105 -1.3766
16999TIP3    H272413   0.010   5.855   3.985  0.4449 -0.3888 -1.5663
17000TIP3   OH272414   0.899   5.942   2.473 -0.4180  0.2282 -0.8457
17000TIP3    H172415   0.858   5.910   2.553 -1.5507  1.9490 -0.6771
17000TIP3    H272416   0.826   5.976   2.421  0.4895  0.7077 -1.8400
17001TIP3   OH272417   2.629   2.344   2.870  0.1919  0.1459 -0.1041
17001TIP3    H172418   2.622   2.339   2.775  0.0302 -1.8916 -0.0227
17001TIP3    H272419   2.557   2.290   2.903  0.7250  0.1617  1.1530
17002TIP3   OH272420   5.111   1.257  12.094 -0.0781 -0.3320 -0.3381
17002TIP3    H172421   5.056   1.335  12.087  0.4131  0.1344  0.8226
17002TIP3    H272422   5.050   1.184  12.083 -0.4164  0.1777 -2.3312
17003TIP3   OH272423   6.072   1.400  13.255 -0.8510  0.3166 -0.0320
17003TIP3    H172424   6.161   1.416  13.285 -0.1476  3.1392 -3.1645
17003TIP3    H272425   6.019   1.463  13.304 -1.0506 -0.6563  1.0639
17004TIP3   OH272426   6.755   1.915  12.638  0.4981 -0.5847 -0.2405
17004TIP3    H172427   6.797   1.904  12.724  0.4783  1.5517  0.0961
17004TIP3    H272428   6.819   1.880  12.576  1.6328  0.1552  0.4720
17005TIP3   OH272429   0.318   3.278  12.417  0.0405 -0.3764  0.4641
17005TIP3    H172430   0.374   3.260  12.492  0.1209 -1.5827  0.1422
17005TIP3    H272431   0.254   3.206  12.418  0.5533 -0.8883 -1.0804
17006TIP3   OH272432   5.778   5.294  14.112 -0.4224  0.2691  0.0701
17006TIP3    H172433   5.782   5.202  14.085 -1.6819 -0.7629  3.0258
17006TIP3    H272434   5.757   5.341  14.032  0.3668 -1.9650 -1.5733
17007TIP3   OH272435   1.461   0.932  14.433 -0.2755 -0.0561 -0.1446
17007TIP3    H172436   1.513   0.914  14.355  2.3495  2.7974  0.7287
17007TIP3    H272437   1.473   1.026  14.449 -0.7353 -0.4675  3.6255
17008TIP3   OH272438   4.824   2.774  13.119 -0.6826 -1.3145  0.1490
17008TIP3    H172439   4.897   2.726  13.157  0.9245  0.4808 -0.5386
17008TIP3    H272440   4.801   2.725  13.041  0.0778 -1.6700  0.1401
17009TIP3   OH272441   2.754   3.479   5.143  0.3829  0.3849  0.6485
17009TIP3    H172442   2.719   3.409   5.089  1.2592  0.6657 -0.3090
17009TIP3    H272443   2.849   3.470   5.136  0.5620 -0.1760  2.9302
17010TIP3   OH272444   1.040   3.181  12.047 -0.2630 -0.2931 -0.5581
17010TIP3    H172445   1.071   3.092  12.029  0.8854 -0.1674  0.6057
17010TIP3    H272446   0.998   3.175  12.133 -0.7097  0.1811 -0.7381
17011TIP3   OH272447   3.620   4.327   5.889  0.1027  0.2489 -0.4812
17011TIP3    H172448   3.599   4.378   5.967  1.5114 -1.1658  0.8935
17011TIP3    H272449   3.542   4.274   5.873 -0.0080  0.1905  0.2505
17012TIP3   OH272450   4.653   5.563  11.910  0.9058  0.1805 -0.0942
17012TIP3    H172451   4.580   5.509  11.938 -0.6432  1.9698 -0.4444
17012TIP3    H272452   4.662   5.629  11.979  0.4396  1.5304 -1.2664
17013TIP3   OH272453   4.340   4.305  11.306  0.1478  0.1938 -0.5996
17013TIP3    H172454   4.352   4.341  11.218 -0.5482  0.6990 -0.4967
17013TIP3    H272455   4.429   4.287  11.337  0.5091  1.5481 -0.7801
17014TIP3   OH272456   6.018   3.720   1.286  0.1392  0.1363  0.4150
17014TIP3    H172457   6.045   3.729   1.194 -0.2518 -1.5285  0.1062
17014TIP3    H272458   6.039   3.630   1.308 -2.2438 -0.3191  1.1223
17015TIP3   OH272459   5.201   6.099  14.780  0.0112 -0.2562 -0.0863
17015TIP3    H172460   5.183   6.182  14.736 -1.5223 -0.4921  0.0186
17015TIP3    H272461   5.249   6.123  14.859 -0.2325  0.5134 -0.1701
17016TIP3   OH272462   5.594   3.960  11.861  0.1937  0.5923  0.0485
17016TIP3    H172463   5.631   4.037  11.905  0.9379  0.3553 -0.1554
17016TIP3    H272464   5.663   3.931  11.802 -0.1158 -0.1927  0.0679
17017TIP3   OH272465   6.427   3.347   5.995  0.3641 -0.3244 -0.4733
17017TIP3    H172466   6.415   3.393   6.078  0.2399  0.1962 -0.7726
17017TIP3    H272467   6.395   3.408   5.929  0.3493 -0.7813 -0.8970
17018TIP3   OH272468   2.152   1.745  13.152 -0.7696 -0.4802 -0.2653
17018TIP3    H172469   2.236   1.766  13.110 -0.5692 -0.9563 -0.1038
17018TIP3    H272470   2.169   1.665  13.202 -1.1693 -0.2607  0.2301
17019TIP3   OH272471   2.818   3.497  15.001 -0.2135  0.5178 -0.5085
17019TIP3    H172472   2.845   3.408  15.020 -0.3331  0.7169  0.7342
17019TIP3    H272473   2.816   3.503  14.906 -1.6161 -1.2331 -0.6414
17020TIP3   OH272474   6.048   3.718   1.022  0.1703  0.3861  0.3901
17020TIP3    H172475   6.054   3.771   0.942  2.0954  0.2161  0.3580
17020TIP3    H272476   5.965   3.672   1.014 -0.1341  1.1097 -1.0478
17021TIP3   OH272477   6.156   3.580  12.412 -0.1325  0.0386  0.7381
17021TIP3    H172478   6.102   3.515  12.457 -1.1567 -0.0793 -0.5781
17021TIP3    H272479   6.096   3.621  12.349  1.3451 -0.2972 -0.9868
17022TIP3   OH272480   6.131   1.575  13.500 -0.6359 -0.2411  0.7510
17022TIP3    H172481   6.109   1.643  13.436 -0.6096  0.4841  1.4912
17022TIP3    H272482   6.055   1.571  13.557 -0.4843 -0.5683  0.9288
17023TIP3   OH272483   4.725   2.079   3.196  0.2639  0.2787 -0.6558
17023TIP3    H172484   4.760   2.084   3.107 -0.4333  0.9147 -0.9120
17023TIP3    H272485   4.656   2.146   3.198 -0.2598 -0.2669  0.1243
17024TIP3   OH272486   6.023   2.586  10.401 -0.2934  0.5927  0.4198
17024TIP3    H172487   6.097   2.535  10.368 -0.2207  0.6344  0.5178
17024TIP3    H272488   5.952   2.567  10.340  0.2491  1.8331 -0.6350
17025TIP3   OH272489   6.599   6.297   0.004  0.0302 -0.1281  0.1683
17025TIP3    H172490   6.531   6.324  -0.057  0.3509 -0.1703 -0.2114
17025TIP3    H272491   6.674   6.275  -0.051 -0.1438 -1.6052  0.4576
17026TIP3   OH272492   4.436   1.195  16.237 -0.0926  0.1049  0.1621
17026TIP3    H172493   4.351   1.192  16.281  0.1402 -1.0837  0.5493
17026TIP3    H272494   4.419   1.244  16.156 -1.7076 -2.1026 -0.9506
17027TIP3   OH272495   0.578   2.965  12.315  0.4584  0.7011  0.0907
17027TIP3    H172496   0.501   3.009  12.279  0.8096  0.8655 -0.4758
17027TIP3    H272497   0.582   2.882  12.268 -0.0527  0.1647  0.9709
17028TIP3   OH272498   0.431   1.077   4.222 -0.4864  0.6323  0.4556
17028TIP3    H172499   0.518   1.065   4.183 -1.6829 -2.0568 -1.7393
17028TIP3    H272500   0.448   1.124   4.303  2.9428  0.7953 -0.1902
17029TIP3   OH272501   2.658   2.309   6.227 -0.4845  0.4989 -0.1093
17029TIP3    H172502   2.692   2.395   6.201  0.8707  0.1251  0.3747
17029TIP3    H272503   2.714   2.282   6.299 -1.0177 -0.7264 -0.1394
17030TIP3   OH272504   3.497   3.525  12.568  0.6288  0.4290  0.0023
17030TIP3    H172505   3.507   3.437  12.603 -0.3371  0.4107  0.2705
17030TIP3    H272506   3.418   3.559  12.610  0.9610  1.4096 -0.1306
17031TIP3   OH272507   5.386   4.109   1.946  0.1097  0.7972 -0.2151
17031TIP3    H172508   5.378   4.016   1.967 -0.4043  0.6860 -0.8849
17031TIP3    H272509   5.450   4.142   2.009  1.6433 -0.3710 -1.0901
17032TIP3   OH272510   0.088   4.645  16.007 -0.0409  0.4186 -0.4336
17032TIP3    H172511   0.076   4.593  16.086 -0.0530  1.8412  0.5405
17032TIP3    H272512   0.010   4.628  15.955 -0.1926 -0.2761  0.0048
17033TIP3   OH272513   5.525   1.971   2.037  0.2541  0.0493 -0.9583
17033TIP3    H172514   5.528   1.892   2.091  0.6266  0.1390 -0.8489
17033TIP3    H272515   5.432   1.983   2.018  0.0301  0.4731  0.3425
17034TIP3   OH272516   1.275   6.726  15.113  0.3602  0.3198 -0.2125
17034TIP3    H172517   1.296   6.634  15.130 -0.5497 -1.0478 -4.7973
17034TIP3    H272518   1.206   6.747  15.176 -0.2644 -2.5876  0.2263
17035TIP3   OH272519   6.598   5.713   4.187 -0.0422  0.5730 -0.2878
17035TIP3    H172520   6.602   5.808   4.194  0.6439  0.5943 -0.8930
17035TIP3    H272521   6.597   5.682   4.277 -1.6326  1.1940 -0.0490
17036TIP3   OH272522   1.415   4.435   3.363  0.0884  0.6093  0.2951
17036TIP3    H172523   1.449   4.506   3.417 -0.1051 -0.3675  1.7668
17036TIP3    H272524   1.435   4.461   3.273  1.9770  1.4939  0.9146
17037TIP3   OH272525   4.630   2.382  10.511  0.1833  0.9701 -0.2647
17037TIP3    H172526   4.706   2.329  10.537 -1.6847 -1.3330  0.9077
17037TIP3    H272527   4.628   2.453  10.576  0.2160 -0.1040  0.9544
17038TIP3   OH272528   1.823   5.327   5.807  0.5212 -0.2382 -0.6639
17038TIP3    H172529   1.875   5.406   5.822 -0.7647  0.1523  2.5596
17038TIP3    H272530   1.788   5.338   5.718  2.1106  1.7358 -1.1253
17039TIP3   OH272531   5.244   3.273   1.421 -0.4073 -0.1864 -0.1775
17039TIP3    H172532   5.244   3.178   1.416 -1.4422 -0.1392 -2.0717
17039TIP3    H272533   5.316   3.300   1.363 -1.4768  0.1860 -1.3825
17040TIP3   OH272534   2.531   4.691   3.931 -0.3079 -0.5357  0.5500
17040TIP3    H172535   2.625   4.678   3.917 -0.4266  0.7335 -2.3044
17040TIP3    H272536   2.489   4.623   3.878 -0.9401  0.0205  0.3082
17041TIP3   OH272537   3.595   3.590  14.920 -0.5584 -0.1664  0.6189
17041TIP3    H172538   3.616   3.548  15.003  1.9634  0.3871  0.3652
17041TIP3    H272539   3.655   3.665  14.915 -1.2122  0.3084 -1.3213
17042TIP3   OH272540   4.984   0.083   5.550 -0.1027 -0.3186 -0.0600
17042TIP3    H172541   5.052   0.150   5.542 -0.4930  0.1381  0.3888
17042TIP3    H272542   5.007   0.035   5.629 -1.0867  0.7559  0.9047
17043TIP3   OH272543   0.520   2.772  14.798 -0.3766  0.1620  0.2232
17043TIP3    H172544   0.482   2.858  14.809 -0.0544  0.4762 -0.9670
17043TIP3    H272545   0.564   2.776  14.713  0.8532 -0.7160  0.7876
17044TIP3   OH272546   2.425   5.197   3.181  0.1947 -0.6364 -0.0549
17044TIP3    H172547   2.377   5.123   3.218  1.1872 -2.3189 -1.9300
17044TIP3    H272548   2.376   5.220   3.102  1.2445 -0.9382 -0.8093
17045TIP3   OH272549   0.190   4.973   1.659  0.1054 -0.2846 -0.1486
17045TIP3    H172550   0.186   5.039   1.590 -0.0161 -0.2725 -0.1304
17045TIP3    H272551   0.100   4.945   1.671  0.2024 -0.6975 -0.3862
17046TIP3   OH272552   0.911   4.725  13.756  0.8615  0.3112  0.3226
17046TIP3    H172553   0.885   4.816  13.747 -0.5525 -0.0926  0.0302
17046TIP3    H272554   0.959   4.721  13.839 -0.2691  1.0791  1.0431
17047TIP3   OH272555   6.208   4.871   1.156 -0.3620  0.0494 -0.2723
17047TIP3    H172556   6.116   4.863   1.131 -0.2666  0.3893 -0.7407
17047TIP3    H272557   6.234   4.956   1.123  0.0069  0.1361  0.2372
17048TIP3   OH272558   1.550   5.697  11.580  0.1521  0.0312  0.3165
17048TIP3    H172559   1.510   5.750  11.510 -0.1735 -1.5006 -0.7170
17048TIP3    H272560   1.636   5.737  11.594 -0.5320  1.5315  0.4187
17049TIP3   OH272561   6.475   1.189  11.270  0.6990  0.5925 -0.3062
17049TIP3    H172562   6.494   1.245  11.345  0.6675  0.9537 -0.5642
17049TIP3    H272563   6.392   1.221  11.236  0.7686  0.5045 -0.5627
17050TIP3   OH272564   2.448   4.772   6.248 -0.1955  0.3430  0.0841
17050TIP3    H172565   2.410   4.859   6.260 -1.8435 -0.5094  1.4001
17050TIP3    H272566   2.396   4.715   6.304  0.8209 -1.5205 -0.7822
17051TIP3   OH272567   0.657   0.800   3.936  0.2293 -0.4510  1.0557
17051TIP3    H172568   0.576   0.850   3.945  0.5020 -0.1538  1.9034
17051TIP3    H272569   0.629   0.717   3.896 -0.7118 -0.9050  2.5641
17052TIP3   OH272570   1.569   5.920  11.036  0.1976 -0.6591 -0.6099
17052TIP3    H172571   1.658   5.949  11.054  0.2034 -1.3091  0.5093
17052TIP3    H272572   1.575   5.825  11.031 -0.7951 -0.9696  2.1349
17053TIP3   OH272573   5.735   2.606   3.885  0.5820 -0.3031 -0.3252
17053TIP3    H172574   5.733   2.662   3.962  1.3829 -0.0941 -0.4517
17053TIP3    H272575   5.757   2.519   3.918  0.3743 -0.3311 -0.2571
17054TIP3   OH272576   3.372   5.972  13.394 -0.5501  0.5190  0.2751
17054TIP3    H172577   3.434   6.021  13.340 -0.1948 -0.6228 -0.3952
17054TIP3    H272578   3.398   5.992  13.484  1.6733 -0.8855  0.0404
17055TIP3   OH272579   5.530   1.740   4.772 -0.3378 -0.0655  0.1800
17055TIP3    H172580   5.601   1.778   4.824  0.0645  0.4983 -0.7533
17055TIP3    H272581   5.553   1.647   4.765 -0.2331 -0.0856  0.7366
17056TIP3   OH272582   2.405   0.563   2.983 -0.4729  0.2817  0.1759
17056TIP3    H172583   2.386   0.484   2.932  0.2435 -0.5769  1.2068
17056TIP3    H272584   2.500   0.572   2.980 -0.5202  0.9016  0.3789
17057TIP3   OH272585   5.656   0.582   2.925 -0.6913 -0.2150  0.7141
17057TIP3    H172586   5.745   0.581   2.960  0.3879 -1.3158 -1.7966
17057TIP3    H272587   5.642   0.672   2.897  0.1476 -0.3174 -0.0533
17058TIP3   OH272588   3.851   2.344   0.089 -0.3853 -0.4318  0.1954
17058TIP3    H172589   3.803   2.404   0.031  0.5514  0.7304  0.5725
17058TIP3    H272590   3.806   2.260   0.080  0.1054 -0.4763 -2.7124
17059TIP3   OH272591   4.432   5.985  15.586  0.1620  0.2907  0.4567
17059TIP3    H172592   4.518   5.971  15.626 -0.1435 -1.0600  0.6809
17059TIP3    H272593   4.405   5.899  15.556 -1.9982  0.2928  2.1806
17060TIP3   OH272594   1.575   2.936   1.024  0.0170 -0.8582 -0.1234
17060TIP3    H172595   1.586   2.857   0.972 -2.8446 -0.6284 -1.2935
17060TIP3    H272596   1.627   3.003   0.980 -0.9928 -1.0892 -1.7239
17061TIP3   OH272597   1.116   6.122   2.472 -0.4853  0.2020 -0.1853
17061TIP3    H172598   1.063   6.045   2.490 -0.7017  0.7007  1.5278
17061TIP3    H272599   1.055   6.184   2.432 -0.5000 -0.2308 -0.8342
17062TIP3   OH272600   3.741   4.367   2.934 -0.3037 -0.1899  0.0338
17062TIP3    H172601   3.713   4.331   3.018  1.0630  1.9594  1.5172
17062TIP3    H272602   3.827   4.328   2.918  0.2369  0.7479  0.5757
17063TIP3   OH272603   1.746   4.704   3.563 -0.0330  0.3233  0.2365
17063TIP3    H172604   1.791   4.693   3.479  0.6808  0.7396  0.5617
17063TIP3    H272605   1.655   4.681   3.544 -0.1230  1.4869 -0.9355
17064TIP3   OH272606   3.685   4.774   5.850 -0.3613  0.1859  0.1159
17064TIP3    H172607   3.623   4.737   5.787 -1.5753  0.3877  1.1719
17064TIP3    H272608   3.679   4.717   5.927  0.7689  0.2204  0.2570
17065TIP3   OH272609   3.898   0.862   5.806 -0.1263 -0.3000  0.3925
17065TIP3    H172610   3.900   0.945   5.758 -2.6407 -0.9712 -1.0453
17065TIP3    H272611   3.894   0.888   5.898 -0.6851  1.1743 -0.0190
17066TIP3   OH272612   1.379   1.908  16.048  0.0074  1.1097  0.6663
17066TIP3    H172613   1.401   1.988  16.096 -1.1516  0.5988  2.1319
17066TIP3    H272614   1.450   1.848  16.068 -0.6999  0.7385  2.2128
17067TIP3   OH272615   6.662   0.678   0.461  0.9494 -0.5907 -0.9644
17067TIP3    H172616   6.626   0.660   0.548  1.2441  0.7660 -0.5430
17067TIP3    H272617   6.594   0.728   0.416  1.2869 -0.2368 -1.0830
17068TIP3   OH272618   4.050   5.256   2.255 -0.1801 -0.2937  0.3553
17068TIP3    H172619   4.128   5.258   2.199 -0.6550  2.2298 -0.3347
17068TIP3    H272620   3.985   5.308   2.208 -1.8979 -1.3165  1.5009
17069TIP3   OH272621   6.330   6.211   5.950 -0.0540  0.4523 -0.4787
17069TIP3    H172622   6.359   6.248   6.034  1.8643 -0.9324 -0.4618
17069TIP3    H272623   6.403   6.227   5.890 -1.4088  1.4516 -1.9483
17070TIP3   OH272624   1.431   2.480  13.332 -0.4596  0.1319  0.0617
17070TIP3    H172625   1.342   2.445  13.323 -0.3060 -0.4116  0.5996
17070TIP3    H272626   1.452   2.515  13.245 -0.6680 -0.9979 -0.4559
17071TIP3   OH272627   4.949   0.397  15.597  0.1710 -0.3539 -0.7328
17071TIP3    H172628   4.904   0.444  15.668  1.4652 -0.1491 -0.0178
17071TIP3    H272629   4.992   0.323  15.641  1.8127  0.3326 -1.1038
17072TIP3   OH272630   0.600   0.594   0.747  0.0366  0.6514  0.0804
17072TIP3    H172631   0.559   0.625   0.667  0.9060  1.1121 -0.2009
17072TIP3    H272632   0.557   0.644   0.817 -1.0119 -0.0535 -0.0471
17073TIP3   OH272633   4.308   2.868   2.305 -0.6332  0.3598  0.0220
17073TIP3    H172634   4.272   2.817   2.378  0.5409 -3.1965 -1.6191
17073TIP3    H272635   4.402   2.871   2.323 -0.5425  0.8809 -0.5277
17074TIP3   OH272636   1.114   4.420   3.380 -0.0313  0.0759  0.7265
17074TIP3    H172637   1.206   4.445   3.368 -0.4065  1.2985  0.2311
17074TIP3    H272638   1.117   4.327   3.401  1.2458 -0.2277 -0.5961
17075TIP3   OH272639   0.044   2.730  13.344 -0.1057  0.4344  0.6070
17075TIP3    H172640   0.089   2.805  13.306 -0.3103  1.0401  1.5352
17075TIP3    H272641   0.058   2.738  13.438 -0.0253 -0.7628  0.7130
17076TIP3   OH272642   5.124   4.630  11.501  0.3640 -0.9087  0.3627
17076TIP3    H172643   5.076   4.712  11.513  0.5116 -0.7235 -0.2353
17076TIP3    H272644   5.072   4.582  11.436  1.0986 -0.5976 -0.4830
17077TIP3   OH272645   1.677   1.849   6.287  0.0432  0.3677  0.9326
17077TIP3    H172646   1.739   1.878   6.354  0.4861 -0.6939  0.9970
17077TIP3    H272647   1.592   1.882   6.316  0.4548  1.1856  1.2374
17078TIP3   OH272648   1.663   5.585  14.628  0.2235 -0.3558 -0.2477
17078TIP3    H172649   1.588   5.544  14.671  0.4393  0.8793  1.4155
17078TIP3    H272650   1.632   5.606  14.539 -0.6176 -1.9441 -0.3525
17079TIP3   OH272651   1.192   6.525   4.987  0.4567 -0.6106  0.3670
17079TIP3    H172652   1.145   6.496   5.066  0.5347  0.8438  0.9689
17079TIP3    H272653   1.129   6.578   4.939 -0.4482 -3.4360 -1.8970
17080TIP3   OH272654   2.512   1.392   6.349 -0.4617 -0.3789 -0.4137
17080TIP3    H172655   2.562   1.458   6.302 -0.1155  0.5388  1.1414
17080TIP3    H272656   2.425   1.395   6.310  0.0242 -0.2424 -1.5133
17081TIP3   OH272657   1.928   3.626  16.152 -0.5057  0.7531 -0.2523
17081TIP3    H172658   1.878   3.632  16.233  1.0039  1.7836  0.6309
17081TIP3    H272659   1.905   3.539  16.117 -0.9547  0.1633  1.4113
17082TIP3   OH272660   0.951   6.441   0.145  0.1260  0.4951  0.4081
17082TIP3    H172661   1.036   6.401   0.161  0.8474  2.3569  1.5591
17082TIP3    H272662   0.890   6.367   0.139  1.7498 -0.8543 -0.1249
17083TIP3   OH272663   2.976   2.461   3.773  0.1862  0.0508 -0.1267
17083TIP3    H172664   2.889   2.452   3.810  0.3055  0.1882  0.1893
17083TIP3    H272665   2.999   2.373   3.743  0.8923 -0.5160  1.9090
17084TIP3   OH272666   0.492   1.986  11.102  0.0007 -0.4245  0.2659
17084TIP3    H172667   0.511   2.028  11.186 -2.1942  1.0615  0.1083
17084TIP3    H272668   0.575   1.987  11.055  0.5974  1.5590  1.2505
17085TIP3   OH272669   6.132   5.676  14.146  0.1546 -0.4256 -0.6761
17085TIP3    H172670   6.127   5.654  14.053 -0.7104  0.9211 -0.9894
17085TIP3    H272671   6.079   5.609  14.189 -2.6139  0.9554 -1.6170
17086TIP3   OH272672   3.330   4.130   1.709  0.3317  0.0417  0.0357
17086TIP3    H172673   3.250   4.097   1.749  1.1617 -0.8330  1.0343
17086TIP3    H272674   3.364   4.193   1.772 -0.0243  1.0910 -0.7986
17087TIP3   OH272675   2.654   4.890   3.170 -0.0087 -0.0831 -0.5345
17087TIP3    H172676   2.668   4.795   3.163 -1.7121 -0.3672 -0.5187
17087TIP3    H272677   2.580   4.898   3.231  1.5397  1.3758  1.2818
17088TIP3   OH272678   6.557   3.038  12.721 -0.1773 -0.2892 -0.4941
17088TIP3    H172679   6.559   3.119  12.670  1.4154 -1.0373 -1.6863
17088TIP3    H272680   6.591   3.063  12.807  0.6286  0.2607 -0.9573
17089TIP3   OH272681   4.556   2.829  12.275 -0.2872 -0.1097 -0.2036
17089TIP3    H172682   4.616   2.787  12.214 -1.5636 -1.7541 -0.3883
17089TIP3    H272683   4.507   2.892  12.221 -0.3150 -0.4213 -0.5419
17090TIP3   OH272684   6.584   4.141  15.714 -0.4226 -0.6139  0.1056
17090TIP3    H172685   6.644   4.079  15.754 -1.7863 -2.5793 -0.7004
17090TIP3    H272686   6.629   4.225  15.718  1.3542 -1.5713  1.5909
17091TIP3   OH272687   5.506   2.402  11.919 -0.0452  0.3263  0.5629
17091TIP3    H172688   5.451   2.467  11.962 -1.7253 -1.4675  1.2847
17091TIP3    H272689   5.491   2.415  11.826  0.4744  1.6174  0.6329
17092TIP3   OH272690   6.498   5.124   3.903  0.2282 -0.2003 -0.2221
17092TIP3    H172691   6.498   5.105   3.996 -1.4128  0.8171  0.0315
17092TIP3    H272692   6.497   5.038   3.860 -1.8946 -0.7282  0.7679
17093TIP3   OH272693   4.998   5.908   4.785 -0.0016 -0.3309  0.2056
17093TIP3    H172694   5.081   5.944   4.816 -0.4019  0.0819  0.8136
17093TIP3    H272695   5.013   5.813   4.782  0.1642 -0.3565  1.3279
17094TIP3   OH272696   6.698   0.362   3.326  0.1936  0.4795  0.1842
17094TIP3    H172697   6.648   0.421   3.383 -1.6975  0.0326 -0.9188
17094TIP3    H272698   6.784   0.404   3.317 -0.1194  1.5407  1.7660
17095TIP3   OH272699   1.826   5.651   0.406 -0.1380  0.2202 -0.0959
17095TIP3    H172700   1.817   5.737   0.446  1.0844  1.1461 -1.7299
17095TIP3    H272701   1.899   5.659   0.345 -0.9599 -1.5386 -1.4290
17096TIP3   OH272702   6.011   3.032   4.157  0.2646  0.1467 -0.1559
17096TIP3    H172703   6.002   3.009   4.249 -0.3052  1.1076  0.0398
17096TIP3    H272704   6.072   2.967   4.122 -0.0493 -0.6481  0.7331
17097TIP3   OH272705   1.313   0.320   1.646 -0.4372 -0.3064  0.3817
17097TIP3    H172706   1.359   0.274   1.717 -1.8380 -3.3536 -0.4928
17097TIP3    H272707   1.330   0.413   1.662  1.5648 -1.0072  3.0806
17098TIP3   OH272708   0.362   6.128   1.484  0.4089  0.7010 -0.3409
17098TIP3    H172709   0.344   6.202   1.542  0.2919 -0.2529  0.8639
17098TIP3    H272710   0.290   6.130   1.420  0.1569  1.3423 -0.0512
17099TIP3   OH272711   2.020   1.718  16.762 -0.5581 -0.3934  0.2059
17099TIP3    H172712   1.967   1.648  16.800 -0.8755  0.4077  1.2903
17099TIP3    H272713   2.105   1.710  16.806 -0.7714  0.2324  0.7489
17100TIP3   OH272714   0.241   2.990   3.686  0.1107  0.1521  0.2816
17100TIP3    H172715   0.265   3.074   3.725 -0.5708  0.2488  0.5101
17100TIP3    H272716   0.306   2.929   3.719  0.2805  0.4824  0.5686
17101TIP3   OH272717   1.241   5.204  11.466 -0.4700 -0.3066  0.1390
17101TIP3    H172718   1.222   5.273  11.401  1.6770 -0.7175 -1.0240
17101TIP3    H272719   1.180   5.133  11.444 -1.0532  0.2797 -0.1985
17102TIP3   OH272720   1.898   3.733   2.349 -0.0733  0.2594 -0.1716
17102TIP3    H172721   1.885   3.797   2.418 -2.6224 -0.0127 -0.3129
17102TIP3    H272722   1.860   3.773   2.271  0.3856 -0.4873 -0.7954
17103TIP3   OH272723   1.297   3.088  13.215  0.8302 -1.0632  0.4598
17103TIP3    H172724   1.286   3.148  13.141  0.7378 -1.1347  0.4161
17103TIP3    H272725   1.211   3.047  13.226  1.1443 -1.8793 -0.1040
17104TIP3   OH272726   5.488   3.481   5.427  0.2071  0.4204  0.2613
17104TIP3    H172727   5.526   3.425   5.359  3.4413  0.9554  1.4881
17104TIP3    H272728   5.533   3.564   5.418 -1.1122  1.3136  1.5236
17105TIP3   OH272729   5.045   2.869   2.146  0.4728  0.6215  0.0514
17105TIP3    H172730   5.021   2.821   2.067  1.6970  1.1652 -0.6882
17105TIP3    H272731   5.115   2.928   2.117  1.0174  0.7548  1.5651
17106TIP3   OH272732   2.431   5.018  10.832 -0.7202 -0.0992 -0.0993
17106TIP3    H172733   2.454   4.931  10.865  2.1986 -0.2086 -2.0470
17106TIP3    H272734   2.336   5.013  10.818 -0.7262 -2.8419  0.2224
17107TIP3   OH272735   1.397   1.920  12.591 -0.2789 -0.1095  0.7946
17107TIP3    H172736   1.482   1.899  12.631 -0.8605  1.8032  3.2663
17107TIP3    H272737   1.416   1.991  12.530 -0.1155  0.5384  1.5831
17108TIP3   OH272738   4.895   4.855   0.969 -0.2829  1.0192 -0.0288
17108TIP3    H172739   4.912   4.793   1.039 -0.6231 -0.6078 -1.3267
17108TIP3    H272740   4.918   4.940   1.006  1.9488 -0.0451  1.2408
17109TIP3   OH272741   0.292   3.938  16.518 -0.1085 -0.1044 -0.4887
17109TIP3    H172742   0.333   4.024  16.506 -0.4199  0.0831 -0.2227
17109TIP3    H272743   0.342   3.879  16.461 -0.4815  0.4289 -1.3794
17110TIP3   OH272744   3.639   1.906  14.619  0.0121 -0.4575  0.1153
17110TIP3    H172745   3.619   1.958  14.540  0.8986 -0.7307 -0.2956
17110TIP3    H272746   3.735   1.903  14.622  0.0640  1.2133  2.2988
17111TIP3   OH272747   6.059   2.488  14.549  0.1592  0.3266  0.0809
17111TIP3    H172748   6.045   2.549  14.476 -1.2029  0.1606  0.1785
17111TIP3    H272749   6.154   2.484  14.559  0.3352  1.0250 -1.1198
17112TIP3   OH272750   2.161   0.171   2.733  0.0743 -0.5750 -0.0236
17112TIP3    H172751   2.101   0.233   2.693  0.4718  0.0393  0.3296
17112TIP3    H272752   2.189   0.212   2.814  0.4965 -1.1252  0.1197
17113TIP3   OH272753   6.511   1.530  13.500  0.0142  0.2086 -0.3225
17113TIP3    H172754   6.458   1.493  13.571  0.2818 -0.0790 -0.2648
17113TIP3    H272755   6.460   1.514  13.421  0.2925 -0.6518 -0.3457
17114TIP3   OH272756   0.666   5.751  11.169  0.4801 -0.0822  1.0286
17114TIP3    H172757   0.657   5.664  11.132 -0.6206  0.8723 -1.0899
17114TIP3    H272758   0.589   5.761  11.226 -0.3163  0.1148 -0.0630
17115TIP3   OH272759   4.176   2.528  13.724  0.1705  0.0448 -0.6993
17115TIP3    H172760   4.152   2.498  13.636 -0.2193 -1.4282 -0.1235
17115TIP3    H272761   4.243   2.595  13.709 -1.8585  1.8782 -2.2160
17116TIP3   OH272762   1.459   1.173   1.289 -0.0152  0.1209 -0.6294
17116TIP3    H172763   1.430   1.128   1.209 -1.3567 -0.2845  0.0459
17116TIP3    H272764   1.429   1.116   1.360  1.4199  0.3210  0.1781
17117TIP3   OH272765   1.976   0.730   4.133  0.1308  0.0899  0.0353
17117TIP3    H172766   2.044   0.769   4.188 -0.5581 -0.6289  1.4627
17117TIP3    H272767   1.920   0.682   4.195 -1.4113  0.2882 -1.1432
17118TIP3   OH272768   3.814   4.372   0.302  0.6835  0.0223 -0.4271
17118TIP3    H172769   3.760   4.391   0.226  0.1146 -2.3439 -0.6898
17118TIP3    H272770   3.756   4.385   0.377  1.1967  2.1873 -0.3360
17119TIP3   OH272771   5.786   3.220   3.629  0.2402 -0.2917 -0.1418
17119TIP3    H172772   5.872   3.183   3.611 -0.0613 -0.5291 -1.1574
17119TIP3    H272773   5.772   3.204   3.722  1.8986  1.0279  0.3801
17120TIP3   OH272774   0.901   5.655   6.031 -0.5369  0.2011  0.1690
17120TIP3    H172775   0.908   5.672   6.125  0.9843 -1.5409  0.4374
17120TIP3    H272776   0.865   5.566   6.025  0.6590 -0.2480 -0.8235
17121TIP3   OH272777   5.163   3.865   6.627 -0.1987 -0.6181  0.2853
17121TIP3    H172778   5.136   3.773   6.628  1.0645 -1.0135  0.9961
17121TIP3    H272779   5.244   3.866   6.679 -0.0351  0.8467  0.0333
17122TIP3   OH272780   2.460   0.235  17.107  0.5052  0.4398  0.8120
17122TIP3    H172781   2.496   0.172  17.170  2.4688 -0.4145 -1.0638
17122TIP3    H272782   2.425   0.181  17.036  0.9006  1.4251 -0.1521
17123TIP3   OH272783   1.622   1.471  16.738 -0.7672  0.4157  0.1064
17123TIP3    H172784   1.609   1.490  16.831 -0.7091 -0.0251  0.2037
17123TIP3    H272785   1.612   1.376  16.731  2.1354  0.0084  0.1587
17124TIP3   OH272786   0.517   1.165   4.713  0.1271  0.5117  0.1685
17124TIP3    H172787   0.505   1.253   4.749 -1.3782  0.3541  0.1217
17124TIP3    H272788   0.603   1.168   4.672  1.1973  1.2141  2.2785
17125TIP3   OH272789   5.735   3.210  15.493 -0.1717  0.0510 -0.5087
17125TIP3    H172790   5.724   3.117  15.473  0.6218  0.1748 -1.6024
17125TIP3    H272791   5.819   3.234  15.453 -0.2002  1.1582  0.0482
17126TIP3   OH272792   1.525   6.679  12.341  0.2399  0.1593  0.1238
17126TIP3    H172793   1.587   6.672  12.268  1.0180 -0.5397  0.8336
17126TIP3    H272794   1.477   6.596  12.340 -0.7061  0.6972 -0.4208
17127TIP3   OH272795   6.466   2.783   5.188  0.1745 -0.0172  0.2048
17127TIP3    H172796   6.512   2.867   5.181 -0.5923  0.3368 -0.9140
17127TIP3    H272797   6.375   2.807   5.206  0.4857 -0.7276  3.2630
17128TIP3   OH272798   6.324   5.615  11.784  0.2330  0.8504  0.3388
17128TIP3    H172799   6.355   5.705  11.776  0.3056  0.8560  0.6549
17128TIP3    H272800   6.368   5.567  11.714 -0.7620  1.3100 -0.6158
17129TIP3   OH272801   0.266   1.780  14.906  0.1244  0.0703 -0.5967
17129TIP3    H172802   0.302   1.844  14.844 -0.4200  1.7891  0.7611
17129TIP3    H272803   0.181   1.816  14.931  0.8887  0.2094  2.1449
17130TIP3   OH272804   0.081   1.092   1.436  0.0986  0.0742  0.2014
17130TIP3    H172805   0.106   1.003   1.412  1.7856  0.5961 -0.0906
17130TIP3    H272806  -0.013   1.096   1.422  0.0776 -1.5306 -0.1984
17131TIP3   OH272807   1.818   6.142  12.076  0.1492  0.6695  0.3790
17131TIP3    H172808   1.807   6.138  11.981  0.2253  2.2031  0.2897
17131TIP3    H272809   1.896   6.089  12.092  1.4934  2.2143 -0.7014
17132TIP3   OH272810   3.068   1.872   1.128  0.5067 -0.0974 -0.3592
17132TIP3    H172811   3.087   1.962   1.157 -1.1076 -0.9474  4.0800
17132TIP3    H272812   3.140   1.820   1.164  1.1193 -0.7235 -2.4042
17133TIP3   OH272813   5.086   2.249  14.700 -1.0152 -0.3854 -0.0710
17133TIP3    H172814   5.139   2.240  14.778 -1.7605 -1.6290  0.3233
17133TIP3    H272815   5.033   2.327  14.715 -0.2788  0.0831  0.1165
17134TIP3   OH272816   3.756   6.125  12.980 -0.0256 -0.3328 -0.3595
17134TIP3    H172817   3.660   6.118  12.979 -0.0794  0.3793 -0.7368
17134TIP3    H272818   3.781   6.086  13.064 -0.6341 -0.6092 -0.2958
17135TIP3   OH272819   4.385   0.872  16.536  0.1947  0.4896  0.3642
17135TIP3    H172820   4.296   0.864  16.569  1.0304 -3.2459  2.2813
17135TIP3    H272821   4.391   0.808  16.466  1.3293  0.7387  0.2090
17136TIP3   OH272822   1.294   6.440   5.551  0.1005 -0.4465 -0.4062
17136TIP3    H172823   1.225   6.432   5.616 -0.1023  0.5859 -0.4753
17136TIP3    H272824   1.339   6.356   5.553  0.2912 -0.3433  1.2792
17137TIP3   OH272825   0.395   4.573  12.388  0.1869 -0.6027 -0.1739
17137TIP3    H172826   0.318   4.612  12.430 -0.5232 -1.6803 -0.4204
17137TIP3    H272827   0.391   4.606  12.298 -1.3778 -2.4676 -0.8660
17138TIP3   OH272828   3.341   3.871   1.576 -0.0296  0.0367  0.0810
17138TIP3    H172829   3.430   3.880   1.542  0.1018  0.2335  0.4639
17138TIP3    H272830   3.328   3.950   1.629 -0.7902  0.4914 -0.7546
17139TIP3   OH272831   5.787   1.129   5.184  0.6103  0.5006 -0.7467
17139TIP3    H172832   5.829   1.180   5.254  0.3756  0.1789 -0.3698
17139TIP3    H272833   5.809   1.038   5.205 -0.3594  0.3194 -0.4828
17140TIP3   OH272834   6.276   6.052  16.967  0.5416  0.8057 -0.4557
17140TIP3    H172835   6.315   6.043  17.053 -2.0553 -0.5090  0.7221
17140TIP3    H272836   6.230   5.969  16.953 -0.5017  1.6294 -2.3610
17141TIP3   OH272837   2.525   6.447  12.827  0.8739 -0.2475  1.1088
17141TIP3    H172838   2.579   6.527  12.824  1.7383 -0.8385 -0.3182
17141TIP3    H272839   2.460   6.465  12.894  2.8834  0.4934  3.0003
17142TIP3   OH272840   1.395   2.920   2.967  0.1066  0.8459  0.3954
17142TIP3    H172841   1.456   2.909   2.895 -0.4924  0.6774 -0.0902
17142TIP3    H272842   1.331   2.984   2.935 -0.5268  0.2858  0.5340
17143TIP3   OH272843   1.430   2.090  16.622 -0.7591 -0.0677  0.6034
17143TIP3    H172844   1.397   2.007  16.656 -0.1713 -0.2836  0.6720
17143TIP3    H272845   1.516   2.100  16.664  0.1607 -0.5172 -1.0703
17144TIP3   OH272846   3.398   6.129   2.647 -0.1467 -0.0661 -0.1957
17144TIP3    H172847   3.471   6.069   2.663  0.3469  0.5008 -0.2745
17144TIP3    H272848   3.438   6.215   2.647 -0.9739  0.3265  0.6558
17145TIP3   OH272849   5.543   3.055   6.216 -0.3910  0.0694  0.0679
17145TIP3    H172850   5.637   3.051   6.235 -0.2216  0.3248 -0.6990
17145TIP3    H272851   5.538   3.064   6.121 -1.1307  1.8622  0.2366
17146TIP3   OH272852   2.870   1.672   5.832 -0.1335 -0.0337  0.2760
17146TIP3    H172853   2.883   1.631   5.917  0.3970 -0.1570  0.1398
17146TIP3    H272854   2.780   1.704   5.834 -0.0117  0.2731  1.0151
17147TIP3   OH272855   1.350   6.548  17.076  0.4628  0.5820  0.9347
17147TIP3    H172856   1.300   6.601  17.014 -0.0321 -0.0939  0.7465
17147TIP3    H272857   1.395   6.612  17.131  0.4080  1.1901  0.2815
17148TIP3   OH272858   2.067   6.024  17.041 -0.2974 -0.0591 -0.6676
17148TIP3    H172859   2.111   6.028  17.126  0.8824  0.7536 -1.3009
17148TIP3    H272860   2.133   5.989  16.981 -0.5546  0.9920 -1.5921
17149TIP3   OH272861   1.476   5.529  14.157  0.4382  0.7087  0.3719
17149TIP3    H172862   1.433   5.445  14.144 -1.0808  1.7278 -1.6627
17149TIP3    H272863   1.547   5.530  14.093  2.5696 -0.2256  2.5220
17150TIP3   OH272864   1.451   1.723   6.106 -0.1463  0.6054 -0.6180
17150TIP3    H172865   1.394   1.767   6.170 -1.2374 -0.0742 -1.0920
17150TIP3    H272866   1.533   1.772   6.109 -0.2144  0.6681  1.2103
17151TIP3   OH272867   0.269   3.580  10.543 -0.2486  0.0981  0.4874
17151TIP3    H172868   0.287   3.488  10.564 -0.0944  0.0829  0.2849
17151TIP3    H272869   0.191   3.577  10.488 -2.0297  0.2779  2.8414
17152TIP3   OH272870   0.561   3.032  16.673 -0.1212 -0.7162 -0.2432
17152TIP3    H172871   0.516   3.086  16.738 -0.0656 -0.1484 -0.6694
17152TIP3    H272872   0.496   2.968  16.645 -0.3679 -0.5034 -0.1566
17153TIP3   OH272873   0.093   5.229   0.676  0.9446 -0.3913  0.3798
17153TIP3    H172874   0.017   5.266   0.721  0.4584  1.5835 -1.8713
17153TIP3    H272875   0.159   5.220   0.744 -0.5225  0.0816  1.9558
17154TIP3   OH272876   4.939   2.157  12.990 -0.1003 -0.6451  0.0641
17154TIP3    H172877   4.996   2.119  13.058  0.2747  0.8170  0.5974
17154TIP3    H272878   4.980   2.240  12.968 -2.5564  0.9692  1.2094
17155TIP3   OH272879   4.989   0.743  16.279  0.3719  0.4561  0.2247
17155TIP3    H172880   5.019   0.827  16.245 -1.6756  0.4929 -1.7840
17155TIP3    H272881   4.906   0.762  16.322  0.1275 -0.4498  0.1834
17156TIP3   OH272882   0.854   1.792  16.191 -0.1212  0.1781  0.0170
17156TIP3    H172883   0.947   1.816  16.191  0.1875 -0.8092 -1.8613
17156TIP3    H272884   0.811   1.863  16.143 -0.2658  0.4232  0.5126
17157TIP3   OH272885   3.237   2.996   1.106  0.0672 -0.0015 -0.2476
17157TIP3    H172886   3.288   2.921   1.075 -0.8976 -0.8819  0.2455
17157TIP3    H272887   3.277   3.019   1.190  1.1738  0.8762 -0.9820
17158TIP3   OH272888   0.012   0.133  15.816 -0.0002  0.2353  0.1010
17158TIP3    H172889   0.005   0.181  15.734 -0.6667  1.1449  0.6741
17158TIP3    H272890  -0.019   0.045  15.795 -0.1193  0.4486 -0.6317
17159TIP3   OH272891   6.542   0.227   1.052  0.3770 -0.6328  0.2759
17159TIP3    H172892   6.597   0.292   1.008  0.4032 -0.6343  0.3065
17159TIP3    H272893   6.453   0.247   1.023  0.7221 -3.3918 -3.3689
17160TIP3   OH272894   4.590   1.172   6.383  0.2953 -0.6663 -0.2267
17160TIP3    H172895   4.525   1.119   6.336 -0.6452  0.2639 -0.0170
17160TIP3    H272896   4.540   1.245   6.418  1.0939 -1.0126  1.7317
17161TIP3   OH272897   1.202   4.057  11.923 -0.1194 -0.8277  0.7094
17161TIP3    H172898   1.172   4.078  12.011 -0.9029 -0.4413  0.3579
17161TIP3    H272899   1.167   3.969  11.907  0.0898 -0.9299  0.8129
17162TIP3   OH272900   2.322   3.193  13.728  0.9829 -0.2079  0.2007
17162TIP3    H172901   2.319   3.263  13.793 -0.5845 -0.2757  0.2428
17162TIP3    H272902   2.295   3.115  13.776  1.3284 -0.5641 -0.1822
17163TIP3   OH272903   4.131   3.571   4.233  0.1623 -0.0809 -0.5417
17163TIP3    H172904   4.045   3.612   4.230  0.3380  0.2682 -0.7983
17163TIP3    H272905   4.192   3.640   4.209  0.6248 -0.0143  0.7645
17164TIP3   OH272906   2.706   2.813   5.144  1.1237  0.2011  0.3532
17164TIP3    H172907   2.800   2.826   5.131  1.1867 -0.6853 -0.1705
17164TIP3    H272908   2.700   2.760   5.223  1.1503 -0.8761 -0.3461
17165TIP3   OH272909   5.512   5.548   4.036 -0.2370 -0.3348  0.1328
17165TIP3    H172910   5.432   5.553   4.087 -0.4847  3.0454 -0.4021
17165TIP3    H272911   5.579   5.588   4.091  0.4938 -0.6995 -0.4684
17166TIP3   OH272912   1.417   6.551   1.145  0.1097  0.3763 -0.4178
17166TIP3    H172913   1.506   6.576   1.119  0.5437  0.5601  1.1354
17166TIP3    H272914   1.401   6.599   1.226 -0.6426 -1.1422  0.3805
17167TIP3   OH272915   6.188   6.718  15.946 -0.8180 -0.4201 -0.0156
17167TIP3    H172916   6.174   6.738  16.039 -0.4680  1.3586 -0.3134
17167TIP3    H272917   6.113   6.665  15.921 -1.2395 -0.3844  1.1278
17168TIP3   OH272918   2.725   5.643  13.228 -0.2975 -0.5499  0.3453
17168TIP3    H172919   2.687   5.659  13.314 -1.5051 -1.7831  0.0837
17168TIP3    H272920   2.724   5.728  13.184 -2.2882 -0.4147  0.5723
17169TIP3   OH272921   1.692   4.753   2.378  0.0124  0.3826  0.7388
17169TIP3    H172922   1.632   4.809   2.427 -0.9892 -0.0514  0.0427
17169TIP3    H272923   1.766   4.739   2.437  0.0627  2.0421  1.1015
17170TIP3   OH272924   6.009   1.915   3.282 -0.9697 -0.1600 -0.1176
17170TIP3    H172925   5.934   1.970   3.259  0.3766  1.1397 -1.6644
17170TIP3    H272926   6.085   1.973   3.270  0.3273 -1.6266  0.7441
17171TIP3   OH272927   1.027   2.497   3.247 -0.6027 -0.1206  0.3329
17171TIP3    H172928   0.969   2.516   3.322 -1.3129  1.4272 -0.5612
17171TIP3    H272929   0.973   2.514   3.170  0.6632  0.0729 -0.5365
17172TIP3   OH272930   5.596   6.140   4.771  0.5264 -0.0412  0.0285
17172TIP3    H172931   5.643   6.217   4.740  1.6553 -0.3548  0.9003
17172TIP3    H272932   5.635   6.121   4.856 -0.4534 -0.9636  0.2918
17173TIP3   OH272933   6.514   4.500  12.494  0.1249  0.1736 -0.0314
17173TIP3    H172934   6.449   4.569  12.512  0.5883  0.7222 -0.4206
17173TIP3    H272935   6.472   4.444  12.429 -0.3492 -0.0544  0.4595
17174TIP3   OH272936   6.696   5.123  12.960  0.0553  0.8902 -0.6299
17174TIP3    H172937   6.720   5.180  12.887  1.0135 -0.1963 -1.2017
17174TIP3    H272938   6.681   5.037  12.919  0.0163  0.4082  0.3690
17175TIP3   OH272939   4.180   3.312   2.505  0.3556  0.5543 -0.2002
17175TIP3    H172940   4.173   3.291   2.598 -0.1684 -0.5943 -0.4852
17175TIP3    H272941   4.108   3.373   2.489  0.9926  1.4794  0.3207
17176TIP3   OH272942   1.201   1.306   3.517 -0.3365  0.2048  0.0471
17176TIP3    H172943   1.216   1.327   3.425  0.7650 -1.5489 -0.2378
17176TIP3    H272944   1.111   1.276   3.521 -0.7567  1.3975 -0.2158
17177TIP3   OH272945   6.665   3.021  13.204  0.4156  0.1244  0.1275
17177TIP3    H172946   6.735   3.020  13.269 -0.0425  0.8464  0.6376
17177TIP3    H272947   6.584   3.031  13.255 -0.1545 -1.4943 -0.3835
17178TIP3   OH272948   3.731   2.018   3.473 -0.2242 -0.3025  0.2777
17178TIP3    H172949   3.744   2.015   3.378 -0.9020 -0.7705  0.1902
17178TIP3    H272950   3.658   2.080   3.485  1.8557  2.2535  0.7469
17179TIP3   OH272951   3.810   1.697   5.433  0.6287 -0.1734 -0.0108
17179TIP3    H172952   3.738   1.759   5.441  0.4178 -0.3183 -0.6767
17179TIP3    H272953   3.768   1.612   5.422  0.8749 -0.1789 -1.0248
17180TIP3   OH272954   4.470   3.941  12.742 -0.0693  0.4169  0.3914
17180TIP3    H172955   4.460   4.031  12.712  0.6882  1.3318  2.7515
17180TIP3    H272956   4.485   3.947  12.836  0.7659 -2.1398  0.5084
17181TIP3   OH272957   3.238   5.453   4.026 -0.1767 -0.9977 -0.2357
17181TIP3    H172958   3.318   5.469   3.977  0.7995 -1.1824  1.2410
17181TIP3    H272959   3.266   5.446   4.117 -2.1095  1.1786  0.6474
17182TIP3   OH272960   5.221   4.966  15.269  0.0647  0.0409  0.1779
17182TIP3    H172961   5.270   5.001  15.196 -0.8328  1.5118  0.2264
17182TIP3    H272962   5.286   4.920  15.323  1.0199  0.3850 -0.6607
17183TIP3   OH272963   4.634   3.025   4.150 -0.0304  0.3590  0.5186
17183TIP3    H172964   4.696   2.953   4.155  0.6689  0.7119 -1.9135
17183TIP3    H272965   4.652   3.067   4.066 -1.6422  2.2559  1.0389
17184TIP3   OH272966   4.362   3.870  15.712 -0.2467 -0.1355  0.9777
17184TIP3    H172967   4.327   3.958  15.696  0.2525 -0.0844  0.1427
17184TIP3    H272968   4.324   3.844  15.796 -0.9153  0.6163  0.9157
17185TIP3   OH272969   5.738   5.074   1.975 -0.8092  0.3670 -0.1675
17185TIP3    H172970   5.787   5.098   1.896 -0.9052 -1.3125 -0.7726
17185TIP3    H272971   5.714   4.983   1.962 -4.8041  1.2557 -0.2465
17186TIP3   OH272972   3.209   1.539   2.561  0.0831 -0.3714 -0.3467
17186TIP3    H172973   3.118   1.567   2.574  0.5475  1.7545 -1.2718
17186TIP3    H272974   3.204   1.473   2.492 -0.8293 -0.7989  0.1126
17187TIP3   OH272975   5.924   1.393  13.013 -0.2084 -0.2188 -0.0917
17187TIP3    H172976   5.966   1.410  13.097  0.5049 -0.3112 -0.4254
17187TIP3    H272977   5.993   1.406  12.948 -0.5667 -0.8639 -0.6162
17188TIP3   OH272978   5.936   2.283  14.977  0.3544 -0.6645  0.1704
17188TIP3    H172979   5.939   2.263  14.884 -0.0607  0.8249 -0.1911
17188TIP3    H272980   6.018   2.329  14.994 -0.9794  2.0556 -0.2487
17189TIP3   OH272981   2.400   5.908   1.897 -0.5795 -0.1454 -0.3322
17189TIP3    H172982   2.355   5.979   1.942 -1.3289  0.0193 -1.3089
17189TIP3    H272983   2.348   5.830   1.915  0.6027 -0.6019  1.2836
17190TIP3   OH272984   0.114   0.781  14.180 -0.1500  0.3179  0.4512
17190TIP3    H172985   0.145   0.848  14.119 -2.9177  2.3360  1.0709
17190TIP3    H272986   0.106   0.827  14.263  0.8500 -1.6752  1.7364
17191TIP3   OH272987   2.152   3.615   3.442  0.3560 -0.2646  0.1402
17191TIP3    H172988   2.104   3.565   3.508 -0.1182  1.0570  0.8271
17191TIP3    H272989   2.232   3.564   3.427 -0.5053 -1.6595  0.1642
17192TIP3   OH272990   5.437   5.880   5.382  0.0346  0.3944  0.1559
17192TIP3    H172991   5.480   5.963   5.404  0.7413 -0.2106  1.1443
17192TIP3    H272992   5.478   5.852   5.300  0.0296  0.8538 -0.0054
17193TIP3   OH272993   2.793   2.697   3.705  0.2845 -0.3528  0.5861
17193TIP3    H172994   2.797   2.602   3.699 -0.1175 -0.3187 -0.3247
17193TIP3    H272995   2.772   2.726   3.617 -1.0180  0.5115  1.1525
17194TIP3   OH272996   5.151   2.100   5.996 -0.0132 -0.2015 -0.4755
17194TIP3    H172997   5.238   2.130   5.969 -0.7386  0.9176 -1.6847
17194TIP3    H272998   5.101   2.180   6.010 -1.5555 -0.7967 -2.2187
17195TIP3   OH272999   6.452   6.010  14.348 -0.0903  0.1334 -0.4718
17195TIP3    H173000   6.441   5.957  14.427 -0.5894  0.6142 -0.2127
17195TIP3    H273001   6.540   5.989  14.318  1.0853  1.6724  1.5662
17196TIP3   OH273002   6.054   3.641   2.048 -0.2261  0.0500 -0.2111
17196TIP3    H173003   6.081   3.733   2.048 -2.0464  0.6244  0.3662
17196TIP3    H273004   6.087   3.607   2.131  2.5169 -0.5350 -1.4335
17197TIP3   OH273005   5.797   0.259  14.970  0.2267 -0.2075  0.1232
17197TIP3    H173006   5.792   0.346  15.009  0.0573 -0.2216  0.1347
17197TIP3    H273007   5.751   0.203  15.033  0.8451 -0.4081  0.4088
17198TIP3   OH273008   2.923   5.212  13.233 -0.0849  0.1781  0.1764
17198TIP3    H173009   2.918   5.124  13.271  0.2597 -0.0677 -0.3497
17198TIP3    H273010   2.941   5.269  13.309  2.1578 -0.4869  0.2229
17199TIP3   OH273011   2.561   3.083   1.532  0.2030  0.1288  0.1904
17199TIP3    H173012   2.613   3.119   1.461  1.0115 -2.0794 -0.4343
17199TIP3    H273013   2.609   3.108   1.612  2.4038 -1.8754 -0.3675
17200TIP3   OH273014   6.516   3.572  14.271 -0.5185 -0.4298  0.3708
17200TIP3    H173015   6.605   3.597  14.246  0.0453 -1.4196  1.3103
17200TIP3    H273016   6.501   3.489  14.227 -1.7560  0.6570 -1.3851
17201TIP3   OH273017   1.378   2.318  14.389 -0.1926  0.3969  0.6583
17201TIP3    H173018   1.410   2.242  14.341 -0.3372  0.4749  0.4338
17201TIP3    H273019   1.361   2.286  14.478 -2.4381 -0.4383  0.0100
17202TIP3   OH273020   1.276   6.106  16.210  0.3750  0.6682  0.2638
17202TIP3    H173021   1.277   6.071  16.299  3.0679  1.1337  0.4982
17202TIP3    H273022   1.359   6.080  16.172 -0.7213  0.4205 -2.2070
17203TIP3   OH273023   0.652   2.777  14.551 -0.2661 -0.3135  0.3825
17203TIP3    H173024   0.698   2.716  14.493  0.8612 -0.4485  1.3754
17203TIP3    H273025   0.682   2.863  14.523 -0.9817 -0.2686 -0.2780
17204TIP3   OH273026   2.133   4.189   4.667 -0.1116  0.4697  0.0221
17204TIP3    H173027   2.216   4.237   4.674 -0.6687  1.2469  1.6754
17204TIP3    H273028   2.153   4.101   4.700  0.6513 -0.1907 -2.0316
17205TIP3   OH273029   2.856   4.550   2.238  0.4204 -0.0116 -0.3557
17205TIP3    H173030   2.849   4.536   2.144  0.1307 -1.4137 -0.1386
17205TIP3    H273031   2.795   4.488   2.277  0.4601  0.6228  0.7584
17206TIP3   OH273032   3.607   0.032   2.105  0.1720  0.2592  0.0013
17206TIP3    H173033   3.680   0.011   2.163 -1.3932 -1.7283  1.3923
17206TIP3    H273034   3.644   0.022   2.017  1.7295 -0.0801  0.6500
17207TIP3   OH273035   5.050   3.772   0.628 -0.3527 -0.0427  0.3449
17207TIP3    H173036   5.014   3.690   0.661 -0.1602  0.6162  2.2822
17207TIP3    H273037   4.977   3.813   0.581 -0.5946 -1.0672 -0.1864
17208TIP3   OH273038   0.740   0.695  10.937 -0.2120  0.1046  0.1335
17208TIP3    H173039   0.769   0.640  11.009 -0.0056 -1.5791 -1.1914
17208TIP3    H273040   0.645   0.687  10.936 -0.1456 -0.7331 -0.4163
17209TIP3   OH273041   2.824   0.338   3.226  0.0486 -0.0156 -0.1259
17209TIP3    H173042   2.865   0.326   3.140  0.3620  0.2907 -0.0181
17209TIP3    H273043   2.848   0.260   3.275  0.3354  0.0714 -0.1290
17210TIP3   OH273044   4.388   4.180   4.703 -0.2393 -0.3362 -0.1494
17210TIP3    H173045   4.353   4.222   4.625  0.2196  1.0574  0.3732
17210TIP3    H273046   4.464   4.232   4.728 -0.9761 -0.1024  1.8172
17211TIP3   OH273047   5.259   0.861   4.223  0.3081  0.5062  0.6579
17211TIP3    H173048   5.164   0.849   4.216  0.3286  0.8284 -0.3327
17211TIP3    H273049   5.275   0.948   4.188  0.9357  0.6099  1.1773
17212TIP3   OH273050   6.083   5.047  17.148 -0.0827  0.2374  0.5228
17212TIP3    H173051   6.136   5.119  17.114  0.4223 -0.5414 -0.4169
17212TIP3    H273052   5.995   5.083  17.156  0.1941  0.9970  0.2038
17213TIP3   OH273053   4.578   1.639  12.397 -0.0316  0.1942 -0.0276
17213TIP3    H173054   4.663   1.617  12.359 -1.0694  0.3975 -2.6694
17213TIP3    H273055   4.543   1.555  12.427  1.2360  0.1689  1.4504
17214TIP3   OH273056   4.301   2.973   1.149 -0.4496  1.0031 -0.4370
17214TIP3    H173057   4.373   2.987   1.211 -0.9842 -0.8445  0.6942
17214TIP3    H273058   4.316   3.038   1.080  1.4414  1.6562  0.4990
17215TIP3   OH273059   0.876   3.771   5.718  0.3550 -0.1274 -0.3563
17215TIP3    H173060   0.809   3.729   5.664 -0.4180  0.0929  0.4122
17215TIP3    H273061   0.948   3.788   5.657 -0.2345 -0.4748 -1.1737
17216TIP3   OH273062   4.265   3.808   2.893  0.5714  0.5412 -0.5333
17216TIP3    H173063   4.246   3.715   2.907  0.1274  0.3518 -2.1597
17216TIP3    H273064   4.201   3.854   2.947  1.5347 -0.0595  1.1997
17217TIP3   OH273065   4.613   6.341  17.251 -0.2960  0.0706 -0.5210
17217TIP3    H173066   4.594   6.287  17.328  0.2092 -0.4050 -0.7277
17217TIP3    H273067   4.679   6.403  17.281 -0.8523  0.5709 -0.2934
17218TIP3   OH273068   6.526   4.728  13.440  0.2559  0.1885  0.1903
17218TIP3    H173069   6.449   4.693  13.395  0.6335 -0.1680 -0.1811
17218TIP3    H273070   6.497   4.813  13.474 -0.1759  0.2387 -0.2998
17219TIP3   OH273071   5.386   5.150  10.945 -0.0948 -0.2214  0.6541
17219TIP3    H173072   5.419   5.160  11.034 -1.3625  2.1570  0.9603
17219TIP3    H273073   5.460   5.178  10.889 -0.3918  1.8256  1.1823
17220TIP3   OH273074   5.113   6.613   1.122  0.0181  0.5742  0.4263
17220TIP3    H173075   5.084   6.695   1.081  2.1549  1.7597  1.1294
17220TIP3    H273076   5.208   6.619   1.123  0.1679 -0.3642  3.5611
17221TIP3   OH273077   3.422   3.048  16.500 -0.3503  0.1292  0.0587
17221TIP3    H173078   3.414   3.099  16.581  0.2321  0.6163 -0.1865
17221TIP3    H273079   3.515   3.052  16.478 -0.4351 -0.3618 -0.4031
17222TIP3   OH273080   6.461   6.111   5.261 -0.8117  0.3322  0.4189
17222TIP3    H173081   6.370   6.137   5.254 -0.8196 -0.1231 -2.0301
17222TIP3    H273082   6.462   6.042   5.328 -2.4483 -0.4020 -0.2747
17223TIP3   OH273083   1.964   0.012   3.539  0.2558 -0.4627  0.3133
17223TIP3    H173084   2.025  -0.022   3.605  0.5149  0.6012  0.6454
17223TIP3    H273085   1.994   0.101   3.522 -0.5015 -0.3285 -0.4003
17224TIP3   OH273086   1.014   1.926   6.377  0.4974 -0.3677  0.0370
17224TIP3    H173087   1.062   1.844   6.362  2.0098 -0.1807  3.0789
17224TIP3    H273088   0.963   1.910   6.456 -1.5394  0.7591 -0.9643
17225TIP3   OH273089   1.101   4.570   2.725  0.0610 -0.1971 -0.0226
17225TIP3    H173090   1.030   4.546   2.666 -0.7146 -1.0767  1.1981
17225TIP3    H273091   1.128   4.657   2.698 -2.8180  1.0043  0.6950
17226TIP3   OH273092   0.769   3.056  12.159 -0.0838  0.2290  0.5585
17226TIP3    H173093   0.701   3.018  12.214  0.2048 -0.1068  0.6874
17226TIP3    H273094   0.824   3.105  12.220 -0.4098  0.7892  0.4047
17227TIP3   OH273095   4.280   4.920  16.435  0.0086 -0.3071 -0.5862
17227TIP3    H173096   4.371   4.904  16.456  0.2640  1.0658 -0.5962
17227TIP3    H273097   4.231   4.857  16.489  0.9098 -0.6061 -0.1040
17228TIP3   OH273098   1.831   5.015  12.673  0.4600 -0.0584 -0.2850
17228TIP3    H173099   1.753   5.027  12.727 -0.5173  0.5497 -1.7586
17228TIP3    H273100   1.842   5.098  12.628  2.2267  0.0013  0.1776
17229TIP3   OH273101   0.258   6.054   4.547  0.1155 -0.3930  0.2765
17229TIP3    H173102   0.168   6.024   4.554  0.1640 -1.1789 -1.6977
17229TIP3    H273103   0.254   6.148   4.562 -1.2058 -0.2517 -0.7719
17230TIP3   OH273104   6.245   5.093  14.765 -0.3313  0.2260  0.0008
17230TIP3    H173105   6.187   5.162  14.734  0.1434  0.2506 -0.8762
17230TIP3    H273106   6.254   5.109  14.859  0.6228  2.0380 -0.3429
17231TIP3   OH273107   1.416   0.162  12.288  0.1996 -0.3848  0.6400
17231TIP3    H173108   1.456   0.076  12.297  1.5920  0.1311 -0.2952
17231TIP3    H273109   1.407   0.175  12.194 -0.2453  0.3769  0.7753
17232TIP3   OH273110   0.832   5.522   2.329 -0.5158  0.0716 -0.1041
17232TIP3    H173111   0.740   5.536   2.348 -0.3127 -1.0513  1.9683
17232TIP3    H273112   0.876   5.532   2.414  1.5538  2.4922 -1.3086
17233TIP3   OH273113   0.618   6.676  14.917 -0.2661  0.1769 -0.0741
17233TIP3    H173114   0.558   6.609  14.886  0.0757 -0.4879  0.6434
17233TIP3    H273115   0.695   6.667  14.862  1.0327 -2.1534  1.9193
17234TIP3   OH273116   0.020   6.732   1.888 -0.3542 -0.1760 -0.4899
17234TIP3    H173117  -0.038   6.729   1.964  0.0601 -0.1814 -0.1676
17234TIP3    H273118   0.106   6.755   1.925 -0.1600 -0.1422 -0.9607
17235TIP3   OH273119   5.413   2.741  16.416 -0.4503 -0.3289  0.3981
17235TIP3    H173120   5.377   2.761  16.503  0.0757  0.0600  0.5301
17235TIP3    H273121   5.336   2.736  16.359 -0.7698 -0.1921  0.8099
17236TIP3   OH273122   3.788   5.876  16.903 -0.5305  0.2816 -0.0655
17236TIP3    H173123   3.714   5.820  16.879  0.2171 -0.3221 -1.0211
17236TIP3    H273124   3.807   5.926  16.824 -0.8895  1.5837  0.6383
17237TIP3   OH273125   0.597   5.579  15.954 -1.0739  0.2656 -0.4878
17237TIP3    H173126   0.603   5.515  16.025 -0.4185 -0.2962 -1.0276
17237TIP3    H273127   0.688   5.590  15.925 -1.3183  0.5717 -1.1554
17238TIP3   OH273128   2.009   4.481   3.454 -0.4503 -0.0837  1.1026
17238TIP3    H173129   1.925   4.437   3.471 -0.1298 -0.7452  0.9940
17238TIP3    H273130   2.072   4.434   3.509 -0.3815  1.3003  2.2762
17239TIP3   OH273131   1.245   5.652   5.085 -0.1202 -0.3392 -0.4702
17239TIP3    H173132   1.152   5.630   5.080 -0.1893 -1.6973  3.3650
17239TIP3    H273133   1.247   5.748   5.084 -1.5367 -0.2835 -0.7006
17240TIP3   OH273134   2.866   4.670   0.438 -0.3892  0.1110  0.2891
17240TIP3    H173135   2.894   4.644   0.350 -1.3148  0.8829 -0.2493
17240TIP3    H273136   2.803   4.602   0.464 -1.4156  0.7874 -0.3644
17241TIP3   OH273137   2.307   3.610   4.650 -0.3024  0.0400 -0.1438
17241TIP3    H173138   2.257   3.616   4.569  0.2518  1.0623 -0.4276
17241TIP3    H273139   2.255   3.552   4.706 -1.0736 -0.0599 -0.9390
17242TIP3   OH273140   2.509   0.521  14.575 -0.2825 -0.7921 -0.0766
17242TIP3    H173141   2.557   0.470  14.511  0.8495 -0.3630  0.4008
17242TIP3    H273142   2.562   0.516  14.655  1.2138  2.9747 -0.5947
17243TIP3   OH273143   4.227   5.356  11.447 -0.3466  0.0613 -0.2188
17243TIP3    H173144   4.180   5.275  11.463  0.9441 -0.5288  0.8037
17243TIP3    H273145   4.289   5.335  11.377 -1.6533  0.8745 -1.6711
17244TIP3   OH273146   1.892   4.048   5.323  0.7951  0.1932  0.1921
17244TIP3    H173147   1.937   4.123   5.361  0.2036  0.6895 -0.0528
17244TIP3    H273148   1.799   4.071   5.329  0.6608  0.0425 -1.0146
17245TIP3   OH273149   3.615   0.111   1.103 -0.0211 -0.1634 -0.0622
17245TIP3    H173150   3.584   0.185   1.050  2.2490  1.7762  1.1479
17245TIP3    H273151   3.565   0.117   1.185  0.6737  0.4920  0.3186
17246TIP3   OH273152   3.143   2.216  11.608 -0.1737 -0.0872  0.1217
17246TIP3    H173153   3.196   2.150  11.652  0.2252 -0.1244 -0.4076
17246TIP3    H273154   3.077   2.167  11.560 -2.0232  0.0142  2.4118
17247TIP3   OH273155   3.876   1.297  13.444 -0.2420 -0.4478  0.4789
17247TIP3    H173156   3.948   1.264  13.498  1.6583  1.7385 -0.5509
17247TIP3    H273157   3.901   1.274  13.355  0.7190  2.6816 -0.1871
17248TIP3   OH273158   1.690   2.093  12.303 -0.0088 -0.0416  0.0742
17248TIP3    H173159   1.739   2.163  12.260 -0.7998  0.7129  0.3804
17248TIP3    H273160   1.631   2.060  12.234  1.1119 -1.1714 -0.3913
17249TIP3   OH273161   2.843   0.011  15.603  0.1713  0.1062 -0.6960
17249TIP3    H173162   2.796  -0.069  15.624 -2.6641  1.8446  0.0501
17249TIP3    H273163   2.881   0.039  15.687  1.3426 -0.4789 -0.9972
17250TIP3   OH273164   0.615   5.268   6.273 -0.3407  0.3780 -0.4888
17250TIP3    H173165   0.542   5.288   6.331 -0.3586 -0.4927 -0.1900
17250TIP3    H273166   0.672   5.211   6.324  0.4010  0.7974 -0.8238
17251TIP3   OH273167   0.880   1.252  10.621  0.2029 -0.1073 -0.9528
17251TIP3    H173168   0.974   1.249  10.607  0.4107  1.0120  0.0105
17251TIP3    H273169   0.845   1.287  10.539  0.6492 -0.2553 -1.2104
17252TIP3   OH273170   1.921   5.332   5.229  0.3606 -0.2062  0.0794
17252TIP3    H173171   1.957   5.321   5.316  2.1957 -0.3690 -0.6582
17252TIP3    H273172   1.981   5.284   5.171 -0.8656 -0.2108 -1.2679
17253TIP3   OH273173   0.569   5.262  13.347  0.7154  0.0650 -0.1423
17253TIP3    H173174   0.574   5.292  13.256 -1.3207  1.6327  0.2107
17253TIP3    H273175   0.546   5.169  13.340 -0.4313  0.4082 -1.2265
17254TIP3   OH273176   0.270   4.438   3.159 -0.1566  0.1768 -0.2856
17254TIP3    H173177   0.209   4.379   3.204 -0.3851  1.0078  0.5227
17254TIP3    H273178   0.355   4.395   3.168 -0.4167 -0.3528 -0.2906
17255TIP3   OH273179   4.355   2.904  14.855 -0.3337 -0.0155 -0.2283
17255TIP3    H173180   4.360   2.909  14.951 -0.0660 -0.2805 -0.2253
17255TIP3    H273181   4.348   2.995  14.827 -0.3809  0.0665  0.0437
17256TIP3   OH273182   4.231   0.860  16.776 -0.4675  0.1116 -0.1498
17256TIP3    H173183   4.192   0.863  16.863  1.8694 -0.6810  1.0106
17256TIP3    H273184   4.319   0.894  16.787 -0.0850 -0.0385 -2.2099
17257TIP3   OH273185   3.852   3.242  13.803 -0.5258  0.2264  0.2461
17257TIP3    H173186   3.937   3.227  13.762 -0.2437  1.1423  0.4763
17257TIP3    H273187   3.790   3.198  13.745  0.0092  0.3024 -0.3958
17258TIP3   OH273188   4.773   3.592  11.237  0.0319  0.5767 -0.4616
17258TIP3    H173189   4.729   3.513  11.270  0.7856  0.0042 -0.7801
17258TIP3    H273190   4.826   3.560  11.164 -1.0691  1.7017 -1.7954
17259TIP3   OH273191   2.800   4.155  16.587 -0.1268  0.2608  0.0631
17259TIP3    H173192   2.777   4.247  16.578  1.1086  0.6917  0.9554
17259TIP3    H273193   2.727   4.116  16.636 -1.2609  0.4563 -1.4201
17260TIP3   OH273194   5.108   3.054  12.592 -0.1315 -0.1654 -0.1364
17260TIP3    H173195   5.080   3.133  12.638 -0.4441  1.1650 -2.4509
17260TIP3    H273196   5.096   3.075  12.499  1.7420 -2.1777 -0.9216
17261TIP3   OH273197   0.780   5.763   1.222 -0.1372  0.9508  0.2223
17261TIP3    H173198   0.780   5.695   1.155  1.5370  0.2377  0.8865
17261TIP3    H273199   0.733   5.836   1.183  0.8603  0.5804 -1.7615
17262TIP3   OH273200   3.834   5.824   1.945  0.3181  0.2957  0.4260
17262TIP3    H173201   3.867   5.894   1.890  0.0667  0.8173  0.9329
17262TIP3    H273202   3.796   5.761   1.884  0.8570  0.4364 -0.0489
17263TIP3   OH273203   1.373   5.998   0.820 -0.1814  0.0429 -0.3355
17263TIP3    H173204   1.414   5.949   0.891  1.3481  1.3954 -0.2437
17263TIP3    H273205   1.360   5.933   0.750  0.3874 -0.8050  0.3308
17264TIP3   OH273206   5.296   4.781   1.346 -0.1060 -0.0718  0.2590
17264TIP3    H173207   5.310   4.690   1.373 -0.7351 -0.1794  0.2531
17264TIP3    H273208   5.313   4.833   1.424  1.5628 -0.0670 -0.0728
17265TIP3   OH273209   2.225   1.992   6.413  0.1918  0.0127 -0.3491
17265TIP3    H173210   2.280   2.054   6.366 -1.0639  1.0381 -0.5223
17265TIP3    H273211   2.287   1.931   6.453  1.4022  0.6550 -1.1782
17266TIP3   OH273212   2.170   5.016   6.497 -0.2049 -0.1999  0.3337
17266TIP3    H173213   2.165   4.928   6.458  0.6345 -0.1776  0.1396
17266TIP3    H273214   2.115   5.011   6.575  1.2303 -1.4580  1.3303
17267TIP3   OH273215   6.478   0.335  12.364  0.9102 -0.0645  0.2257
17267TIP3    H173216   6.486   0.318  12.271  3.1949  0.8776  0.1798
17267TIP3    H273217   6.465   0.430  12.370  0.0106 -0.2121  0.8642
17268TIP3   OH273218   3.401   5.826  12.341 -0.4924 -0.3759  0.6599
17268TIP3    H173219   3.317   5.782  12.330  0.4143 -1.8922 -0.7254
17268TIP3    H273220   3.460   5.758  12.375  0.6724  0.0191 -0.4515
17269TIP3   OH273221   0.119   0.798  16.166 -0.3857  0.4457  0.0503
17269TIP3    H173222   0.099   0.726  16.106  1.9554 -1.0136  0.8472
17269TIP3    H273223   0.207   0.826  16.141 -0.8401  2.3499  0.4497
17270TIP3   OH273224   5.142   1.854  11.148  0.0995  0.0303 -0.3502
17270TIP3    H173225   5.079   1.786  11.125  0.7263 -0.4440 -0.7079
17270TIP3    H273226   5.090   1.922  11.190 -1.1111  0.9755 -3.1555
17271TIP3   OH273227   0.993   2.848  17.257  0.8634  0.2663  0.2685
17271TIP3    H173228   1.075   2.896  17.266  0.6722  0.5772  0.3597
17271TIP3    H273229   0.992   2.819  17.166  0.5225  1.2677 -0.0565
17272TIP3   OH273230   4.542   4.990  15.639 -0.5275 -0.8192 -0.0998
17272TIP3    H173231   4.464   4.935  15.642 -1.0396 -0.0614  0.6655
17272TIP3    H273232   4.568   5.001  15.730  0.4974 -1.0732 -0.3402
17273TIP3   OH273233   3.266   6.653  11.478  0.4129 -0.0403 -0.4040
17273TIP3    H173234   3.219   6.573  11.456 -1.1186  0.7447 -0.1327
17273TIP3    H273235   3.220   6.722  11.430 -0.1611  1.0645  1.6168
17274TIP3   OH273236   4.716   2.431  16.980 -0.3457 -0.1549 -0.0520
17274TIP3    H173237   4.789   2.377  17.010  0.7380  1.2245 -0.1120
17274TIP3    H273238   4.643   2.406  17.037  0.7771  0.0451  1.5467
17275TIP3   OH273239   0.871   1.061   3.792 -0.1394  0.0131 -0.4395
17275TIP3    H173240   0.903   1.138   3.839 -1.0974  0.9677 -1.2983
17275TIP3    H273241   0.909   0.987   3.838 -0.0706  0.9607  1.0890
17276TIP3   OH273242   2.810   2.633   4.037 -0.2472 -0.0259  0.6407
17276TIP3    H173243   2.785   2.617   3.946  3.9288  0.8312 -0.8783
17276TIP3    H273244   2.906   2.637   4.035 -0.0479  3.7765  4.4164
17277TIP3   OH273245   1.349   2.418  12.701  0.0796  0.7338  0.1283
17277TIP3    H173246   1.281   2.428  12.634 -0.8929  0.2114  1.0085
17277TIP3    H273247   1.423   2.378  12.654 -0.3460  0.9644 -0.7634
17278TIP3   OH273248   1.550   6.216   1.671  0.3514 -0.2388 -0.1980
17278TIP3    H173249   1.527   6.296   1.623  0.2897 -1.1497 -1.7423
17278TIP3    H273250   1.507   6.227   1.757 -2.8469 -0.1967 -1.6440
17279TIP3   OH273251   3.129   4.097   3.874  0.9481 -0.1984  0.4710
17279TIP3    H173252   3.215   4.077   3.837  0.6366  0.4465 -0.6413
17279TIP3    H273253   3.145   4.168   3.937  1.0770  0.7359 -0.5920
17280TIP3   OH273254   0.510   0.362  13.065  0.6330  0.3604  0.1120
17280TIP3    H173255   0.431   0.323  13.102 -0.3096  0.2646 -1.8799
17280TIP3    H273256   0.479   0.425  13.000  2.1833  0.5237 -0.5317
17281TIP3   OH273257   0.081   6.211  14.172 -0.5888 -0.0828  0.4592
17281TIP3    H173258   0.138   6.160  14.115 -0.3247  1.0745 -0.3636
17281TIP3    H273259   0.044   6.278  14.114 -0.2404  1.1924  1.6631
17282TIP3   OH273260   0.171   4.402   4.170  0.2712  0.1654 -0.0276
17282TIP3    H173261   0.241   4.396   4.106  1.1321 -2.7718  1.0462
17282TIP3    H273262   0.132   4.315   4.172 -1.8558  1.0511  1.1647
17283TIP3   OH273263   2.621   1.907  13.076  0.7857  0.0971 -0.4111
17283TIP3    H173264   2.664   1.900  12.991  1.4653 -1.0990  0.0007
17283TIP3    H273265   2.687   1.946  13.133  0.4292  0.6344 -0.3581
17284TIP3   OH273266   1.937   3.938  17.360  0.1816  0.6602 -0.4302
17284TIP3    H173267   2.010   3.951  17.420 -0.1183  0.4016 -0.0051
17284TIP3    H273268   1.862   3.978  17.404 -0.4523 -1.1814  0.2544
17285TIP3   OH273269   0.983   3.425   2.465  0.5769  0.4652  0.0759
17285TIP3    H173270   0.959   3.384   2.381  0.9996  0.8564 -0.2439
17285TIP3    H273271   0.958   3.360   2.531  1.2021 -0.2998 -0.4161
17286TIP3   OH273272   2.646   3.920  13.229  0.2327 -0.5944  0.0560
17286TIP3    H173273   2.653   3.949  13.138 -1.0184 -1.3598 -0.3137
17286TIP3    H273274   2.698   3.840  13.233  0.1249 -0.6706 -0.0458
17287TIP3   OH273275   4.483   0.789  14.193  0.4755 -0.1914 -0.5690
17287TIP3    H173276   4.488   0.815  14.285 -1.6690  0.5996 -0.6044
17287TIP3    H273277   4.550   0.842  14.150  1.4878 -0.5484  0.5198
17288TIP3   OH273278   1.045   6.380   4.162  0.2952  0.1732  0.2243
17288TIP3    H173279   1.046   6.339   4.076  0.7442  0.8215 -0.0791
17288TIP3    H273280   0.999   6.463   4.149 -2.6693 -1.1437  1.2822
17289TIP3   OH273281   4.867   0.967   3.276 -0.1110  0.3332 -0.3239
17289TIP3    H173282   4.885   1.056   3.245  0.5583  0.2117 -0.3020
17289TIP3    H273283   4.892   0.911   3.203 -1.8158  0.2144 -0.8585
17290TIP3   OH273284   6.025   3.092  17.189  0.1776  0.2446 -0.3512
17290TIP3    H173285   5.994   3.181  17.170 -0.0223  0.1154 -0.6261
17290TIP3    H273286   6.093   3.076  17.123  0.1404  0.1549 -0.3681
17291TIP3   OH273287   0.474   6.399  16.789 -0.4880  0.3683  0.2901
17291TIP3    H173288   0.536   6.413  16.860  0.5492  1.5927 -0.7932
17291TIP3    H273289   0.444   6.309  16.801  1.0159 -0.0525  1.2318
17292TIP3   OH273290   6.722   1.799  17.043  0.0824 -0.2317  0.0279
17292TIP3    H173291   6.800   1.779  16.992 -0.8221  0.7068 -1.8186
17292TIP3    H273292   6.728   1.893  17.060 -1.4712  0.2466 -1.7270
17293TIP3   OH273293   5.817   3.309  15.876  0.6890  0.2259  0.6804
17293TIP3    H173294   5.834   3.395  15.915  1.4983 -0.1599  1.2144
17293TIP3    H273295   5.900   3.262  15.887 -0.2037 -1.1578  1.8033
17294TIP3   OH273296   0.005   0.834  13.765 -0.2015  0.3456 -0.0588
17294TIP3    H173297   0.002   0.914  13.818  0.8877  0.2907  0.1079
17294TIP3    H273298  -0.026   0.862  13.679  0.2449  0.9816 -0.0243
17295TIP3   OH273299   5.301   6.393   1.450  0.2319 -0.4216  0.4916
17295TIP3    H173300   5.223   6.371   1.398 -0.1950 -0.5284  1.1691
17295TIP3    H273301   5.279   6.366   1.539  1.7428 -2.2304  0.3973
17296TIP3   OH273302   0.925   6.106   5.116 -0.1753 -0.5260  0.3109
17296TIP3    H173303   0.919   6.111   5.211  1.9975 -1.3389  0.5553
17296TIP3    H273304   1.000   6.161   5.094 -0.6372 -0.3710 -0.9512
17297TIP3   OH273305   3.445   4.413  12.543 -0.1080  0.1211 -0.2725
17297TIP3    H173306   3.425   4.507  12.549  0.1595  0.1710 -0.1284
17297TIP3    H273307   3.539   4.408  12.563 -0.0455 -0.1389 -0.6384
17298TIP3   OH273308   4.294   1.763   1.392 -0.2801 -0.4604  0.1641
17298TIP3    H173309   4.232   1.826   1.355 -0.1847 -0.7516 -0.5134
17298TIP3    H273310   4.335   1.723   1.315  1.0061 -0.0180  0.6115
17299TIP3   OH273311   0.230   6.247  15.424  0.0612  0.5673  1.1582
17299TIP3    H173312   0.244   6.178  15.358 -1.4779  0.5620  0.8002
17299TIP3    H273313   0.292   6.315  15.400 -0.7774  0.7745 -0.6240
17300TIP3   OH273314   0.471   5.047   5.330  0.2037 -0.3328 -0.1030
17300TIP3    H173315   0.509   5.095   5.403 -2.0000 -0.8805  1.5398
17300TIP3    H273316   0.429   5.114   5.276 -2.3212 -0.1616  1.8411
17301TIP3   OH273317   2.297   4.698   3.688 -0.3968 -0.8147  0.5688
17301TIP3    H173318   2.335   4.612   3.707 -2.3086 -1.7612  0.3826
17301TIP3    H273319   2.220   4.703   3.745 -1.7702 -0.3307 -1.2604
17302TIP3   OH273320   1.305   4.096   0.572  0.2532 -0.4774 -0.2045
17302TIP3    H173321   1.347   4.028   0.519 -0.4898 -1.3345  0.2732
17302TIP3    H273322   1.317   4.177   0.522  0.7091 -1.0450 -1.0304
17303TIP3   OH273323   2.030   1.799  14.891  0.7549  0.0487 -0.4569
17303TIP3    H173324   2.121   1.824  14.876  0.5448  0.0315 -1.9133
17303TIP3    H273325   1.987   1.880  14.918  1.1665  0.0909  0.0801
17304TIP3   OH273326   3.742   1.613   1.928  0.3220  0.4337  0.0493
17304TIP3    H173327   3.781   1.528   1.910  0.4299  0.4381  0.2550
17304TIP3    H273328   3.652   1.593   1.952 -0.0094  0.4791 -1.0986
17305TIP3   OH273329   4.095   3.291  11.708 -0.5199 -0.8353 -0.1611
17305TIP3    H173330   4.182   3.272  11.674  0.0064 -0.0719  0.6948
17305TIP3    H273331   4.036   3.277  11.634  0.5433  0.6253 -1.3673
17306TIP3   OH273332   1.816   5.095   0.291  0.4257 -0.0856  0.2629
17306TIP3    H173333   1.724   5.085   0.317 -0.2035 -0.5158 -1.9077
17306TIP3    H273334   1.846   5.006   0.277  0.0673  0.1447 -2.4037
17307TIP3   OH273335   5.382   4.660   3.467 -0.5324 -0.2657  0.1996
17307TIP3    H173336   5.290   4.667   3.440 -1.0909 -1.9131  1.4566
17307TIP3    H273337   5.385   4.701   3.553  0.0956  0.4704 -0.1666
17308TIP3   OH273338   0.834   5.723  14.088 -0.5970 -0.0766  0.1517
17308TIP3    H173339   0.811   5.805  14.131  0.8289  0.6536 -0.4163
17308TIP3    H273340   0.884   5.750  14.011  1.5188 -1.5061  0.9372
17309TIP3   OH273341   3.770   5.751   3.714 -0.5832  0.5514  0.5076
17309TIP3    H173342   3.820   5.680   3.754 -3.6843 -1.7695  0.6303
17309TIP3    H273343   3.785   5.742   3.620 -1.3410 -0.6852  0.4815
17310TIP3   OH273344   1.419   4.910   5.657  0.0652  0.2059  0.2674
17310TIP3    H173345   1.465   4.983   5.616  1.2665  0.0098  1.2206
17310TIP3    H273346   1.423   4.929   5.751 -1.8273  0.1882  0.3945
17311TIP3   OH273347   4.327   4.763  11.413 -0.0954  0.3140  0.5709
17311TIP3    H173348   4.349   4.715  11.493 -0.0830  0.7693  0.8432
17311TIP3    H273349   4.357   4.706  11.342  0.7129  0.3020  0.9070
17312TIP3   OH273350   5.418   0.337  16.197 -0.1513 -0.2578  0.8119
17312TIP3    H173351   5.335   0.291  16.210 -0.5751  0.0188 -0.6486
17312TIP3    H273352   5.455   0.297  16.118 -0.8430  2.2369 -0.8990
17313TIP3   OH273353   0.214   0.088  13.896 -0.0843  0.2078  0.2196
17313TIP3    H173354   0.242   0.039  13.974  0.4122  1.3567  0.7950
17313TIP3    H273355   0.163   0.025  13.846  0.5347 -0.9033  0.9144
17314TIP3   OH273356   6.163   6.445   0.531  0.0944  0.2706  0.5445
17314TIP3    H173357   6.237   6.388   0.552  0.6350  1.6848  2.8542
17314TIP3    H273358   6.145   6.428   0.439  1.9832 -1.5811  0.4381
17315TIP3   OH273359   5.361   1.454   2.482 -0.2030 -0.4519  0.0547
17315TIP3    H173360   5.452   1.471   2.459 -0.7693 -0.0368 -2.0866
17315TIP3    H273361   5.352   1.358   2.478  0.3479 -0.5608  1.2187
17316TIP3   OH273362   2.331   3.547   0.949 -0.0187  0.3079  0.1909
17316TIP3    H173363   2.301   3.496   0.873  0.3277 -1.0644  0.9561
17316TIP3    H273364   2.408   3.501   0.980  0.0167  1.0345  1.2105
17317TIP3   OH273365   2.492   0.718  16.050  0.6785 -0.0699 -0.0736
17317TIP3    H173366   2.541   0.754  16.124 -0.0455  1.2811 -0.2407
17317TIP3    H273367   2.400   0.734  16.072  0.5047  2.1828 -2.1454
17318TIP3   OH273368   3.360   4.052   1.042  0.1354 -0.1989  0.1459
17318TIP3    H173369   3.315   4.135   1.030 -2.9254 -1.9181 -1.5199
17318TIP3    H273370   3.337   4.025   1.130 -0.7846 -0.2970 -0.1151
17319TIP3   OH273371   4.987   4.699   6.552 -0.4624  0.7167 -0.5294
17319TIP3    H173372   4.924   4.760   6.590 -2.3995 -0.9932 -0.8609
17319TIP3    H273373   5.032   4.751   6.485 -1.9346  1.8252 -0.7135
17320TIP3   OH273374   5.583   0.213   1.556  0.2183 -0.7707 -0.2869
17320TIP3    H173375   5.540   0.141   1.603 -1.9045 -0.6326 -1.8747
17320TIP3    H273376   5.670   0.180   1.534 -0.4826 -2.6159 -0.4216
17321TIP3   OH273377   1.809   5.754  17.234 -0.6000  0.6387 -0.3349
17321TIP3    H173378   1.855   5.838  17.242  1.3161 -0.4827  1.1582
17321TIP3    H273379   1.810   5.735  17.141  0.5919  1.3972 -0.5007
17322TIP3   OH273380   5.641   4.777   5.417  0.4675 -0.3565 -0.5005
17322TIP3    H173381   5.552   4.801   5.445  0.9357  2.1299 -0.9062
17322TIP3    H273382   5.656   4.830   5.339  2.3933 -0.6127 -0.3412
17323TIP3   OH273383   6.354   1.143  10.500  0.5799  0.2158  0.0682
17323TIP3    H173384   6.303   1.176  10.426 -0.3438  1.8572  1.3670
17323TIP3    H273385   6.312   1.181  10.577  0.3587 -2.9073  1.6246
17324TIP3   OH273386   1.350   2.861   2.011  0.0694 -0.0114  0.0424
17324TIP3    H173387   1.402   2.931   2.051  1.7499 -2.0746  1.7208
17324TIP3    H273388   1.387   2.850   1.924  1.4854 -0.4337  0.6729
17325TIP3   OH273389   0.537   2.431   1.400 -0.5664  0.0828  0.2555
17325TIP3    H173390   0.576   2.489   1.465  0.1109  1.4948 -1.3290
17325TIP3    H273391   0.598   2.358   1.392 -0.1170  0.4382  0.4255
17326TIP3   OH273392   5.217   5.430  11.339 -0.3613  0.1634  0.3282
17326TIP3    H173393   5.171   5.512  11.352 -0.9867  0.0728 -1.0380
17326TIP3    H273394   5.148   5.363  11.343 -0.3537 -0.0045 -1.3866
17327TIP3   OH273395   6.099   4.289  14.085  0.9172 -0.3508 -0.3648
17327TIP3    H173396   6.034   4.343  14.038  0.3567  0.9374  1.7679
17327TIP3    H273397   6.150   4.352  14.136  2.4689 -1.5684 -0.3671
17328TIP3   OH273398   3.698   3.523  15.796 -0.4929  0.7024 -0.1804
17328TIP3    H173399   3.725   3.562  15.879 -0.7526  0.6220 -0.0559
17328TIP3    H273400   3.639   3.587  15.757  1.1181  1.6194 -1.2274
17329TIP3   OH273401   2.730   1.335   1.694 -0.6293  0.2423 -0.4014
17329TIP3    H173402   2.702   1.248   1.722 -0.6440 -0.5024 -2.5522
17329TIP3    H273403   2.660   1.365   1.636  0.3777  0.7521 -1.3895
17330TIP3   OH273404   1.134   6.334  17.294  0.3011  0.0742  0.6552
17330TIP3    H173405   1.223   6.343  17.261 -0.8090  0.7416 -2.6021
17330TIP3    H273406   1.125   6.403  17.359  1.2396  2.2904 -1.4215
17331TIP3   OH273407   4.011   6.279   4.519 -0.5867  0.0862 -0.1284
17331TIP3    H173408   4.053   6.229   4.449  1.6385  0.7363  0.6453
17331TIP3    H273409   3.962   6.214   4.569  2.0234 -1.4383  0.7026
17332TIP3   OH273410   3.075   1.776   6.100 -0.3159  0.1172  0.3600
17332TIP3    H173411   3.038   1.851   6.146 -2.1615  0.6962 -1.8521
17332TIP3    H273412   3.004   1.711   6.098  0.4907 -0.7888  0.3082
17333TIP3   OH273413   4.670   5.509   2.541 -0.1832 -0.0503 -0.0032
17333TIP3    H173414   4.613   5.558   2.601  0.4487  0.2968  0.3139
17333TIP3    H273415   4.632   5.421   2.540 -1.5438  0.5069 -0.8599
17334TIP3   OH273416   2.642   6.048  15.315 -0.0349 -0.7247  0.1431
17334TIP3    H173417   2.619   6.075  15.404  1.3986 -1.1277  0.6616
17334TIP3    H273418   2.685   6.124  15.277  0.2076 -0.8654  0.1331
17335TIP3   OH273419   6.563   1.186  11.948  0.0617  0.1446 -0.1863
17335TIP3    H173420   6.502   1.250  11.984  1.4545  1.8655 -0.7281
17335TIP3    H273421   6.517   1.151  11.872 -0.2827  1.4056 -0.5954
17336TIP3   OH273422   0.287   2.520   3.111 -0.1104 -0.1542  0.1549
17336TIP3    H173423   0.249   2.608   3.107 -1.1210 -0.4575  1.9099
17336TIP3    H273424   0.349   2.518   3.038 -2.3112  0.9252 -1.9154
17337TIP3   OH273425   4.123   3.403  12.510  0.5389  0.2828 -0.4654
17337TIP3    H173426   4.147   3.410  12.602 -0.7203  0.8232 -0.1449
17337TIP3    H273427   4.093   3.491  12.487  0.8712  0.1629 -1.4093
17338TIP3   OH273428   5.426   4.589   5.204  0.0019 -0.6380 -0.0860
17338TIP3    H173429   5.364   4.636   5.149  0.5193 -0.9004 -0.9149
17338TIP3    H273430   5.422   4.634   5.288 -1.7465 -1.0217  0.0818
17339TIP3   OH273431   1.562   0.133   3.658 -0.3235  0.1091 -0.1822
17339TIP3    H173432   1.597   0.134   3.747 -0.0819 -1.1846 -0.2524
17339TIP3    H273433   1.562   0.225   3.632 -0.5731  0.5237  1.2194
17340TIP3   OH273434   5.635   1.969  13.132 -0.3744 -0.3078 -0.1246
17340TIP3    H173435   5.670   1.905  13.193  0.7513  1.0910  0.7713
17340TIP3    H273436   5.540   1.964  13.142 -0.2111  0.0590  1.9731
17341TIP3   OH273437   2.168   4.163   3.384 -0.4652 -0.0905 -0.2583
17341TIP3    H173438   2.178   4.205   3.470  1.8683 -0.1116 -0.4575
17341TIP3    H273439   2.178   4.070   3.402 -2.0937 -0.3076 -0.3124
17342TIP3   OH273440   0.383   1.856  11.392  0.0228  0.8076  0.2256
17342TIP3    H173441   0.391   1.947  11.365 -0.0437  0.8266  0.2700
17342TIP3    H273442   0.326   1.859  11.470 -0.7353  0.6330 -0.3098
17343TIP3   OH273443   4.082   2.985  17.183 -1.1124 -0.0654  0.1785
17343TIP3    H173444   4.090   2.957  17.274 -2.6586 -0.1298  0.3292
17343TIP3    H273445   4.047   2.908  17.137  0.2374 -0.2417 -0.6157
17344TIP3   OH273446   6.551   3.869   0.307  0.4805  0.0919 -0.3418
17344TIP3    H173447   6.559   3.773   0.301 -0.9905 -0.1102  0.3764
17344TIP3    H273448   6.641   3.901   0.308  1.0151 -1.3415  0.0961
17345TIP3   OH273449   0.301   4.164  17.244 -0.8562 -0.2579  0.3986
17345TIP3    H173450   0.261   4.230  17.301 -3.8879 -1.6632  0.0721
17345TIP3    H273451   0.256   4.082  17.266  1.5730 -1.9341 -0.4082
17346TIP3   OH273452   2.602   5.412  15.887  0.5970  0.1586  0.6682
17346TIP3    H173453   2.641   5.368  15.963  2.5049  0.5451 -0.0231
17346TIP3    H273454   2.677   5.445  15.838 -0.5966  0.1296 -1.2642
17347TIP3   OH273455   2.588   6.295  11.705  0.4697 -0.3082  0.5507
17347TIP3    H173456   2.556   6.349  11.633  0.1185  1.7226  2.1354
17347TIP3    H273457   2.510   6.274  11.756  0.7431 -1.4652  0.5085
17348TIP3   OH273458   2.672   1.291  12.260 -0.3388  0.0109 -0.1234
17348TIP3    H173459   2.702   1.375  12.295 -1.0298  0.0625  0.3502
17348TIP3    H273460   2.727   1.277  12.183  0.2141  0.5903  0.1547
17349TIP3   OH273461   2.920   3.395   2.852  0.6516 -0.3480  0.2989
17349TIP3    H173462   3.009   3.425   2.837  0.3397  0.1780 -0.5816
17349TIP3    H273463   2.926   3.299   2.851  0.9288 -0.3377 -1.6403
17350TIP3   OH273464   1.276   0.271  16.022 -0.0199  0.4598 -0.4915
17350TIP3    H173465   1.234   0.337  15.966 -0.0177  1.5570  0.7514
17350TIP3    H273466   1.369   0.291  16.016  0.0470  0.0889 -0.6965
17351TIP3   OH273467   4.241   0.528   4.649 -0.5108 -0.0635  0.5075
17351TIP3    H173468   4.310   0.539   4.584  0.0038  0.4046  1.1240
17351TIP3    H273469   4.223   0.434   4.648  0.4251 -0.2555  0.6348
17352TIP3   OH273470   3.703   4.091   3.432 -0.1486  0.6579  0.7363
17352TIP3    H173471   3.782   4.053   3.392 -0.8583  0.1520 -0.2284
17352TIP3    H273472   3.714   4.074   3.526  0.0821 -0.9765  0.4436
17353TIP3   OH273473   1.742   6.346   1.141  0.4282  0.5711 -0.1801
17353TIP3    H173474   1.755   6.299   1.059 -0.2217 -1.5703  0.8556
17353TIP3    H273475   1.663   6.307   1.179  0.2442  2.0839  1.0758
17354TIP3   OH273476   4.863   1.000   3.713  0.2271 -0.1252 -0.3760
17354TIP3    H173477   4.940   0.995   3.656  1.8987  0.5878  1.6856
17354TIP3    H273478   4.789   1.013   3.653  2.0886  2.7267 -2.3242
17355TIP3   OH273479   3.322   1.756  15.352 -0.2152 -0.5236  0.0170
17355TIP3    H173480   3.268   1.804  15.415 -1.0887 -2.5220  0.8931
17355TIP3    H273481   3.411   1.785  15.370 -0.7038  0.7100  0.5383
17356TIP3   OH273482   5.614   0.357   2.440 -0.0795  0.3500  0.5867
17356TIP3    H173483   5.659   0.368   2.524 -1.2267  0.1558  1.2408
17356TIP3    H273484   5.613   0.444   2.401 -1.1174  0.7992  1.5949
17357TIP3   OH273485   5.725   0.307   3.491  0.2466 -0.2675  0.3436
17357TIP3    H173486   5.747   0.217   3.466 -3.0423 -0.8250 -1.1280
17357TIP3    H273487   5.763   0.362   3.423  1.2930 -0.6373  0.6160
17358TIP3   OH273488   2.398   2.602   3.135  0.1533 -0.0040  0.1235
17358TIP3    H173489   2.320   2.597   3.189  0.3565 -0.5849  0.3713
17358TIP3    H273490   2.454   2.532   3.167  0.0579 -0.7127 -1.1868
17359TIP3   OH273491   2.369   4.717  14.169 -0.8921 -0.2696 -0.9019
17359TIP3    H173492   2.449   4.740  14.122  0.0177 -1.3985  0.0388
17359TIP3    H273493   2.392   4.638  14.218 -2.2024  0.1126  0.3856
17360TIP3   OH273494   3.202   1.671  14.226 -0.3252 -0.6045 -0.2298
17360TIP3    H173495   3.189   1.622  14.307  1.0992 -2.4929 -1.0655
17360TIP3    H273496   3.274   1.731  14.246  0.9910 -2.0486 -0.4284
17361TIP3   OH273497   3.702   4.419  12.588 -0.3093  0.5635  0.4794
17361TIP3    H173498   3.762   4.363  12.539 -1.4614  0.0777 -0.4259
17361TIP3    H273499   3.752   4.499  12.605  0.3417  0.4837 -0.9207
17362TIP3   OH273500   4.170   5.050  14.689 -0.5681  0.6820 -0.0628
17362TIP3    H173501   4.217   5.121  14.734  0.8441 -0.5563  0.5041
17362TIP3    H273502   4.114   5.012  14.757  0.7230 -0.4592  0.4203
17363TIP3   OH273503   6.051   3.177   4.873 -0.6298  0.0342  0.4137
17363TIP3    H173504   5.999   3.108   4.831  0.0267  0.1501 -0.6388
17363TIP3    H273505   6.037   3.254   4.818  0.7708  0.0232  0.0051
17364TIP3   OH273506   6.360   3.121   0.452  0.3129 -0.1074 -0.0507
17364TIP3    H173507   6.368   3.127   0.547 -0.7213 -1.3377  0.1370
17364TIP3    H273508   6.269   3.145   0.435  0.5605  0.3506 -0.7663
17365TIP3   OH273509   3.924   5.261   0.500 -0.5986 -0.6098  0.5771
17365TIP3    H173510   3.944   5.331   0.563 -1.0237  0.4218 -0.3948
17365TIP3    H273511   3.994   5.197   0.513 -0.0755  0.0903  1.3616
17366TIP3   OH273512   5.514   3.124   5.953 -0.0709  0.0733 -0.7845
17366TIP3    H173513   5.431   3.170   5.935 -0.7887 -1.9296 -3.2229
17366TIP3    H273514   5.494   3.032   5.938  2.2615 -0.6479  0.1213
17367TIP3   OH273515   5.875   2.916   5.776 -0.0929  0.8242  0.3950
17367TIP3    H173516   5.948   2.860   5.804 -0.8899 -0.1279  0.6139
17367TIP3    H273517   5.856   2.971   5.852 -2.1344 -1.6219  1.8106
17368TIP3   OH273518   4.520   6.170   4.919 -0.4172 -0.2132  0.0670
17368TIP3    H173519   4.524   6.077   4.897 -1.2668 -0.2992  0.2569
17368TIP3    H273520   4.602   6.206   4.885 -0.9238 -0.6625 -1.7386
17369TIP3   OH273521   1.888   6.288  14.645  0.1944 -0.7005 -0.2429
17369TIP3    H173522   1.855   6.318  14.729  0.3213  0.0723 -0.4605
17369TIP3    H273523   1.891   6.193  14.653 -2.3398 -0.8549 -0.2816
17370TIP3   OH273524   0.918   1.793  11.809 -0.1771  0.5114 -0.8382
17370TIP3    H173525   0.936   1.701  11.825 -0.2556  0.7989  1.1680
17370TIP3    H273526   0.993   1.824  11.758  0.5727 -0.3333 -0.2759
17371TIP3   OH273527   4.272   5.839   0.875  0.1160  0.0112  0.0375
17371TIP3    H173528   4.319   5.780   0.936  1.1466  0.7746  0.0129
17371TIP3    H273529   4.285   5.798   0.789 -1.9362 -1.4521  0.3519
17372TIP3   OH273530   1.238   5.424  12.044 -0.2014  0.1665  0.1026
17372TIP3    H173531   1.179   5.361  12.003  0.5108 -0.9368  0.7206
17372TIP3    H273532   1.326   5.398  12.015  0.1384  0.6230  0.6890
17373TIP3   OH273533   3.928   2.123   2.185  0.7865 -0.0665 -0.0135
17373TIP3    H173534   3.910   2.215   2.203  1.3686  0.0966 -0.2717
17373TIP3    H273535   3.965   2.090   2.267  1.1786  0.0894 -0.1247
17374TIP3   OH273536   5.963   1.783   1.407 -0.1760  0.1849 -0.0329
17374TIP3    H173537   5.953   1.690   1.385 -1.2529  0.1287  0.6330
17374TIP3    H273538   6.057   1.799   1.399  0.0597 -1.0123  0.0542
17375TIP3   OH273539   2.262   1.160   0.598  0.6872  0.4051 -0.1341
17375TIP3    H173540   2.318   1.086   0.623  1.2483  0.7583 -0.3402
17375TIP3    H273541   2.228   1.136   0.512 -0.7175 -0.5081  0.6267
17376TIP3   OH273542   2.501   0.286  14.857 -0.2251 -0.0693  0.2581
17376TIP3    H173543   2.439   0.335  14.911  1.3540 -0.0663  2.1750
17376TIP3    H273544   2.580   0.339  14.857 -0.1580 -0.0151 -2.2295
17377TIP3   OH273545   6.027   6.076   0.855  0.4286 -0.0106 -0.0201
17377TIP3    H173546   5.976   6.107   0.781 -0.9751 -2.2520 -0.0712
17377TIP3    H273547   6.116   6.067   0.821 -0.2002 -1.0535 -1.4896
17378TIP3   OH273548   2.113   6.477  14.248  0.7176 -0.0985  0.0606
17378TIP3    H173549   2.104   6.390  14.287 -0.6046 -0.3367 -0.7011
17378TIP3    H273550   2.141   6.533  14.320  1.7705 -1.1756  0.5287
17379TIP3   OH273551   3.965   2.592   2.484 -0.7840  0.2429  0.3408
17379TIP3    H173552   3.958   2.530   2.557  1.1391 -0.7681 -0.2652
17379TIP3    H273553   3.977   2.536   2.407  1.5422  1.3248 -0.1631
17380TIP3   OH273554   1.499   1.706   2.137  0.2241 -0.2331  0.1177
17380TIP3    H173555   1.553   1.765   2.190  0.4377 -0.4036  0.0909
17380TIP3    H273556   1.411   1.744   2.142  0.6860  1.1091 -1.3721
17381TIP3   OH273557   3.194   2.356   1.932 -0.2695  0.1363 -0.3637
17381TIP3    H173558   3.234   2.275   1.961 -1.9516 -0.9545 -0.9747
17381TIP3    H273559   3.203   2.355   1.837  1.2039  1.5343 -0.2969
17382TIP3   OH273560   1.742   4.021  13.078 -0.0247  0.4932  0.0142
17382TIP3    H173561   1.700   4.006  13.162 -1.7079 -1.7460 -1.1022
17382TIP3    H273562   1.792   3.942  13.061  1.1870  1.3611 -0.6397
17383TIP3   OH273563   6.179   2.832   4.068 -0.2982  0.1509  0.2574
17383TIP3    H173564   6.133   2.749   4.066  1.6785 -1.0274  0.9227
17383TIP3    H273565   6.224   2.838   3.984 -0.6012  0.6655  0.1246
17384TIP3   OH273566   5.555   5.420   0.566  0.3149  0.1680 -0.1102
17384TIP3    H173567   5.524   5.331   0.553  0.0807  0.4524 -1.6343
17384TIP3    H273568   5.493   5.457   0.630  1.1567 -1.1032  1.5055
17385TIP3   OH273569   4.351   2.496  16.351 -0.4423 -0.3747 -0.5726
17385TIP3    H173570   4.345   2.402  16.371 -0.6831 -0.2237  0.1017
17385TIP3    H273571   4.363   2.500  16.257 -0.5194 -1.0882 -0.6164
17386TIP3   OH273572   3.106   2.650   3.994  0.5482  0.5384  0.0660
17386TIP3    H173573   3.193   2.623   4.023  0.3411 -0.6160 -0.3004
17386TIP3    H273574   3.110   2.646   3.899  0.3637  1.4081  0.0134
17387TIP3   OH273575   0.422   0.256  12.627 -0.2743 -0.0907 -0.0351
17387TIP3    H173576   0.341   0.250  12.678 -1.9955 -2.3827 -2.7950
17387TIP3    H273577   0.394   0.282  12.540  2.3035  1.3296 -0.5369
17388TIP3   OH273578   0.179   0.475  13.005  0.5183 -0.1121 -0.7484
17388TIP3    H173579   0.215   0.466  13.093  0.3830 -2.0351 -0.8433
17388TIP3    H273580   0.102   0.531  13.016  0.1814 -0.7724  0.4748
17389TIP3   OH273581   2.288   2.916   1.962 -0.9341 -0.2749 -0.1968
17389TIP3    H173582   2.271   2.921   1.868 -2.4422  1.1270  0.1048
17389TIP3    H273583   2.367   2.862   1.969 -1.7032 -1.7754 -2.1459
17390TIP3   OH273584   1.460   2.491   1.240  0.0271  0.5815 -0.0480
17390TIP3    H173585   1.399   2.536   1.298 -0.1232 -1.1867  1.2266
17390TIP3    H273586   1.485   2.412   1.287  0.6467 -0.4566 -2.0142
17391TIP3   OH273587   5.449   1.520  12.338  0.0291 -0.0485  0.3930
17391TIP3    H173588   5.500   1.442  12.359  0.7653 -0.4834 -2.5282
17391TIP3    H273589   5.512   1.578  12.294 -1.0197  1.2569  0.5579
17392TIP3   OH273590   4.808   1.615   4.211  0.0362 -0.5999 -0.2124
17392TIP3    H173591   4.772   1.695   4.249  0.6566 -0.9383  1.1620
17392TIP3    H273592   4.847   1.644   4.128 -0.1922  0.4231  0.0163
17393TIP3   OH273593   5.601   0.036  17.306  0.4794 -0.0307  0.0429
17393TIP3    H173594   5.671   0.060  17.244 -1.5709  2.4525 -1.5258
17393TIP3    H273595   5.556  -0.037  17.264  1.3627 -0.8731  0.5093
17394TIP3   OH273596   0.190   0.186   1.339 -0.2594  0.5368 -0.1703
17394TIP3    H173597   0.267   0.199   1.285  0.2327  0.3064  0.4603
17394TIP3    H273598   0.140   0.117   1.294 -2.0995  3.2599 -2.6805
17395TIP3   OH273599   6.738   5.499  14.541 -0.2754  0.2642  0.0682
17395TIP3    H173600   6.653   5.470  14.573  0.5748 -0.3465  1.9948
17395TIP3    H273601   6.772   5.554  14.612  0.4211  1.5421 -1.2102
17396TIP3   OH273602   6.721   5.832   5.952  0.4217 -0.2239  0.3103
17396TIP3    H173603   6.653   5.891   5.919 -0.1524 -0.8133  0.4366
17396TIP3    H273604   6.759   5.793   5.874  0.0605 -0.5058  0.2719
17397TIP3   OH273605   1.905   6.293   1.935 -0.3569 -0.0128  0.6442
17397TIP3    H173606   1.866   6.262   1.854 -0.0788  1.7422 -0.2239
17397TIP3    H273607   1.875   6.232   2.002 -0.5931 -1.5055 -0.7684
17398TIP3   OH273608   2.672   1.015  11.357 -0.2559  0.1269  0.4451
17398TIP3    H173609   2.644   1.003  11.267 -2.3157 -1.0509  1.1725
17398TIP3    H273610   2.617   1.087  11.390  0.9325  0.9926  0.6103
17399TIP3   OH273611   6.360   5.110  15.942  0.2434 -0.1795 -0.2871
17399TIP3    H173612   6.312   5.170  15.998 -0.1220 -0.9171  0.2106
17399TIP3    H273613   6.303   5.033  15.934  0.6286 -0.4006 -1.0332
17400TIP3   OH273614   4.820   4.047   5.478  0.0587 -0.2180 -0.3101
17400TIP3    H173615   4.791   3.956   5.465  0.1468 -0.3030  0.0737
17400TIP3    H273616   4.900   4.039   5.530  0.0684  0.0791 -0.2799
17401TIP3   OH273617   5.873   1.093   1.407  0.3264  0.4147 -0.5343
17401TIP3    H173618   5.814   1.168   1.395 -0.2267  0.3073  1.2663
17401TIP3    H273619   5.852   1.035   1.335 -0.9764  0.9005 -0.5696
17402TIP3   OH273620   0.402   2.046  12.558 -0.3611 -0.4463  0.3671
17402TIP3    H173621   0.463   2.117  12.540 -0.9338 -0.4779 -2.1657
17402TIP3    H273622   0.444   1.994  12.627  0.2779  2.0263  1.9437
17403TIP3   OH273623   3.518   2.219   3.574 -0.2791 -0.8499 -0.2158
17403TIP3    H173624   3.489   2.204   3.664  0.8386 -1.1571  0.1173
17403TIP3    H273625   3.457   2.283   3.539 -0.6655 -0.6427  0.8063
17404TIP3   OH273626   2.247   3.378   1.962 -0.0802  0.5853  0.2716
17404TIP3    H173627   2.315   3.321   1.927 -1.2460 -2.5039  2.6244
17404TIP3    H273628   2.287   3.421   2.037  0.1142  1.1648 -0.1511
17405TIP3   OH273629   3.003   1.377   4.431  0.0131  0.7108 -0.2037
17405TIP3    H173630   2.910   1.363   4.414  0.0239 -1.4202  1.1736
17405TIP3    H273631   3.005   1.439   4.504 -0.2247  2.2479 -1.4409
17406TIP3   OH273632   1.144   2.786   6.905 -0.7248  0.1614  0.2916
17406TIP3    H173633   1.051   2.796   6.888 -0.6241  1.5052  0.4715
17406TIP3    H273634   1.177   2.875   6.914  0.2387 -0.3244  2.0323
17407TIP3   OH273635   5.591   5.458   2.199 -0.6591  0.2574  0.1939
17407TIP3    H173636   5.639   5.522   2.146 -0.8337 -1.0731 -1.6822
17407TIP3    H273637   5.615   5.373   2.161 -2.8174 -0.5821  0.5646
17408TIP3   OH273638   6.061   1.149   5.371 -0.7701  0.5795  0.4136
17408TIP3    H173639   6.124   1.204   5.418  0.6230 -0.1430 -0.5516
17408TIP3    H273640   6.105   1.065   5.361 -1.4084  0.4070 -1.3088
17409TIP3   OH273641   0.280   1.708   0.517  0.2622  0.0952  0.3594
17409TIP3    H173642   0.314   1.709   0.606  1.5037 -2.2056 -0.0078
17409TIP3    H273643   0.299   1.620   0.485 -0.9904  0.5527 -1.8767
17410TIP3   OH273644   2.768   6.030  12.652 -0.4465  0.4005  0.1129
17410TIP3    H173645   2.730   5.964  12.593 -2.5172  1.4292  0.2142
17410TIP3    H273646   2.756   5.994  12.739 -1.3007  0.7430  0.1479
17411TIP3   OH273647   4.618   3.821  11.711  0.1745 -0.1684  0.0346
17411TIP3    H173648   4.649   3.900  11.756  0.5993  0.5068 -1.3974
17411TIP3    H273649   4.610   3.847  11.620 -0.4997 -1.5639 -0.3264
17412TIP3   OH273650   5.435   5.819  14.274 -0.4461 -0.4954 -0.0668
17412TIP3    H173651   5.356   5.799  14.324 -0.8812 -0.6969 -0.8162
17412TIP3    H273652   5.503   5.766  14.316 -1.1275 -1.8795 -0.6283
17413TIP3   OH273653   6.656   1.304  13.929 -0.0541 -0.0202 -0.7245
17413TIP3    H173654   6.749   1.293  13.909  0.2896  0.5229  0.5131
17413TIP3    H273655   6.635   1.392  13.899  0.0009  0.1094 -0.3827
17414TIP3   OH273656   2.705   4.694  11.889  0.0407 -0.1617  0.1718
17414TIP3    H173657   2.771   4.724  11.953 -0.3159  0.1061  0.4214
17414TIP3    H273658   2.708   4.599  11.895  0.4006 -0.1518  0.1897
17415TIP3   OH273659   4.830   0.902  10.803 -0.5415  0.6083 -0.3886
17415TIP3    H173660   4.881   0.844  10.747  0.6133  2.3977 -1.2775
17415TIP3    H273661   4.755   0.927  10.750 -1.3241 -0.4221  0.1857
17416TIP3   OH273662   4.199   2.537   3.392 -0.1720  0.3739  0.0980
17416TIP3    H173663   4.167   2.577   3.311  0.6270  2.5252  0.7707
17416TIP3    H273664   4.274   2.484   3.366  1.1274  2.3682 -0.4389
17417TIP3   OH273665   6.344   5.952   5.829 -0.5745  0.5112  0.5220
17417TIP3    H173666   6.262   5.937   5.782 -0.4851 -0.5710  0.6723
17417TIP3    H273667   6.327   6.028   5.885 -1.9838 -0.5880  1.6611
17418TIP3   OH273668   2.356   4.351  15.494 -0.3590 -0.2048  0.5166
17418TIP3    H173669   2.329   4.330  15.583 -2.5397 -0.8712 -0.2423
17418TIP3    H273670   2.450   4.368  15.501  0.1067 -2.9117  2.4652
17419TIP3   OH273671   2.953   2.312  10.997 -0.0220  0.0628 -0.1542
17419TIP3    H173672   2.985   2.400  10.977  0.3706 -0.1834 -0.6098
17419TIP3    H273673   3.027   2.255  10.980  0.8620 -0.0527  3.3562
17420TIP3   OH273674   6.231   3.149   2.356 -0.0687 -0.4244  0.2989
17420TIP3    H173675   6.232   3.068   2.406 -1.3642 -1.4055 -1.1959
17420TIP3    H273676   6.297   3.137   2.288  0.9767  0.5063  1.1022
17421TIP3   OH273677   3.680   6.492  12.362 -0.0628 -0.3506  0.4286
17421TIP3    H173678   3.640   6.572  12.396 -0.8608 -0.1520 -0.8897
17421TIP3    H273679   3.626   6.421  12.397 -1.4998 -0.0971 -1.1268
17422TIP3   OH273680   2.027   3.308   6.638 -0.1660 -0.0557  0.1428
17422TIP3    H173681   2.079   3.272   6.566  0.3468  0.4390  0.2527
17422TIP3    H273682   1.981   3.382   6.599 -1.4508 -0.9898 -0.1571
17423TIP3   OH273683   5.109   4.792   1.644  0.1743 -0.0285  0.6248
17423TIP3    H173684   5.063   4.755   1.569 -0.8843 -0.6096  1.5321
17423TIP3    H273685   5.107   4.887   1.630  1.5643 -0.1903 -0.9540
17424TIP3   OH273686   0.712   4.286  16.473  0.3493 -0.0038  0.0158
17424TIP3    H173687   0.800   4.250  16.464  0.4263 -0.0573  0.8735
17424TIP3    H273688   0.725   4.378  16.495  0.2005 -0.0584  0.3443
17425TIP3   OH273689   2.372   4.822   6.761  0.1911 -0.2918 -0.7527
17425TIP3    H173690   2.342   4.906   6.794  0.1749  0.2032 -1.9791
17425TIP3    H273691   2.314   4.758   6.802 -0.3203  0.3589 -0.4429
17426TIP3   OH273692   6.082   2.020   1.045  0.0261  0.4692  0.1795
17426TIP3    H173693   5.995   2.061   1.043 -0.5380 -0.7219 -1.0669
17426TIP3    H273694   6.064   1.926   1.049  1.2595  0.2171  0.0100
17427TIP3   OH273695   5.515   3.546  13.017  0.3949 -0.0459  0.0497
17427TIP3    H173696   5.589   3.500  12.977 -0.3313 -1.1998 -0.0201
17427TIP3    H273697   5.491   3.612  12.952  1.3111  0.2932  0.0450
17428TIP3   OH273698   6.349   1.883   4.430  0.0100 -0.5330  0.7380
17428TIP3    H173699   6.278   1.880   4.495  0.0004 -0.9528  0.7129
17428TIP3    H273700   6.342   1.799   4.384 -0.2208 -0.0846 -0.0648
17429TIP3   OH273701   0.482   5.125   1.718  0.3992 -0.3823 -0.3856
17429TIP3    H173702   0.419   5.072   1.767  1.6411 -1.3133  0.2716
17429TIP3    H273703   0.545   5.061   1.684  0.8242  0.4880 -1.3024
17430TIP3   OH273704   2.416   0.177   4.327 -0.1350  0.0180 -0.1046
17430TIP3    H173705   2.349   0.126   4.372  0.2399 -0.0677  0.3665
17430TIP3    H273706   2.494   0.169   4.383 -0.4833  2.3495  0.8104
17431TIP3   OH273707   2.576   5.050   5.935  0.2706  0.1215 -0.1228
17431TIP3    H173708   2.495   5.081   5.974  0.7990  0.1254  1.0085
17431TIP3    H273709   2.555   4.963   5.902 -0.5943  0.7262 -1.2356
17432TIP3   OH273710   0.144   3.437   3.864  0.1946 -0.0381 -0.4943
17432TIP3    H173711   0.207   3.503   3.835  0.9823 -1.4286 -2.1539
17432TIP3    H273712   0.189   3.354   3.851 -1.6238 -1.0294 -0.8135
17433TIP3   OH273713   3.290   1.472  14.922  0.6627 -0.0950 -0.1341
17433TIP3    H173714   3.364   1.453  14.980  0.9162 -1.4776 -0.8704
17433TIP3    H273715   3.310   1.559  14.886  2.5618 -0.9125 -1.2086
17434TIP3   OH273716   4.868   4.318   2.520  0.3111 -0.3208  0.0958
17434TIP3    H173717   4.926   4.267   2.462 -0.6311 -1.5494  0.1829
17434TIP3    H273718   4.907   4.307   2.607 -0.1616 -1.3466  0.1912
17435TIP3   OH273719   1.050   3.691  13.751 -0.5570 -0.1237  0.0657
17435TIP3    H173720   0.971   3.726  13.793 -0.3470  1.1295 -0.5230
17435TIP3    H273721   1.035   3.705  13.657  0.4219  0.2678 -0.0447
17436TIP3   OH273722   5.243   2.698  11.481  0.2401  0.1540  0.2107
17436TIP3    H173723   5.187   2.704  11.404  0.5566  2.0842  0.0808
17436TIP3    H273724   5.183   2.679  11.553 -0.8755  3.3555  0.2813
17437TIP3   OH273725   2.160   5.670  17.165 -0.1131  0.4251  0.3890
17437TIP3    H173726   2.104   5.683  17.089  1.6246  0.0909 -1.0263
17437TIP3    H273727   2.181   5.577  17.163  2.0730  0.8707 -0.3592
17438TIP3   OH273728   5.165   6.170  14.468 -0.5006  0.9349 -0.6037
17438TIP3    H173729   5.251   6.198  14.438  0.3522 -0.1803  0.7208
17438TIP3    H273730   5.152   6.084  14.430  0.1052 -0.0027  1.2012
17439TIP3   OH273731   1.133   3.557  15.608 -0.0999 -0.2079 -0.6514
17439TIP3    H173732   1.164   3.516  15.689  0.3323  1.8109  0.2543
17439TIP3    H273733   1.116   3.483  15.549  1.8245 -1.6403  0.4703
17440TIP3   OH273734   2.154   5.330  12.229  0.1693 -0.0723 -0.7439
17440TIP3    H173735   2.064   5.299  12.221  0.4612 -1.0788 -0.1850
17440TIP3    H273736   2.196   5.268  12.287  1.5327 -0.2581 -1.8836
17441TIP3   OH273737   5.678   1.738   3.270  0.4718  0.3062  0.3989
17441TIP3    H173738   5.730   1.722   3.348  0.3902 -1.3080  0.1495
17441TIP3    H273739   5.625   1.659   3.259 -0.4388  1.0192 -0.5818
17442TIP3   OH273740   4.933   0.684  15.496  0.1074 -0.3327 -0.8117
17442TIP3    H173741   4.897   0.692  15.408  1.2750  0.0880 -1.2640
17442TIP3    H273742   4.857   0.661  15.550 -0.6193 -0.6201 -1.9152
17443TIP3   OH273743   2.628   5.325  14.595 -0.4325  0.0968  0.1991
17443TIP3    H173744   2.580   5.399  14.558  0.9186  0.7930 -0.2437
17443TIP3    H273745   2.660   5.277  14.518 -1.8642 -1.3767  0.4686
17444TIP3   OH273746   0.161   6.577   4.164 -0.2669  0.1433  0.6972
17444TIP3    H173747   0.141   6.568   4.257 -1.6338 -2.2780  0.2672
17444TIP3    H273748   0.203   6.495   4.140 -1.7735 -0.1729 -1.1831
17445TIP3   OH273749   2.559   3.769  15.231  0.5535  0.1487  0.4675
17445TIP3    H173750   2.647   3.770  15.191  0.5842 -0.5954  0.5002
17445TIP3    H273751   2.528   3.680  15.219  0.5696 -0.1209  2.1286
17446TIP3   OH273752   6.074   3.531  12.862 -0.3447 -0.1322 -0.1033
17446TIP3    H173753   6.049   3.617  12.828 -0.3544 -0.3993 -0.7722
17446TIP3    H273754   5.991   3.486  12.877 -0.3156 -0.4622 -0.8935
17447TIP3   OH273755   5.941   4.647  14.573 -0.2450  0.2760 -0.6590
17447TIP3    H173756   6.017   4.685  14.618 -0.4980  1.1637 -0.9648
17447TIP3    H273757   5.884   4.616  14.644  0.2182 -0.0352 -0.4202
17448TIP3   OH273758   4.197   3.808   1.629 -0.5741  0.1320 -0.1963
17448TIP3    H173759   4.266   3.830   1.567 -0.3619 -0.0984 -0.0396
17448TIP3    H273760   4.127   3.771   1.574  0.1588 -1.3919 -0.1662
17449TIP3   OH273761   3.732   0.297  16.050 -1.1911 -0.8173 -0.3173
17449TIP3    H173762   3.828   0.299  16.050 -1.1728  0.8435  0.8340
17449TIP3    H273763   3.710   0.209  16.080 -0.0511 -1.4149 -1.1331
17450TIP3   OH273764   3.672   1.444  14.312  0.4514 -0.1226 -0.1399
17450TIP3    H173765   3.687   1.462  14.405  0.4799  3.2288 -0.6852
17450TIP3    H273766   3.744   1.386  14.286  0.6985 -0.7389  1.7719
17451TIP3   OH273767   1.106   1.347  13.611 -0.3265  0.0819 -0.2410
17451TIP3    H173768   1.151   1.310  13.535 -0.3730  0.2355 -0.3445
17451TIP3    H273769   1.015   1.320  13.601  0.0539 -1.8277  0.9477
17452TIP3   OH273770   1.126   4.147   3.154  0.0814 -0.2620  0.2536
17452TIP3    H173771   1.054   4.209   3.143  1.0381  0.8900  0.2293
17452TIP3    H273772   1.180   4.159   3.075  0.5987 -0.6939  0.5301
17453TIP3   OH273773   6.063   1.269  13.621 -0.5611  0.9109  0.4061
17453TIP3    H173774   5.979   1.295  13.583  0.3814  2.1708 -0.9001
17453TIP3    H273775   6.056   1.174  13.630 -2.4062  1.0663  1.0524
17454TIP3   OH273776   0.018   2.196   4.910  0.1305 -0.7774 -0.1343
17454TIP3    H173777   0.085   2.263   4.900 -1.4035  0.8789  0.1201
17454TIP3    H273778  -0.009   2.177   4.820  0.5142 -0.9874 -0.2048
17455TIP3   OH273779   3.527   5.541  15.122  0.4929 -0.7804 -0.0181
17455TIP3    H173780   3.611   5.497  15.112  0.4219 -0.8059 -0.5400
17455TIP3    H273781   3.463   5.479  15.087  0.4202 -0.1555 -1.0535
17456TIP3   OH273782   6.354   2.578  11.366 -0.2629 -0.4247 -0.2237
17456TIP3    H173783   6.411   2.515  11.322  0.3422 -0.7272  0.9267
17456TIP3    H273784   6.412   2.651  11.388 -0.5892 -0.2060 -0.0833
17457TIP3   OH273785   2.538   5.028  11.880  0.2723  0.0410  0.4424
17457TIP3    H173786   2.626   5.018  11.845 -0.1619  0.4841 -0.8543
17457TIP3    H273787   2.493   4.947  11.856  0.2551 -0.0782  0.8737
17458TIP3   OH273788   5.501   6.650   5.032  0.1055 -0.5271 -0.4802
17458TIP3    H173789   5.414   6.640   4.995 -0.1864 -0.5499  0.2021
17458TIP3    H273790   5.538   6.726   4.986 -0.4619 -0.2087 -0.4193
17459TIP3   OH273791   3.272   4.309   0.971  0.5413 -0.2234 -0.0513
17459TIP3    H173792   3.279   4.361   1.052 -0.9343  0.9130 -0.6134
17459TIP3    H273793   3.290   4.372   0.901 -0.7473 -0.5760 -0.7176
17460TIP3   OH273794   1.891   4.322  10.652 -0.2610  0.5306  0.3280
17460TIP3    H173795   1.963   4.367  10.696 -0.7805  0.3373  1.4303
17460TIP3    H273796   1.849   4.390  10.600  1.5493  0.3454 -1.4905
17461TIP3   OH273797   5.974   5.377   0.458  0.5127 -0.0599  0.1366
17461TIP3    H173798   5.983   5.459   0.410 -0.2887 -0.8121 -1.3742
17461TIP3    H273799   6.041   5.320   0.420 -0.5164 -0.8514 -0.5612
17462TIP3   OH273800   6.705   5.892   1.002 -0.4746  0.2038  0.4686
17462TIP3    H173801   6.706   5.886   0.906 -1.9698 -1.4896  0.5003
17462TIP3    H273802   6.782   5.841   1.029 -0.4582  0.0761  0.1943
17463TIP3   OH273803   3.110   1.019  15.224 -0.0480  0.3632  0.0397
17463TIP3    H173804   3.187   1.075  15.214  0.0697 -0.0522 -1.5832
17463TIP3    H273805   3.060   1.060  15.295  1.2890  1.0459  0.6326
17464TIP3   OH273806   5.378   6.536  13.385  0.1993 -0.4947  0.0452
17464TIP3    H173807   5.409   6.514  13.473  0.5919 -3.9354 -0.7970
17464TIP3    H273808   5.350   6.452  13.348  1.4146  0.5174 -3.6222
17465TIP3   OH273809   1.253   3.818   3.281 -0.5474  0.7747 -0.1007
17465TIP3    H173810   1.209   3.877   3.219 -0.4559 -0.7368 -1.6860
17465TIP3    H273811   1.181   3.780   3.332 -0.8572  0.3417 -0.8393
17466TIP3   OH273812   3.302   3.850  14.671  0.0581  0.2501 -0.2277
17466TIP3    H173813   3.242   3.787  14.630  0.6934 -0.0989 -0.6380
17466TIP3    H273814   3.245   3.912  14.716 -0.5893 -1.6199  1.7238
17467TIP3   OH273815   5.593   0.612  12.586 -0.7170 -0.2450  0.1280
17467TIP3    H173816   5.519   0.565  12.547 -0.9121  0.3963 -0.2848
17467TIP3    H273817   5.659   0.615  12.516 -0.2371 -0.9385  0.5389
17468TIP3   OH273818   4.893   1.787  11.009  0.0415  0.2197 -0.2454
17468TIP3    H173819   4.824   1.729  10.978  1.8853 -2.1605 -0.1577
17468TIP3    H273820   4.904   1.851  10.939 -1.6779  0.1993 -0.5912
17469TIP3   OH273821   0.764   3.098  13.001  0.4598  0.3088  0.5259
17469TIP3    H173822   0.673   3.108  12.973  0.8311  0.1292 -0.8320
17469TIP3    H273823   0.768   3.140  13.087 -0.6580  1.3068  0.1214
17470TIP3   OH273824   3.302   1.995   3.959  0.0767  0.6547  0.0318
17470TIP3    H173825   3.307   1.919   3.902  0.0654 -0.1161  1.0270
17470TIP3    H273826   3.213   2.029   3.945  0.3853  1.0422 -1.0860
17471TIP3   OH273827   5.390   2.201   6.200 -0.5798 -0.1688 -0.3625
17471TIP3    H173828   5.440   2.121   6.186  0.1437  0.4572 -1.4546
17471TIP3    H273829   5.387   2.243   6.115  0.3426  1.6984  0.4680
17472TIP3   OH273830   3.442   6.282  11.685  0.0674 -0.6160  0.2721
17472TIP3    H173831   3.516   6.341  11.700  0.2812 -0.6659 -0.5727
17472TIP3    H273832   3.373   6.315  11.744 -0.4300  1.6003 -1.4255
17473TIP3   OH273833   3.786   0.671  12.501 -0.6048 -0.1146 -0.7177
17473TIP3    H173834   3.763   0.642  12.413 -1.2708 -0.9655 -0.2880
17473TIP3    H273835   3.713   0.641  12.555  0.3244 -0.6208  0.3009
17474TIP3   OH273836   4.789   1.417  14.761 -0.3156  0.0456  0.2009
17474TIP3    H173837   4.834   1.335  14.784 -0.4494 -0.6325 -1.8024
17474TIP3    H273838   4.838   1.484  14.809  2.8439 -0.6728 -1.7335
17475TIP3   OH273839   3.230   5.417   1.935 -0.1461 -0.1231 -0.4260
17475TIP3    H173840   3.193   5.330   1.954 -2.7799  0.7860 -1.0103
17475TIP3    H273841   3.294   5.401   1.865  0.2188 -1.7158  0.2236
17476TIP3   OH273842   0.450   3.009  16.961 -0.4217 -0.4044 -0.1126
17476TIP3    H173843   0.392   2.933  16.954  0.3621 -1.0768  0.4702
17476TIP3    H273844   0.520   2.980  17.019  0.3913  0.4603 -0.6396
17477TIP3   OH273845   5.548   0.908   0.736 -0.3650 -0.3151  0.1040
17477TIP3    H173846   5.489   0.880   0.806  0.3690 -0.5602  0.6376
17477TIP3    H273847   5.493   0.957   0.676 -0.8549  0.6003  1.2694
17478TIP3   OH273848   4.355   1.287   5.704  0.3856 -0.9569 -0.3104
17478TIP3    H173849   4.263   1.286   5.732  0.2435 -2.2722 -0.7442
17478TIP3    H273850   4.359   1.358   5.639  0.0300  0.0777  0.7720
17479TIP3   OH273851   0.246   3.168  14.645 -0.3021 -0.4648 -0.2936
17479TIP3    H173852   0.324   3.205  14.604  0.8026 -0.7391  1.4704
17479TIP3    H273853   0.180   3.236  14.638  0.6550  0.4895 -0.2012
17480TIP3   OH273854   4.326   1.132  15.213 -0.6509 -0.0034  0.3134
17480TIP3    H173855   4.244   1.089  15.188  0.7300 -2.2105 -0.7345
17480TIP3    H273856   4.335   1.114  15.306 -1.3298  0.2702  0.4417
17481TIP3   OH273857   4.025   1.109  15.445  0.4025  0.0096  0.8100
17481TIP3    H173858   4.064   1.126  15.531 -0.6162  0.4458  1.2004
17481TIP3    H273859   4.025   1.194  15.401 -1.2792  0.3048  1.3226
17482TIP3   OH273860   2.005   4.956   0.991  0.3326  0.5188  0.0382
17482TIP3    H173861   1.931   4.894   0.987 -1.9885  3.1450 -1.4977
17482TIP3    H273862   2.076   4.911   0.944 -1.2025 -1.0490 -0.9327
17483TIP3   OH273863   0.490   3.946   4.742  0.2019 -0.2349 -0.3846
17483TIP3    H173864   0.451   4.009   4.803  2.5175 -0.2328  1.2069
17483TIP3    H273865   0.561   3.994   4.700  1.4802 -1.5213  0.2491
17484TIP3   OH273866   0.282   0.680   5.502 -0.4600  0.9403  0.3939
17484TIP3    H173867   0.346   0.723   5.559 -1.0862  2.1751  0.1962
17484TIP3    H273868   0.204   0.736   5.507 -1.2695 -0.1193  0.0307
17485TIP3   OH273869   1.103   2.945  11.950  0.5628  0.2634  0.0402
17485TIP3    H173870   1.016   2.918  11.921  0.3102  2.4860 -1.5632
17485TIP3    H273871   1.157   2.942  11.872  1.2170  1.4860  0.4134
17486TIP3   OH273872   5.370   6.015   6.207  0.0143  0.1085  0.1015
17486TIP3    H173873   5.394   6.012   6.114 -1.0503  2.1906 -0.3169
17486TIP3    H273874   5.433   6.076   6.245 -0.0638 -0.0954  0.5573
17487TIP3   OH273875   1.813   6.392   5.317 -0.0177 -0.1862  0.4974
17487TIP3    H173876   1.907   6.402   5.334  0.1068 -0.8496  0.2236
17487TIP3    H273877   1.806   6.311   5.267 -0.9092 -1.0934  2.0090
17488TIP3   OH273878   6.106   6.386  16.578  0.1170 -0.0372 -0.0536
17488TIP3    H173879   6.174   6.452  16.570  0.7146 -0.4549  1.3510
17488TIP3    H273880   6.144   6.318  16.634  0.0821 -2.3482 -2.6205
17489TIP3   OH273881   5.485   4.870  13.862  0.2049  0.0534 -0.7235
17489TIP3    H173882   5.495   4.949  13.914  1.1178 -0.8619  0.5597
17489TIP3    H273883   5.447   4.806  13.922 -0.1143 -0.6197 -1.6048
17490TIP3   OH273884   3.568   3.492   0.718 -0.0145 -0.0637 -0.2587
17490TIP3    H173885   3.617   3.574   0.714  0.9848 -0.6181  0.3223
17490TIP3    H273886   3.484   3.512   0.676 -0.0806  1.4562  0.5412
17491TIP3   OH273887   5.831   4.407   1.247  0.1654  0.1130 -0.3022
17491TIP3    H173888   5.918   4.405   1.286  0.2415 -1.3454 -0.4802
17491TIP3    H273889   5.843   4.370   1.159 -0.4885  0.6912 -0.6445
17492TIP3   OH273890   4.291   1.490  11.077  0.4876  0.3301 -0.1749
17492TIP3    H173891   4.363   1.476  11.015  0.2769 -0.9271 -0.1663
17492TIP3    H273892   4.212   1.476  11.025  0.3130 -1.1235  0.4387
17493TIP3   OH273893   2.225   4.096  16.961 -0.2579  0.1500  0.3443
17493TIP3    H173894   2.287   4.066  17.029  1.2663  1.1123 -0.5681
17493TIP3    H273895   2.139   4.074  16.996  0.5109  0.1408  2.3695
17494TIP3   OH273896   6.063   1.460  16.285  0.6140  0.0994  0.2675
17494TIP3    H173897   6.159   1.462  16.293  0.6729 -0.0931 -0.3592
17494TIP3    H273898   6.047   1.421  16.199  0.0098  3.1788 -1.1247
17495TIP3   OH273899   5.794   4.033   1.062 -0.4377  0.2942  0.5361
17495TIP3    H173900   5.830   3.970   0.999  0.0998 -1.6319  2.6229
17495TIP3    H273901   5.705   4.001   1.080 -1.2108  1.8009 -0.4402
17496TIP3   OH273902   0.523   2.122   4.778 -0.1723  0.2803  0.5667
17496TIP3    H173903   0.462   2.190   4.748 -0.4720 -0.8337 -1.5860
17496TIP3    H273904   0.570   2.096   4.698  0.7653 -1.1942  1.5586
17497TIP3   OH273905   0.440   4.285  12.351 -0.7719 -0.1677  0.1658
17497TIP3    H173906   0.357   4.239  12.362 -1.6002  1.1453 -0.3032
17497TIP3    H273907   0.419   4.357  12.291  0.5957  0.4836  0.4379
17498TIP3   OH273908   1.708   3.162  11.892 -0.2723 -0.1834 -0.1944
17498TIP3    H173909   1.692   3.145  11.799  0.7149  1.1632 -0.6403
17498TIP3    H273910   1.774   3.097  11.917  2.3125  1.7563 -1.4798
17499TIP3   OH273911   2.389   5.800  12.742 -0.9379  0.1988 -0.1310
17499TIP3    H173912   2.355   5.716  12.713 -1.1887  1.0142 -2.3602
17499TIP3    H273913   2.373   5.801  12.837 -0.9122 -2.2280 -0.0413
17500TIP3   OH273914   1.446   5.256   1.851 -0.1837  0.2908  0.2308
17500TIP3    H173915   1.444   5.241   1.757  0.2720  0.5627  0.1726
17500TIP3    H273916   1.470   5.348   1.860 -3.3738  1.1875  0.5663
17501TIP3   OH273917   0.960   5.997   1.271 -0.1626 -0.5227 -0.1090
17501TIP3    H173918   0.943   5.907   1.243 -3.2307  0.8109 -3.2926
17501TIP3    H273919   0.877   6.025   1.311 -0.1364  1.5727 -1.4176
17502TIP3   OH273920   6.549   0.140  15.422  0.4238 -0.6600  0.2839
17502TIP3    H173921   6.589   0.057  15.397 -0.1873 -0.6325 -0.8515
17502TIP3    H273922   6.509   0.172  15.341 -1.9013 -0.6901  1.3635
17503TIP3   OH273923   6.634   5.603   3.712 -0.1924  0.2481  0.5515
17503TIP3    H173924   6.726   5.619   3.734 -0.1952 -0.9015  1.5519
17503TIP3    H273925   6.598   5.563   3.791 -1.1116 -0.8744 -0.4062
17504TIP3   OH273926   1.678   5.889   1.417  0.1263 -1.0480 -0.1410
17504TIP3    H173927   1.734   5.858   1.346  0.5092 -2.4982  0.7500
17504TIP3    H273928   1.725   5.963   1.454 -0.3272  0.0741 -1.6872
17505TIP3   OH273929   5.486   5.664   2.358 -0.6065 -0.3221  0.0325
17505TIP3    H173930   5.467   5.588   2.413 -1.7642 -1.1934 -1.5019
17505TIP3    H273931   5.519   5.626   2.276  1.3426  0.9465  0.1606
17506TIP3   OH273932   3.365   6.384  14.910  0.6058  0.3011  0.1524
17506TIP3    H173933   3.333   6.469  14.882  0.0429 -0.6409 -2.2993
17506TIP3    H273934   3.339   6.378  15.002 -1.4689  1.8030 -0.2700
17507TIP3   OH273935   0.215   3.432   1.832  0.0339 -1.0891  0.5340
17507TIP3    H173936   0.150   3.483   1.882 -0.7319 -1.2126 -0.3121
17507TIP3    H273937   0.165   3.362   1.791  0.4775 -0.4976 -1.0965
17508TIP3   OH273938   2.495   4.253   3.060 -0.2664 -0.1276 -0.2676
17508TIP3    H173939   2.505   4.195   2.985  4.1677 -0.5316  0.3700
17508TIP3    H273940   2.513   4.198   3.137 -4.4140  0.3242  1.2889
17509TIP3   OH273941   0.907   0.219   5.352 -0.4132 -0.1747 -0.0164
17509TIP3    H173942   0.928   0.196   5.442 -0.8388 -0.7666 -0.0683
17509TIP3    H273943   0.893   0.314   5.355  1.6525  0.1856  0.1308
17510TIP3   OH273944   3.617   1.919  14.919  0.2493  0.3408 -0.0116
17510TIP3    H173945   3.679   1.847  14.911 -0.6743 -0.3367 -1.5691
17510TIP3    H273946   3.595   1.943  14.828 -3.0359 -0.6048  0.3916
17511TIP3   OH273947   1.935   5.899  11.519  0.0123 -0.0518 -0.7313
17511TIP3    H173948   1.847   5.929  11.499 -0.2275  0.2517  0.6406
17511TIP3    H273949   1.974   5.972  11.568  0.4198 -0.8457  0.1451
17512TIP3   OH273950   1.676   2.669  14.317 -0.6787 -0.2800  0.0733
17512TIP3    H173951   1.689   2.672  14.411  0.0110 -1.2814  0.0327
17512TIP3    H273952   1.721   2.746  14.283 -2.2773  0.9681  0.6676
17513TIP3   OH273953   2.302   5.096  15.850 -0.6475  0.4225  0.0051
17513TIP3    H173954   2.237   5.089  15.921 -2.6305 -0.4184 -1.7527
17513TIP3    H273955   2.263   5.158  15.788  0.3075  0.0117 -1.0387
17514TIP3   OH273956   4.624   2.577   3.435  0.1895 -0.4307 -0.0661
17514TIP3    H173957   4.580   2.602   3.516  1.0454  0.3585  0.1629
17514TIP3    H273958   4.558   2.526   3.388  0.2200 -2.3901  1.8586
17515TIP3   OH273959   6.124   3.940  12.501  0.0018  0.2798 -0.3681
17515TIP3    H173960   6.083   4.026  12.491 -0.7631  0.3853  2.7308
17515TIP3    H273961   6.050   3.880  12.513  0.5027 -0.9735 -2.8724
17516TIP3   OH273962   2.888   6.665  14.293  0.2141 -0.5520 -0.3642
17516TIP3    H173963   2.800   6.633  14.312  0.7194 -3.0526 -1.7421
17516TIP3    H273964   2.878   6.722  14.217 -0.1184 -1.7607 -1.2530
17517TIP3   OH273965   4.508   3.485   5.070  0.3097  0.2973  0.0404
17517TIP3    H173966   4.571   3.416   5.092 -1.3464 -1.8410 -1.4690
17517TIP3    H273967   4.438   3.475   5.135 -1.5709 -1.8615 -2.1316
17518TIP3   OH273968   5.632   2.965  12.605 -0.3741 -0.0351 -0.4007
17518TIP3    H173969   5.654   2.967  12.699 -2.1374 -1.1233  0.0934
17518TIP3    H273970   5.537   2.970  12.603 -0.4185 -0.9282 -2.0955
17519TIP3   OH273971   5.781   0.231  15.566 -0.0435 -0.6718  0.3590
17519TIP3    H173972   5.792   0.199  15.655 -1.7419 -3.9093 -0.4313
17519TIP3    H273973   5.854   0.192  15.517 -0.3668 -0.7942 -0.0386
17520TIP3   OH273974   5.922   3.336  14.923 -0.0226 -0.2426 -0.2698
17520TIP3    H173975   5.881   3.410  14.879  0.5611  0.9199  1.0625
17520TIP3    H273976   6.016   3.352  14.915  0.1043 -0.1909  1.0207
17521TIP3   OH273977   4.937   2.451  12.121  0.3179  0.3357 -0.6225
17521TIP3    H173978   4.984   2.390  12.064 -0.8798 -1.5538  0.2898
17521TIP3    H273979   4.903   2.396  12.192  1.3638  2.5048  1.7201
17522TIP3   OH273980   5.450   2.297  16.307  1.3087 -0.0197 -0.1882
17522TIP3    H173981   5.411   2.245  16.237  1.4961 -0.6293  0.1615
17522TIP3    H273982   5.380   2.306  16.372  1.2011  0.3744 -0.3496
17523TIP3   OH273983   4.760   1.514  12.677  0.1811 -0.0554  0.5168
17523TIP3    H173984   4.841   1.499  12.726  0.3780 -1.4981 -0.2077
17523TIP3    H273985   4.784   1.501  12.586 -0.3238  2.0239  0.0288
17524TIP3   OH273986   5.587   2.907  11.971  0.4072 -0.4908  0.1681
17524TIP3    H173987   5.630   2.891  12.056  1.0108  1.2982  0.2487
17524TIP3    H273988   5.620   2.837  11.914 -0.0368 -1.7457  1.3946
17525TIP3   OH273989   4.687   4.404  11.105 -0.5063  0.3286 -0.7852
17525TIP3    H173990   4.740   4.469  11.059 -0.7578  1.6149  0.6569
17525TIP3    H273991   4.601   4.410  11.065 -0.3735  0.4783 -1.0476
17526TIP3   OH273992   1.028   6.412  11.643 -0.1982 -0.1028 -0.0743
17526TIP3    H173993   0.985   6.402  11.558 -1.9931  3.0927  0.3183
17526TIP3    H273994   1.122   6.410  11.623 -0.5698  1.2736 -2.2748
17527TIP3   OH273995   1.826   3.822   1.714 -0.1712 -0.6113  0.4808
17527TIP3    H173996   1.755   3.843   1.776  0.2263 -1.8923  1.4106
17527TIP3    H273997   1.839   3.727   1.724  0.9125 -0.5835 -0.5005
17528TIP3   OH273998   1.262   1.671  15.963 -0.6974  0.1019  0.4326
17528TIP3    H173999   1.286   1.681  15.871 -0.3083 -1.6592  0.3095
17528TIP3    H274000   1.311   1.740  16.008  0.7061 -0.2680 -0.4461
17529TIP3   OH274001   4.782   4.179  14.486 -0.6935  0.0222  0.2295
17529TIP3    H174002   4.857   4.120  14.487 -0.1337  0.7127  0.3289
17529TIP3    H274003   4.715   4.136  14.539 -0.0887 -0.2592  0.7684
17530TIP3   OH274004   0.425   5.409   2.217 -0.7874  0.0629  0.2015
17530TIP3    H174005   0.412   5.344   2.148 -0.2575 -0.8990  0.9715
17530TIP3    H274006   0.415   5.360   2.298  1.2771  0.5549  0.8153
17531TIP3   OH274007   0.577   0.695   5.878  0.3369 -0.0056  0.3526
17531TIP3    H174008   0.672   0.684   5.876  0.3642  0.2714 -1.2665
17531TIP3    H274009   0.553   0.686   5.970  2.0910  1.2030  0.9668
17532TIP3   OH274010   5.440   2.050  12.045 -0.0142 -0.0779  0.1163
17532TIP3    H174011   5.515   2.002  12.009  0.1035  0.3833 -0.2567
17532TIP3    H274012   5.468   2.073  12.134 -0.5910 -1.8645  0.8165
17533TIP3   OH274013   4.089   3.525  15.028  0.2113  0.0451  0.3096
17533TIP3    H174014   4.130   3.533  15.114 -1.6311  1.5528  1.1251
17533TIP3    H274015   4.156   3.485  14.973  1.7268 -0.2092  2.2386
17534TIP3   OH274016   0.149   0.842   1.329 -0.7753 -0.0854 -0.2056
17534TIP3    H174017   0.237   0.829   1.365 -1.0308  0.6236  0.7480
17534TIP3    H274018   0.098   0.770   1.364 -0.7646 -0.0092 -0.0265
17535TIP3   OH274019   5.107   5.135  12.994 -0.1581  0.3934  0.4850
17535TIP3    H174020   5.197   5.165  12.988 -0.4541  1.7990  2.2644
17535TIP3    H274021   5.082   5.114  12.904  0.9895  2.8841 -0.4933
17536TIP3   OH274022   4.249   5.531   3.149  0.4810  0.4588 -0.0543
17536TIP3    H174023   4.327   5.583   3.168  0.5974 -0.0174  0.8050
17536TIP3    H274024   4.184   5.595   3.119  1.7161  0.6670 -2.5233
17537TIP3   OH274025   0.598   0.632   6.139  0.2108  0.1822 -0.2836
17537TIP3    H174026   0.657   0.680   6.197 -1.3612  2.6050 -0.5680
17537TIP3    H274027   0.534   0.593   6.198 -1.3738  2.6274 -0.2499
17538TIP3   OH274028   0.635   6.374  12.350 -0.1329  0.0572 -0.3146
17538TIP3    H174029   0.708   6.417  12.305  2.5995 -2.1014  1.6012
17538TIP3    H274030   0.625   6.424  12.431 -0.9719  0.4562 -0.6533
17539TIP3   OH274031   3.875   0.764  13.916  0.5403  0.0839 -0.4181
17539TIP3    H174032   3.875   0.848  13.961 -0.8720 -0.6346  1.0157
17539TIP3    H274033   3.838   0.783  13.830 -1.8655  0.6089  0.6619
17540TIP3   OH274034   6.242   0.980  14.597  0.0687 -0.8155 -0.0672
17540TIP3    H174035   6.254   1.062  14.644 -1.8093 -1.2128  1.1863
17540TIP3    H274036   6.302   0.919  14.639 -1.2711 -1.0496  1.6171
17541TIP3   OH274037   4.692   2.538   6.307 -0.2963  0.0464 -0.7544
17541TIP3    H174038   4.648   2.453   6.308  0.7253 -0.4969  0.5834
17541TIP3    H274039   4.723   2.547   6.217  0.5789 -1.5465 -0.6455
17542TIP3   OH274040   6.575   5.873   5.098 -0.7069 -0.1392 -0.7443
17542TIP3    H174041   6.515   5.800   5.087 -0.6752 -0.1331 -0.9716
17542TIP3    H274042   6.536   5.926   5.168 -0.7791 -0.3222 -0.6466
17543TIP3   OH274043   3.744   0.903  13.715  0.0354  0.1183  0.1279
17543TIP3    H174044   3.758   0.990  13.751  0.5007  0.4672 -0.8359
17543TIP3    H274045   3.779   0.909  13.625  1.1057 -1.3612  0.4055
17544TIP3   OH274046   2.318   2.368  16.257 -0.3317  0.3657 -0.0200
17544TIP3    H174047   2.381   2.432  16.290 -1.0627  1.4549 -0.6964
17544TIP3    H274048   2.373   2.297  16.223  0.4816  0.4499  1.0514
17545TIP3   OH274049   2.431   6.386  13.798 -0.1249 -0.2115  0.0514
17545TIP3    H174050   2.498   6.423  13.740  0.6890 -0.8761  0.5473
17545TIP3    H274051   2.481   6.346  13.869 -1.0019 -1.5476 -0.0529
17546TIP3   OH274052   4.425   2.634  15.442  1.0278  0.0471 -0.6974
17546TIP3    H174053   4.458   2.720  15.417  2.5077 -0.4649 -0.6029
17546TIP3    H274054   4.393   2.646  15.531  2.3356  0.2579 -0.2275
17547TIP3   OH274055   5.569   3.796   1.836 -0.0239  0.0405  0.2524
17547TIP3    H174056   5.500   3.783   1.901 -0.4206  0.6890 -0.0410
17547TIP3    H274057   5.648   3.760   1.878 -0.6746 -1.4534  0.2657
17548TIP3   OH274058   2.519   5.707  13.494 -0.1776  0.3945  0.0903
17548TIP3    H174059   2.465   5.682  13.569  0.0025  1.3215  0.5341
17548TIP3    H274060   2.580   5.773  13.528  0.0016  0.7236 -0.8357
17549TIP3   OH274061   4.566   0.197  13.039 -0.8688  0.1735 -0.2293
17549TIP3    H174062   4.603   0.275  12.996 -1.3914  0.1450 -0.7551
17549TIP3    H274063   4.555   0.134  12.968  0.7101 -0.8577  0.3878
17550TIP3   OH274064   5.863   4.235  15.804  0.3030  0.7512  0.1645
17550TIP3    H174065   5.923   4.239  15.879  1.3611  0.6927 -0.6581
17550TIP3    H274066   5.907   4.285  15.736 -0.1994  0.0198 -0.7185
17551TIP3   OH274067   3.340   5.659   5.286 -0.1584  0.3494 -0.1773
17551TIP3    H174068   3.375   5.602   5.218 -0.0975  2.0266 -1.6235
17551TIP3    H274069   3.273   5.606   5.330  1.2132 -1.4511 -0.1585
17552TIP3   OH274070   3.877   6.149  11.564  0.0103 -0.6111 -0.0947
17552TIP3    H174071   3.809   6.092  11.526 -0.7713  1.5582 -2.1935
17552TIP3    H274072   3.834   6.190  11.639 -0.4019 -0.5582 -0.3573
17553TIP3   OH274073   5.004   0.934  17.066  0.0647  0.1016 -0.3260
17553TIP3    H174074   5.059   1.011  17.078  0.0383  0.4901 -2.4372
17553TIP3    H274075   5.053   0.878  17.007 -1.0861 -0.2616 -0.9804
17554TIP3   OH274076   0.075   2.837   4.618 -0.1022 -0.5202  0.0653
17554TIP3    H174077   0.103   2.894   4.689  0.8826 -0.4843 -0.3308
17554TIP3    H274078  -0.009   2.873   4.590 -0.8887 -1.0000  1.7024
17555TIP3   OH274079   6.438   3.431  17.045 -0.3967  0.1577 -0.0566
17555TIP3    H174080   6.502   3.464  17.107 -0.1781  0.9527 -0.6816
17555TIP3    H274081   6.474   3.453  16.959 -1.5758  0.7950 -0.4155
17556TIP3   OH274082   0.323   3.877  13.903  0.3117  0.0384 -0.6482
17556TIP3    H174083   0.334   3.817  13.829  1.9717 -0.7445  0.1869
17556TIP3    H274084   0.397   3.937  13.896 -0.2590  0.8028 -0.3507
17557TIP3   OH274085   1.111   4.919   1.428 -0.4235 -0.3485 -0.1922
17557TIP3    H174086   1.114   5.002   1.380 -0.8343 -0.3005 -0.1442
17557TIP3    H274087   1.184   4.923   1.489 -1.2101  0.5488  0.7246
17558TIP3   OH274088   5.820   1.303  10.599 -0.4598 -0.2833  0.1524
17558TIP3    H174089   5.867   1.373  10.644 -0.0813  0.8765 -1.9242
17558TIP3    H274090   5.745   1.347  10.558  1.6306 -0.1648 -4.1688
17559TIP3   OH274091   4.507   0.035  16.432 -0.0147  0.3532  0.1010
17559TIP3    H174092   4.497  -0.040  16.491  0.5036 -0.3763 -0.7217
17559TIP3    H274093   4.493   0.111  16.489  0.6422 -0.3179  1.2035
17560TIP3   OH274094   0.803   5.571   5.543 -0.4996 -0.3542  0.2485
17560TIP3    H174095   0.897   5.578   5.554 -0.4487 -0.0562 -0.3025
17560TIP3    H274096   0.771   5.661   5.552 -0.5371 -0.2079 -1.1261
17561TIP3   OH274097   2.888   3.340   3.227 -0.2830 -0.1015  0.3027
17561TIP3    H174098   2.940   3.415   3.201 -2.1362  0.8591 -0.9012
17561TIP3    H274099   2.902   3.276   3.157  0.0495 -0.2287  0.4878
17562TIP3   OH274100   0.653   5.062  15.483  0.6478 -0.1012 -0.0266
17562TIP3    H174101   0.632   5.032  15.395 -0.2834  0.1392  0.1085
17562TIP3    H274102   0.741   5.099  15.476 -0.2049  1.8078 -1.3168
17563TIP3   OH274103   5.702   5.316  15.348 -0.1199 -0.8140 -0.6549
17563TIP3    H174104   5.648   5.367  15.288  0.1754 -0.8160 -0.9235
17563TIP3    H274105   5.673   5.226  15.335 -1.3309 -0.6362  0.5269
17564TIP3   OH274106   0.843   6.751  11.983  0.3001 -0.4331 -0.2929
17564TIP3    H174107   0.880   6.681  11.930  0.2581 -1.0387  0.4641
17564TIP3    H274108   0.910   6.771  12.047  0.6180  0.7633 -0.9798
17565TIP3   OH274109   1.815   1.604   5.690  0.3152  0.4304  0.4712
17565TIP3    H174110   1.885   1.565   5.743  0.3187 -0.5053 -0.1815
17565TIP3    H274111   1.852   1.605   5.601 -0.3730  0.2378  0.1797
17566TIP3   OH274112   1.956   0.235   3.346 -0.0180  0.2527  0.4419
17566TIP3    H174113   1.908   0.204   3.269 -1.5793 -0.3199  1.5888
17566TIP3    H274114   1.980   0.325   3.325 -1.1657  0.3848 -0.3903
17567TIP3   OH274115   3.228   1.052   0.676 -0.5307  0.3084  0.4549
17567TIP3    H174116   3.154   1.037   0.617  0.2072  0.4673 -0.5225
17567TIP3    H274117   3.287   0.979   0.660 -0.6703 -0.0844  1.5817
17568TIP3   OH274118   0.625   0.448  16.515  0.0774  0.5973  0.2999
17568TIP3    H174119   0.668   0.511  16.457 -1.2173  1.1124 -0.1661
17568TIP3    H274120   0.670   0.457  16.599  0.4710  1.5388 -0.0016
17569TIP3   OH274121   6.135   1.553  11.833  0.7855 -0.0695 -0.5133
17569TIP3    H174122   6.076   1.517  11.767  0.1428  2.4601 -1.4372
17569TIP3    H274123   6.079   1.570  11.908  0.6786  0.7510 -0.7738
17570TIP3   OH274124   3.540   5.106   3.509  0.0474 -0.0051 -0.0802
17570TIP3    H174125   3.614   5.108   3.570 -0.0003  2.0994 -0.0401
17570TIP3    H274126   3.580   5.117   3.423 -0.0901 -0.6341 -0.2316
17571TIP3   OH274127   3.445   2.622   1.352 -0.4259  0.4187 -0.0073
17571TIP3    H174128   3.524   2.653   1.396 -0.4795 -1.4886  1.5780
17571TIP3    H274129   3.381   2.692   1.365  0.5226  1.3008  0.0563
17572TIP3   OH274130   0.429   5.554  16.895  0.1738 -0.2601  0.2106
17572TIP3    H174131   0.430   5.517  16.984  1.2071 -1.4711 -0.2837
17572TIP3    H274132   0.514   5.531  16.858 -0.6425 -0.7141 -1.4828
17573TIP3   OH274133   1.045   2.107  12.390  0.5623 -0.1584 -0.5360
17573TIP3    H174134   0.960   2.069  12.407  0.2241  1.2304  1.2408
17573TIP3    H274135   1.082   2.124  12.477  2.1564  0.3159 -1.2546
17574TIP3   OH274136   6.043   5.353   5.325 -0.1045 -0.4648 -0.3198
17574TIP3    H174137   6.137   5.335   5.328 -0.1951 -0.8468  1.0945
17574TIP3    H274138   6.037   5.445   5.299  0.7436  0.0350  1.1554
17575TIP3   OH274139   1.840   3.776   4.213  0.0804 -0.6556 -0.1222
17575TIP3    H174140   1.923   3.734   4.187  1.7864  1.2992  1.7535
17575TIP3    H274141   1.840   3.858   4.163  0.5070  0.4382  1.6098
17576TIP3   OH274142   1.230   4.650   4.401  0.6358  0.3995  1.0263
17576TIP3    H174143   1.197   4.659   4.490 -1.5210 -0.1086  0.3447
17576TIP3    H274144   1.202   4.730   4.356 -1.7793 -0.9858 -0.1368
17577TIP3   OH274145   5.936   2.346   1.419 -0.4599  0.0011  0.3340
17577TIP3    H174146   5.935   2.317   1.328  0.2494 -0.3356  0.4296
17577TIP3    H274147   5.847   2.329   1.451 -0.3644 -1.0149  0.0667
17578TIP3   OH274148   4.963   3.886  15.718 -0.0218 -0.3584 -0.2573
17578TIP3    H174149   4.870   3.906  15.733  0.1238  0.2479 -0.1363
17578TIP3    H274150   5.005   3.971  15.711  0.5285 -0.6307 -0.3315
17579TIP3   OH274151   4.947   0.580  16.839  0.0424 -0.0378 -0.1631
17579TIP3    H174152   4.913   0.576  16.929 -2.0439 -0.3215 -0.9016
17579TIP3    H274153   4.912   0.501  16.798  0.1248  0.6151 -1.5149
17580TIP3   OH274154   0.198   5.724   4.794 -0.3228 -0.0037 -0.2638
17580TIP3    H174155   0.127   5.719   4.730 -1.1643  0.3333  0.6400
17580TIP3    H274156   0.174   5.795   4.853  0.2622 -0.5555  0.6665
17581TIP3   OH274157   1.963   5.662  12.844  0.1926  0.6343 -0.8118
17581TIP3    H174158   2.030   5.594  12.847 -0.3091  0.1011 -1.3973
17581TIP3    H274159   1.975   5.704  12.759 -2.4212 -1.8071 -2.5501
17582TIP3   OH274160   1.760   5.626   2.214 -0.1682 -0.2804  0.8366
17582TIP3    H174161   1.747   5.643   2.308  0.0597  1.0784  0.6410
17582TIP3    H274162   1.806   5.703   2.182 -1.2874 -0.1715 -0.6352
17583TIP3   OH274163   5.425   4.507   2.704 -0.0925 -0.1440  0.2303
17583TIP3    H174164   5.393   4.504   2.614  0.1530  0.3156  0.1198
17583TIP3    H274165   5.512   4.548   2.696 -0.2599  0.3209  0.7231
17584TIP3   OH274166   2.622   1.600   3.760 -0.1911  0.2879 -0.4599
17584TIP3    H174167   2.582   1.616   3.845 -0.4408 -0.6616 -0.3876
17584TIP3    H274168   2.714   1.621   3.773 -0.3490  0.7950 -0.1424
17585TIP3   OH274169   1.858   6.560  14.299 -0.3237  0.2442 -0.1814
17585TIP3    H174170   1.798   6.486  14.305  0.2044 -0.2426 -0.7507
17585TIP3    H274171   1.943   6.520  14.281  0.3847  0.8377  1.6059
17586TIP3   OH274172   2.387   5.834  10.915 -0.6823 -0.4701 -0.0327
17586TIP3    H174173   2.387   5.760  10.855 -0.3773 -0.0977 -0.5023
17586TIP3    H274174   2.340   5.903  10.868  0.2446  0.0828 -0.1789
17587TIP3   OH274175   0.386   4.956   5.747  0.4511 -0.1662 -0.3504
17587TIP3    H174176   0.387   4.908   5.664  0.1338  2.2826 -1.8544
17587TIP3    H274177   0.478   4.961   5.772  0.4797 -1.7011 -0.0157
17588TIP3   OH274178   3.393   6.514  13.398 -0.3444 -0.0277  0.3854
17588TIP3    H174179   3.303   6.529  13.424 -0.5990 -1.0696  0.1647
17588TIP3    H274180   3.423   6.443  13.455  0.5016  0.6350  0.7967
17589TIP3   OH274181   1.599   3.970  12.393 -0.2787 -0.7127 -0.0875
17589TIP3    H174182   1.596   3.988  12.487 -1.2414  0.7843 -0.3749
17589TIP3    H274183   1.511   3.988  12.362  0.2822 -0.1496 -1.4425
17590TIP3   OH274184   0.104   6.103   4.301  0.3810  0.4199  0.9913
17590TIP3    H174185   0.149   6.172   4.254 -1.4285  0.8192 -0.2641
17590TIP3    H274186   0.131   6.022   4.258  2.3706  0.2784  2.3571
17591TIP3   OH274187   1.710   3.853   3.074 -0.0165 -0.5382 -0.0393
17591TIP3    H174188   1.734   3.766   3.106 -2.0280 -0.9614  0.4909
17591TIP3    H274189   1.649   3.887   3.140  1.8803  1.9855  0.5990
17592TIP3   OH274190   6.656   1.608  12.472 -0.2476  0.0196 -0.2827
17592TIP3    H174191   6.594   1.674  12.441 -0.8976 -0.7562 -0.6844
17592TIP3    H274192   6.656   1.541  12.404  1.1705  0.0764 -0.3616
17593TIP3   OH274193   0.434   2.088  13.626  0.3200 -0.3620 -0.5884
17593TIP3    H174194   0.339   2.079  13.620  0.0755 -0.0269  1.8938
17593TIP3    H274195   0.456   2.059  13.714  2.3176  1.1466 -0.5133
17594TIP3   OH274196   2.622   3.423   4.899 -0.6662  0.2156 -0.1457
17594TIP3    H174197   2.663   3.510   4.910  1.2793 -0.6193 -0.3160
17594TIP3    H274198   2.543   3.427   4.954 -0.6806  2.1153 -0.2270
17595TIP3   OH274199   4.920   1.051   4.116  0.4816  0.1755 -0.4435
17595TIP3    H174200   4.885   1.010   4.195  4.0846  0.0698  1.3223
17595TIP3    H274201   4.959   0.978   4.067  0.6061  0.5767 -0.9487
17596TIP3   OH274202   4.302   4.472   1.783 -0.4101  0.1919 -0.6172
17596TIP3    H174203   4.258   4.446   1.864  0.0742 -0.6116 -0.6004
17596TIP3    H274204   4.231   4.505   1.727 -0.6522  1.4361  0.3776
17597TIP3   OH274205   0.598   1.299   0.596  0.1700  0.2236 -0.6177
17597TIP3    H174206   0.585   1.216   0.642  4.0625  1.2764  2.8842
17597TIP3    H274207   0.518   1.349   0.613  0.0739 -0.7587  2.1941
17598TIP3   OH274208   5.938   4.830  13.449 -0.6822 -0.1732  0.8090
17598TIP3    H174209   6.018   4.781  13.426 -0.6149 -0.1334  0.9555
17598TIP3    H274210   5.956   4.920  13.420 -1.1940 -0.4392 -0.3587
17599TIP3   OH274211   2.755   0.339  12.292  0.4002  0.1474 -0.3253
17599TIP3    H174212   2.710   0.340  12.207 -0.4357 -0.7503  0.0958
17599TIP3    H274213   2.795   0.426  12.298  0.7806  0.1071 -1.7945
17600TIP3   OH274214   3.756   6.647   1.343  0.0418  0.5303  0.4756
17600TIP3    H174215   3.830   6.646   1.282  0.1317  0.7560  0.5801
17600TIP3    H274216   3.679   6.653   1.287  0.0471 -0.5322  0.3206
17601TIP3   OH274217   0.976   2.619   2.797  0.0780 -0.3603 -0.6120
17601TIP3    H174218   1.050   2.577   2.753  0.4484  1.3878 -1.7353
17601TIP3    H274219   0.900   2.594   2.745  0.3343  0.5369 -1.4414
17602TIP3   OH274220   6.466   3.609  13.244  0.0454 -0.0155 -0.6927
17602TIP3    H174221   6.411   3.607  13.323  0.8157 -0.3528 -0.1535
17602TIP3    H274222   6.414   3.563  13.178  0.0102 -1.0980  0.0534
17603TIP3   OH274223   1.692   1.852   2.011  0.4945  0.5231 -0.2071
17603TIP3    H174224   1.760   1.800   1.968  1.1123  2.0557 -1.1489
17603TIP3    H274225   1.623   1.789   2.032  2.0088 -1.0095  0.4119
17604TIP3   OH274226   2.941   5.902   2.805  0.6903  0.1498 -0.3674
17604TIP3    H174227   3.016   5.954   2.776 -0.6594  2.0421 -0.5612
17604TIP3    H274228   2.941   5.827   2.745  2.2294  0.2630 -0.5634
17605TIP3   OH274229   3.803   4.825   1.940  0.3913 -0.2055 -0.6387
17605TIP3    H174230   3.812   4.843   2.034  1.6575  0.0346 -0.7815
17605TIP3    H274231   3.741   4.752   1.935  0.9638 -0.7900  0.4509
17606TIP3   OH274232   0.025   5.190  11.053  0.1704  0.1366  0.1701
17606TIP3    H174233  -0.064   5.226  11.053  0.3559  0.6788 -1.4454
17606TIP3    H274234   0.070   5.235  11.124 -0.8177 -0.1123  0.9782
17607TIP3   OH274235   5.761   3.531  15.551 -0.3285 -0.2990 -0.4643
17607TIP3    H174236   5.778   3.580  15.632 -0.7918 -0.1854 -0.4322
17607TIP3    H274237   5.746   3.441  15.580 -1.9734  0.0147 -0.2611
17608TIP3   OH274238   2.315   3.561  17.050  0.2626 -0.4523 -0.1050
17608TIP3    H174239   2.330   3.655  17.044  0.2955 -0.5438 -1.7468
17608TIP3    H274240   2.376   3.532  17.117 -0.2610  0.7825  0.9682
17609TIP3   OH274241   0.832   4.368  15.224 -1.1199  0.1863  0.4001
17609TIP3    H174242   0.901   4.434  15.219 -1.4227  0.4119 -1.8737
17609TIP3    H274243   0.751   4.419  15.224 -1.3383 -0.1465  0.9639
17610TIP3   OH274244   3.889   3.722   0.439  0.2484 -0.3776 -0.1536
17610TIP3    H174245   3.860   3.728   0.348  0.2760 -1.2090 -0.2208
17610TIP3    H274246   3.921   3.633   0.449 -2.7199 -1.3769  1.5511
17611TIP3   OH274247   6.671   6.437  12.825 -0.2485 -0.0385 -0.2232
17611TIP3    H174248   6.686   6.501  12.755 -1.6061  2.0616  1.2674
17611TIP3    H274249   6.729   6.466  12.896 -3.1980  1.6981  1.6720
17612TIP3   OH274250   6.009   0.532  13.525  0.2001  0.5007 -0.3827
17612TIP3    H174251   6.037   0.618  13.493  0.8046  0.3542 -0.2608
17612TIP3    H274252   5.928   0.550  13.572  1.9517  1.5990  2.5304
17613TIP3   OH274253   6.456   0.809  12.949  0.2042 -0.0474 -0.2595
17613TIP3    H174254   6.460   0.823  12.854 -1.6085  0.3376 -0.3138
17613TIP3    H274255   6.390   0.741  12.960  0.2197  0.0879  0.7521
17614TIP3   OH274256   5.411   0.620   1.915  0.2995  0.2581 -0.4649
17614TIP3    H174257   5.409   0.647   2.006  0.4033  0.3913 -0.5010
17614TIP3    H274258   5.495   0.654   1.882  1.2026 -1.5111 -0.0808
17615TIP3   OH274259   0.687   4.060  10.998  0.1563  0.4660  0.8087
17615TIP3    H174260   0.736   4.125  11.049  0.9983 -0.0672  0.6888
17615TIP3    H274261   0.726   3.976  11.022  1.2788  0.2670 -1.4522
17616TIP3   OH274262   4.867   0.909   1.373 -0.1575 -0.0039 -0.2477
17616TIP3    H174263   4.828   0.947   1.294 -0.8466 -0.2057 -0.0152
17616TIP3    H274264   4.860   0.978   1.439  1.0115  0.4001 -0.5206
17617TIP3   OH274265   1.608   1.551  11.469  0.0532  0.4881  0.3251
17617TIP3    H174266   1.599   1.486  11.539  0.3453 -1.3165 -1.2301
17617TIP3    H274267   1.702   1.559  11.456 -0.0159 -0.1832 -0.7028
17618TIP3   OH274268   1.982   5.974   1.878  0.4331 -0.2862  0.4343
17618TIP3    H174269   1.921   6.038   1.842 -0.3772  0.1057  2.3810
17618TIP3    H274270   2.007   5.920   1.803 -0.5525  0.9507 -0.8380
17619TIP3   OH274271   0.898   0.470  15.166  0.3552 -0.2483  0.0745
17619TIP3    H174272   0.895   0.475  15.261  0.0052 -1.3836  0.1398
17619TIP3    H274273   0.891   0.561  15.136 -1.3875 -0.0142  1.0895
17620TIP3   OH274274   1.549   3.569  16.603  0.0517  0.4720  0.1056
17620TIP3    H174275   1.499   3.606  16.530  0.3813 -2.0277 -1.5109
17620TIP3    H274276   1.487   3.569  16.676 -1.0239  1.0168 -0.7604
17621TIP3   OH274277   5.570   2.838   1.484  0.9551 -0.6217 -0.7454
17621TIP3    H174278   5.542   2.787   1.560  0.6635  0.0823 -0.3717
17621TIP3    H274279   5.590   2.925   1.519 -0.2758  0.0565 -1.6242
17622TIP3   OH274280   4.560   4.805   4.244 -0.3580  0.0009  0.2598
17622TIP3    H174281   4.466   4.799   4.225 -0.2304 -3.1028  0.0441
17622TIP3    H274282   4.602   4.788   4.160  0.2331 -4.0763  1.1329
17623TIP3   OH274283   1.197   1.451  14.560 -0.0313 -0.0316  0.1400
17623TIP3    H174284   1.253   1.506  14.506  0.2715  0.6485  1.1125
17623TIP3    H274285   1.256   1.384  14.595  0.3162  0.9799  1.5646
17624TIP3   OH274286   4.670   0.164   5.240  0.0213 -0.1998 -0.2793
17624TIP3    H174287   4.718   0.219   5.179 -0.1968 -1.1401 -1.3287
17624TIP3    H274288   4.640   0.224   5.308 -0.7000  1.0771 -1.6766
17625TIP3   OH274289   6.432   1.087   0.032  0.2511  0.3297  0.2976
17625TIP3    H174290   6.457   1.113   0.120 -1.9480  1.1763  0.7237
17625TIP3    H274291   6.410   0.994   0.039 -1.6008  0.7930  1.0749
17626TIP3   OH274292   0.755   0.034  16.783  0.7007 -0.1723  0.2308
17626TIP3    H174293   0.813   0.069  16.850  0.4378 -0.9869  0.8958
17626TIP3    H274294   0.670   0.026  16.826 -0.2923  2.1950 -1.0669
17627TIP3   OH274295   6.272   2.230  11.452 -0.4704 -0.5897  0.1476
17627TIP3    H174296   6.345   2.260  11.505 -0.7280 -0.5129  0.4604
17627TIP3    H274297   6.277   2.134  11.457 -2.0340 -0.6273  2.4875
17628TIP3   OH274298   2.732   0.005   1.990 -0.1439  0.6339  0.2758
17628TIP3    H174299   2.741   0.042   2.078 -3.3001  0.6709  0.6806
17628TIP3    H274300   2.741   0.080   1.931  0.2048  0.8926  0.6513
17629TIP3   OH274301   4.914   0.246  17.140 -0.4400  0.0319  0.5929
17629TIP3    H174302   4.849   0.310  17.111  0.4526  1.1046  0.9154
17629TIP3    H274303   4.909   0.176  17.074 -0.4134  1.1149 -0.6111
17630TIP3   OH274304   3.900   4.066   2.724 -0.6084 -0.3838  0.5365
17630TIP3    H174305   3.942   4.133   2.669 -0.0450  0.2168  1.6665
17630TIP3    H274306   3.849   4.014   2.662  0.9775 -0.5078 -0.7420
17631TIP3   OH274307   4.969   4.313   0.531 -0.0182 -0.3243 -0.3986
17631TIP3    H174308   5.057   4.289   0.503  1.1408  1.1548  1.6532
17631TIP3    H274309   4.931   4.232   0.565  1.1099 -0.7231 -0.0303
17632TIP3   OH274310   3.762   5.117   5.830  0.1165 -0.4434  0.2956
17632TIP3    H174311   3.757   5.202   5.873  0.5809 -0.2703  0.0182
17632TIP3    H274312   3.691   5.118   5.766 -0.5764 -0.7013  1.0429
17633TIP3   OH274313   6.553   2.919  10.822 -0.5859 -0.4581  0.4828
17633TIP3    H174314   6.460   2.936  10.807 -0.8299 -0.3937  1.9299
17633TIP3    H274315   6.564   2.827  10.797 -0.8549 -0.2396 -0.4613
17634TIP3   OH274316   0.597   0.467   4.770 -0.2886 -0.3071  0.1792
17634TIP3    H174317   0.565   0.445   4.857 -1.4243 -1.2369 -0.4550
17634TIP3    H274318   0.623   0.559   4.777 -1.3760 -0.0532  1.2194
17635TIP3   OH274319   3.793   5.193  14.444 -0.3056 -0.1622  0.1814
17635TIP3    H174320   3.789   5.102  14.413  1.4067 -0.0945 -0.3107
17635TIP3    H274321   3.755   5.244  14.372 -1.4632 -0.4805  0.5432
17636TIP3   OH274322   5.845   5.361   1.414 -0.4059  0.0020  0.2894
17636TIP3    H174323   5.776   5.406   1.464 -0.5422  0.0544  0.0567
17636TIP3    H274324   5.819   5.373   1.323  0.8499  1.5838  0.0800
17637TIP3   OH274325   3.753   3.125  14.342  0.0828 -0.4503 -0.3928
17637TIP3    H174326   3.766   3.032  14.322  1.6359 -0.1195 -1.1334
17637TIP3    H274327   3.712   3.161  14.264  0.7395 -0.2749 -0.6672
17638TIP3   OH274328   3.794   4.971   0.580 -0.3716  0.0930  0.4851
17638TIP3    H174329   3.863   5.024   0.620  0.0809 -0.0999 -0.0323
17638TIP3    H274330   3.798   4.991   0.487 -2.2997  1.5557  0.6392
17639TIP3   OH274331   2.800   6.489  16.939  0.1708 -0.6715 -0.3192
17639TIP3    H174332   2.837   6.414  16.890  0.5347 -0.5619 -0.2180
17639TIP3    H274333   2.709   6.493  16.911  1.0976  1.3774 -3.4928
17640TIP3   OH274334   6.041   1.764  13.327 -0.1040 -0.6608 -0.4860
17640TIP3    H174335   6.080   1.747  13.242 -0.8992 -3.7272 -0.3807
17640TIP3    H274336   5.947   1.754  13.313 -0.2152 -1.8800  0.8236
17641TIP3   OH274337   4.249   4.048   5.796  0.3811 -0.2458  0.5995
17641TIP3    H174338   4.279   3.957   5.787  0.5661 -0.2586  1.3092
17641TIP3    H274339   4.156   4.044   5.775  0.1683 -0.7795  1.5921
17642TIP3   OH274340   1.711   4.032   3.441 -0.0995 -0.3238  0.0494
17642TIP3    H174341   1.654   3.983   3.382  0.0114 -1.9349  1.2070
17642TIP3    H274342   1.654   4.099   3.480 -0.9618 -1.2698  0.4450
17643TIP3   OH274343   2.928   3.128   5.239  0.3744  0.1603 -0.5138
17643TIP3    H174344   2.979   3.081   5.174  0.8650  0.8681 -0.6498
17643TIP3    H274345   2.852   3.162   5.191  1.4893  1.9832 -1.1188
17644TIP3   OH274346   0.252   5.378  16.286  0.1363  0.6459  0.0672
17644TIP3    H174347   0.265   5.447  16.351  0.6143 -1.1171  1.9609
17644TIP3    H274348   0.158   5.373  16.274  0.0588  1.1645  0.4384
17645TIP3   OH274349   0.826   0.631   6.541  0.1659  0.7881  0.0930
17645TIP3    H174350   0.769   0.563   6.576  0.4279  0.2328 -0.5375
17645TIP3    H274351   0.827   0.699   6.609 -0.7224  0.5200  0.3862
17646TIP3   OH274352   1.651   0.063  16.297 -0.2201  0.0868  0.4811
17646TIP3    H174353   1.575   0.045  16.241 -0.1748 -0.0428  0.4615
17646TIP3    H274354   1.647   0.157  16.313  0.8322  0.4926 -1.3126
17647TIP3   OH274355   5.328   0.898   0.102  0.5986  0.0680  0.6979
17647TIP3    H174356   5.271   0.824   0.124  0.0756  0.2110 -0.1115
17647TIP3    H274357   5.277   0.976   0.123  1.3714  0.2189  2.1006
17648TIP3   OH274358   0.064   0.761  12.226  0.1729 -0.1130 -0.4610
17648TIP3    H174359   0.158   0.775  12.240  0.0565  1.9873 -1.4440
17648TIP3    H274360   0.032   0.844  12.192 -2.0179 -0.8740 -0.4111
17649TIP3   OH274361   3.355   6.369   1.566  0.0494  0.0753 -0.1579
17649TIP3    H174362   3.368   6.357   1.660  0.2581  0.2616 -0.1636
17649TIP3    H274363   3.300   6.447   1.559  0.0301  0.0587 -0.1912
17650TIP3   OH274364   4.743   1.792   5.115  0.4262  0.2677 -0.1562
17650TIP3    H174365   4.703   1.835   5.191 -0.3450  1.0576 -0.9838
17650TIP3    H274366   4.785   1.714   5.151 -0.2877  0.4017  1.0161
17651TIP3   OH274367   1.040   1.770  14.821  0.4727 -0.1360  0.1060
17651TIP3    H174368   1.097   1.797  14.749  1.3145 -0.8486  0.4826
17651TIP3    H274369   1.050   1.675  14.825 -3.0693 -0.7676 -1.7724
17652TIP3   OH274370   4.421   2.022   1.003 -0.3167  0.5799 -0.7512
17652TIP3    H174371   4.444   2.020   1.096 -2.1932  0.5889 -0.2434
17652TIP3    H274372   4.494   2.068   0.961  1.5345 -1.1766  0.3834
17653TIP3   OH274373   4.099   4.817  16.659 -0.4479 -0.0337  0.5935
17653TIP3    H174374   4.111   4.909  16.685  0.1337  0.4651 -1.2827
17653TIP3    H274375   4.014   4.793  16.696 -1.0256  1.5460  0.3915
17654TIP3   OH274376   3.002   6.033  14.587 -0.2554  0.5796  0.2667
17654TIP3    H174377   2.945   6.049  14.512 -0.2886  0.9745  0.3738
17654TIP3    H274378   3.054   6.112  14.596  1.6604 -0.4701 -0.9751
17655TIP3   OH274379   4.342   1.255  14.511  0.1278 -0.0697 -0.5006
17655TIP3    H174380   4.364   1.345  14.487 -0.2528  0.0395 -0.4497
17655TIP3    H274381   4.405   1.202  14.463  1.3572  0.2814  0.6719
17656TIP3   OH274382   4.583   0.445  11.223 -0.0905 -0.0065 -0.2645
17656TIP3    H174383   4.632   0.527  11.224  0.1519 -0.1063  1.9289
17656TIP3    H274384   4.648   0.378  11.244 -1.0454 -0.1362  2.7094
17657TIP3   OH274385   1.155   0.603   1.115 -0.2368 -0.0473  0.4972
17657TIP3    H174386   1.139   0.540   1.045 -2.9893 -0.8488  1.7098
17657TIP3    H274387   1.080   0.662   1.112  0.8947  1.5093  1.1673
17658TIP3   OH274388   2.104   3.900   3.446 -0.5213 -0.3695 -0.3025
17658TIP3    H174389   2.042   3.922   3.515 -1.0898  0.1735 -0.9743
17658TIP3    H274390   2.095   3.806   3.434  0.8515 -0.7854  1.5656
17659TIP3   OH274391   5.779   4.647   1.349 -0.4069  0.6645  0.7757
17659TIP3    H174392   5.765   4.633   1.443  1.4336  0.3558  1.0400
17659TIP3    H274393   5.773   4.560   1.310  3.4198 -0.0249  1.3370
17660TIP3   OH274394   4.381   3.538   2.934 -0.6436 -0.0003  1.0592
17660TIP3    H174395   4.476   3.528   2.944 -0.5081  0.7919  0.7115
17660TIP3    H274396   4.367   3.542   2.839 -0.8101  1.4829  1.1112
17661TIP3   OH274397   1.359   3.488   0.777  0.2050 -0.1630 -0.0464
17661TIP3    H174398   1.307   3.549   0.723  0.5000 -0.7027 -0.9604
17661TIP3    H274399   1.447   3.526   0.778  0.0262  0.2473  0.7048
17662TIP3   OH274400   1.498   2.017   3.982  0.0793  0.1474  0.7544
17662TIP3    H174401   1.454   2.028   3.898 -1.2680 -0.0647  1.4077
17662TIP3    H274402   1.576   2.072   3.976  0.1155 -0.0347 -0.7043
17663TIP3   OH274403   1.820   2.547  17.002  0.6732  0.2349 -0.2656
17663TIP3    H174404   1.824   2.463  17.046  0.6250 -0.4139 -1.4531
17663TIP3    H274405   1.876   2.536  16.925 -0.8591  0.6221 -1.4933
17664TIP3   OH274406   1.141   6.533   3.877 -0.3054  0.0779  0.3382
17664TIP3    H174407   1.051   6.523   3.907 -0.4474 -1.6101 -0.5099
17664TIP3    H274408   1.134   6.590   3.800 -0.4932  0.7329  0.8220
17665TIP3   OH274409   4.671   1.292  13.102  0.0339  0.1005 -0.1874
17665TIP3    H174410   4.718   1.335  13.174  0.8240  0.1406 -0.7200
17665TIP3    H274411   4.612   1.230  13.146  1.2522 -0.6359  0.4728
17666TIP3   OH274412   5.247   6.643   4.951 -0.5162  0.0275 -0.0729
17666TIP3    H174413   5.210   6.676   5.033  1.0067  1.6967  0.0010
17666TIP3    H274414   5.223   6.550   4.950 -1.4741  0.2019  1.7309
17667TIP3   OH274415   2.745   0.385  13.005  0.4220  0.5055 -0.0489
17667TIP3    H174416   2.687   0.424  13.071 -2.9248 -0.7437 -1.9488
17667TIP3    H274417   2.686   0.366  12.931  3.1080 -1.9926 -1.7490
17668TIP3   OH274418   5.355   2.628   6.234 -0.1777 -0.1711 -0.1255
17668TIP3    H174419   5.383   2.567   6.165  0.2342  0.3098 -0.3916
17668TIP3    H274420   5.304   2.574   6.294 -0.5750 -0.5983 -0.8280
17669TIP3   OH274421   1.655   0.586   3.248  0.2036  0.2822 -0.3344
17669TIP3    H174422   1.637   0.495   3.275 -0.7598 -0.1530 -2.3004
17669TIP3    H274423   1.645   0.636   3.329 -3.1926 -0.8591  0.1471
17670TIP3   OH274424   2.226   4.009   5.919  0.2253  0.2002  0.0625
17670TIP3    H174425   2.252   4.059   5.997 -2.8448 -0.3849  1.6320
17670TIP3    H274426   2.249   3.919   5.940 -3.5079 -0.5298  2.0085
17671TIP3   OH274427   4.161   5.540  12.344 -0.3347  0.1907  0.0354
17671TIP3    H174428   4.255   5.543  12.326 -0.5135 -0.4806 -1.0324
17671TIP3    H274429   4.149   5.600  12.418  1.1464 -0.8182  1.1332
17672TIP3   OH274430   6.424   1.513  11.459 -0.2071 -0.5205  0.3388
17672TIP3    H174431   6.422   1.471  11.545  2.0635  1.8698  1.7009
17672TIP3    H274432   6.437   1.606  11.477  1.4444 -0.0353 -2.5828
17673TIP3   OH274433   0.702   2.578   2.730 -0.8686 -0.0842 -0.1760
17673TIP3    H174434   0.676   2.573   2.638 -0.8317  1.0203 -0.2571
17673TIP3    H274435   0.686   2.490   2.764 -1.6616 -0.2884 -1.0279
17674TIP3   OH274436   5.957   6.017   5.824  0.5265 -0.0335 -0.5249
17674TIP3    H174437   5.915   5.943   5.868  0.3714  0.5551  0.3363
17674TIP3    H274438   5.884   6.067   5.786  0.5316  0.3578 -0.0245
17675TIP3   OH274439   1.865   1.393  14.915  0.1200  0.0114  0.5903
17675TIP3    H174440   1.819   1.325  14.964  0.5869  0.5399  1.8097
17675TIP3    H274441   1.937   1.418  14.972 -0.2146  1.7295  0.3056
17676TIP3   OH274442   6.534   3.604  14.523 -0.7262 -0.1827  0.4302
17676TIP3    H174443   6.544   3.699  14.527 -0.0344 -0.2518  0.5171
17676TIP3    H274444   6.518   3.586  14.430  0.7686 -0.1149  0.1394
17677TIP3   OH274445   2.151   4.015   1.358  0.0473 -0.1811  0.0711
17677TIP3    H174446   2.065   4.055   1.360  0.2635  0.2660  0.6807
17677TIP3    H274447   2.196   4.059   1.286 -0.1769 -0.3088 -0.1496
17678TIP3   OH274448   5.701   5.469  16.848  0.2895  0.9533 -0.2111
17678TIP3    H174449   5.624   5.421  16.817  0.6877  1.9954 -3.0384
17678TIP3    H274450   5.768   5.402  16.859  0.0015  0.4815 -1.2479
17679TIP3   OH274451   3.719   2.086  12.429  0.3105 -0.2157  0.3173
17679TIP3    H174452   3.786   2.136  12.383  0.6168  0.2023  1.2014
17679TIP3    H274453   3.696   2.015  12.369 -2.2051  2.5094 -2.2721
17680TIP3   OH274454   3.541   4.242  13.637  0.1073  0.4508  0.4766
17680TIP3    H174455   3.554   4.147  13.641  0.4055  0.4748  0.0942
17680TIP3    H274456   3.454   4.255  13.673  0.0104  0.0137  0.4108
17681TIP3   OH274457   6.347   5.177   1.345  0.8836  0.4923  0.0068
17681TIP3    H174458   6.375   5.162   1.255  2.8379 -3.3726  1.0289
17681TIP3    H274459   6.255   5.152   1.347  1.2723 -1.1170 -0.6670
17682TIP3   OH274460   3.148   1.882  15.133 -0.1352 -0.2601  0.0553
17682TIP3    H174461   3.189   1.850  15.213  1.3719 -0.7470 -0.8733
17682TIP3    H274462   3.220   1.919  15.082 -0.9674 -0.4274 -1.2935
17683TIP3   OH274463   3.877   4.491   1.992  0.6871 -0.2120  0.5858
17683TIP3    H174464   3.915   4.578   1.977  0.2568 -0.1171  0.0074
17683TIP3    H274465   3.916   4.462   2.074  0.9726  0.4540  0.6947
17684TIP3   OH274466   3.839   4.295  17.223  0.5464  0.2988 -0.4440
17684TIP3    H174467   3.850   4.237  17.299  3.0318  1.5247  0.2316
17684TIP3    H274468   3.776   4.360  17.253  1.1520  0.5074  0.4272
17685TIP3   OH274469   6.194   3.185  16.325 -0.2801  0.8148  0.0778
17685TIP3    H174470   6.194   3.265  16.376 -1.5619  1.5482 -1.0006
17685TIP3    H274471   6.129   3.200  16.256 -0.9155 -1.3320  0.1255
17686TIP3   OH274472   4.005   5.558   2.146 -0.1681  0.1589 -0.2939
17686TIP3    H174473   3.933   5.540   2.086 -0.2164  0.9089 -0.4718
17686TIP3    H274474   4.075   5.591   2.090 -0.3705  1.2989  0.1059
17687TIP3   OH274475   5.332   3.782  12.487  0.1792  0.0121 -0.1248
17687TIP3    H174476   5.268   3.717  12.515  0.2211 -0.5393 -1.2666
17687TIP3    H274477   5.288   3.833  12.419  1.1301 -0.7965 -1.3978
17688TIP3   OH274478   4.737   2.878   4.403  0.0379  0.2267 -0.2089
17688TIP3    H174479   4.655   2.865   4.356  0.3623  1.1731 -1.0647
17688TIP3    H274480   4.805   2.861   4.338  0.5305 -0.5284  0.4883
17689TIP3   OH274481   0.597   1.103  12.386 -0.2512  0.0816  0.6579
17689TIP3    H174482   0.538   1.178  12.384  0.2390  0.4491 -0.3160
17689TIP3    H274483   0.644   1.112  12.469 -1.0202  0.1876  1.0984
17690TIP3   OH274484   2.432   5.656   4.607 -0.0330  0.3331  0.4842
17690TIP3    H174485   2.371   5.685   4.675 -0.1616 -0.8128  0.8865
17690TIP3    H274486   2.377   5.611   4.543  0.1497  1.0113 -0.1660
17691TIP3   OH274487   2.273   5.153  13.088  0.0976 -0.4396  0.6551
17691TIP3    H174488   2.352   5.135  13.036 -0.2325 -1.1056  0.3826
17691TIP3    H274489   2.266   5.249  13.087 -0.4366 -0.4603 -1.3227
17692TIP3   OH274490   3.118   0.038   4.473  0.4310 -0.3450 -0.0131
17692TIP3    H174491   3.103   0.131   4.490  2.0216  0.1752 -1.1765
17692TIP3    H274492   3.032   0.003   4.452 -0.1728  0.9084  0.2911
17693TIP3   OH274493   4.324   3.008  14.104  0.1371 -1.0710 -0.0163
17693TIP3    H174494   4.355   2.924  14.137  0.1386  0.0134  3.1475
17693TIP3    H274495   4.276   3.046  14.178  0.0834  1.6974 -1.3390
17694TIP3   OH274496   6.254   5.132   4.906 -0.0982 -0.2667  0.1825
17694TIP3    H174497   6.299   5.122   4.989 -0.7740  0.4323  0.6407
17694TIP3    H274498   6.250   5.226   4.891 -0.6517 -0.3497 -0.2638
17695TIP3   OH274499   1.946   0.183   4.613 -0.0076 -0.4022  0.1520
17695TIP3    H174500   1.947   0.271   4.576  1.3519  0.1522  1.4223
17695TIP3    H274501   1.903   0.129   4.547  0.0821  1.0171 -1.0977
17696TIP3   OH274502   5.787   1.669   4.180  0.4650 -0.3358 -0.0910
17696TIP3    H174503   5.877   1.665   4.213 -0.3877 -0.7663  2.3625
17696TIP3    H274504   5.792   1.727   4.103  2.7705 -0.1356  0.1510
17697TIP3   OH274505   6.483   1.806   1.534 -0.1485  0.2101  0.0610
17697TIP3    H174506   6.459   1.721   1.571 -0.5743  0.3336  0.0769
17697TIP3    H274507   6.566   1.829   1.576  1.5520 -1.5545 -2.0944
17698TIP3   OH274508   1.958   4.770  15.937 -0.0793 -0.3046 -0.1386
17698TIP3    H174509   1.988   4.770  16.028  1.0660  0.0510 -0.5007
17698TIP3    H274510   1.869   4.804  15.941  0.0164 -0.1490  0.8334
17699TIP3   OH274511   1.618   2.874  11.963 -0.3109  0.0096 -0.4211
17699TIP3    H174512   1.655   2.900  12.047 -1.8548  0.3517  0.1908
17699TIP3    H274513   1.598   2.957  11.918  1.6538 -0.1427 -1.7149
17700TIP3   OH274514   6.361   1.239   2.732 -0.7212  0.4631  0.2627
17700TIP3    H174515   6.445   1.250   2.687  0.0451 -1.5045  1.0832
17700TIP3    H274516   6.376   1.275   2.819 -0.6643 -0.0212  0.4574
17701TIP3   OH274517   4.065   4.020  16.701 -0.1428  0.1891 -0.0402
17701TIP3    H174518   4.012   3.971  16.765 -0.7777 -0.8400 -1.3181
17701TIP3    H274519   4.003   4.082  16.661 -0.4098 -0.9748 -1.4975
17702TIP3   OH274520   3.504   1.347  10.328 -0.1694  0.3919 -0.0664
17702TIP3    H174521   3.536   1.277  10.386 -1.2356  0.1441  0.2532
17702TIP3    H274522   3.422   1.313  10.293 -0.0398  0.9624 -0.9409
17703TIP3   OH274523   1.664   2.313  14.546 -0.0766 -0.3315  0.2964
17703TIP3    H174524   1.676   2.350  14.458 -0.4251  0.2907  0.5014
17703TIP3    H274525   1.655   2.219  14.532  0.9895 -0.3785 -0.2347
17704TIP3   OH274526   6.599   6.162  11.528  0.0414 -0.6405  0.3524
17704TIP3    H174527   6.512   6.128  11.510 -0.7767  1.7076 -0.5115
17704TIP3    H274528   6.657   6.111  11.472 -1.3069  0.3506 -2.0784
17705TIP3   OH274529   2.104   4.146   0.986  0.3220 -0.5580  0.1819
17705TIP3    H174530   2.160   4.167   1.060  0.7596 -2.0154  0.2884
17705TIP3    H274531   2.162   4.105   0.921 -0.3746 -0.9519 -0.2133
17706TIP3   OH274532   0.342   0.195   2.574  0.6294 -0.5007  0.1390
17706TIP3    H174533   0.392   0.264   2.530  1.6373 -1.3742 -0.1432
17706TIP3    H274534   0.298   0.149   2.502 -2.6678  1.7363  0.5326
17707TIP3   OH274535   6.124   0.419  15.394 -0.0813 -0.4723 -0.2809
17707TIP3    H174536   6.150   0.511  15.390  2.4941 -1.0021  1.7761
17707TIP3    H274537   6.175   0.382  15.466 -2.7802 -3.0227  0.5261
17708TIP3   OH274538   6.436   4.571   2.837 -0.3662 -0.2817  0.2682
17708TIP3    H174539   6.368   4.629   2.870  0.8197  0.3005  1.7759
17708TIP3    H274540   6.505   4.629   2.807 -0.3336 -0.8829 -0.8981
17709TIP3   OH274541   5.941   6.247  14.700  0.2833 -0.0769 -0.0241
17709TIP3    H174542   5.924   6.303  14.624  1.5562 -2.0621 -1.8847
17709TIP3    H274543   6.028   6.272  14.730  0.3073 -0.1723 -0.0147
17710TIP3   OH274544   3.502   1.672   0.077  0.0227 -0.7595 -0.2833
17710TIP3    H174545   3.419   1.719   0.072  0.6677  0.3409 -1.3124
17710TIP3    H274546   3.549   1.715   0.148  1.8351  2.4180 -3.0855
17711TIP3   OH274547   3.593   5.645   4.256 -0.2071 -0.4143  0.0698
17711TIP3    H174548   3.595   5.734   4.223 -1.1263 -1.0121 -1.7177
17711TIP3    H274549   3.624   5.591   4.183 -0.5296 -1.6526  0.8028
17712TIP3   OH274550   5.159   3.415  14.071  0.0808  0.6672  0.1201
17712TIP3    H174551   5.111   3.387  13.994  1.4081  2.5787 -1.4985
17712TIP3    H274552   5.251   3.412  14.045  0.5730  1.3849  1.6375
17713TIP3   OH274553   3.615   3.427  15.172  0.0666 -0.3422 -0.1644
17713TIP3    H174554   3.704   3.462  15.181 -0.1163 -0.2672  1.9009
17713TIP3    H274555   3.627   3.332  15.172  0.1160 -0.3458  0.8875
17714TIP3   OH274556   6.247   5.618   0.342 -0.9892 -0.2454  0.0774
17714TIP3    H174557   6.276   5.556   0.275 -1.3682 -0.3969  0.0520
17714TIP3    H274558   6.152   5.622   0.333 -1.0187 -0.0533  0.4204
17715TIP3   OH274559   2.792   5.935  14.189 -0.1405 -0.3295 -0.3259
17715TIP3    H174560   2.828   5.932  14.100  0.8425 -0.3917  0.0591
17715TIP3    H274561   2.830   5.858  14.232 -2.2634 -1.5203 -0.4400
17716TIP3   OH274562   2.690   3.944   2.957  0.4662 -0.0239 -0.7974
17716TIP3    H174563   2.699   3.956   2.863  1.1748  1.3070 -0.5779
17716TIP3    H274564   2.596   3.949   2.974  0.5106  3.6098 -0.9890
17717TIP3   OH274565   5.700   1.140  11.853 -0.1686  0.1050 -0.7303
17717TIP3    H174566   5.623   1.176  11.897 -1.2930 -2.1686 -0.7158
17717TIP3    H274567   5.775   1.184  11.895 -1.3065  0.0443  1.4901
17718TIP3   OH274568   6.579   5.234  12.483 -0.3840  0.1266 -0.0179
17718TIP3    H174569   6.572   5.145  12.449  0.6084 -0.0492  0.1936
17718TIP3    H274570   6.583   5.289  12.405 -4.7920  0.4450 -0.2757
17719TIP3   OH274571   3.414   5.680  14.051 -0.3554 -0.3739  0.2149
17719TIP3    H174572   3.404   5.717  14.139  1.5793  2.9119 -0.7809
17719TIP3    H274573   3.505   5.651  14.047 -0.1096  0.4532 -0.9470
17720TIP3   OH274574   4.723   1.843   2.530 -0.4280 -0.1132 -0.0201
17720TIP3    H174575   4.750   1.766   2.581 -0.6882 -1.1194 -1.3714
17720TIP3    H274576   4.802   1.897   2.527 -0.5363  0.2183  1.8528
17721TIP3   OH274577   6.580   0.967   2.767 -0.3809  0.0057 -0.0686
17721TIP3    H174578   6.643   1.036   2.745 -0.9645  1.2398  1.8489
17721TIP3    H274579   6.589   0.956   2.862 -1.9667 -0.8876  0.0176
17722TIP3   OH274580   2.637   4.049  13.682  0.8290  0.1904 -0.0866
17722TIP3    H174581   2.713   4.027  13.735  1.3211  3.6304  0.8621
17722TIP3    H274582   2.670   4.053  13.592  1.1085 -0.9198 -0.0477
17723TIP3   OH274583   5.476   5.179  11.207 -0.0019 -0.4549  0.0048
17723TIP3    H174584   5.413   5.216  11.269  0.1420  1.1352 -0.7441
17723TIP3    H274585   5.518   5.107  11.255 -1.9003 -1.1330  0.7330
17724TIP3   OH274586   1.535   5.928   5.911  0.2050  0.0059  0.2578
17724TIP3    H174587   1.499   5.991   5.973  1.7722  0.2505  0.9513
17724TIP3    H274588   1.615   5.969   5.878  1.0019 -1.4043  0.3621
17725TIP3   OH274589   1.686   6.305  15.799  0.1128 -0.0404  0.3542
17725TIP3    H174590   1.742   6.322  15.724 -0.3236  0.1094  0.0596
17725TIP3    H274591   1.730   6.349  15.872  0.4232  0.0002  0.1461
17726TIP3   OH274592   3.407   4.403   0.581  0.0604 -0.1063 -0.0891
17726TIP3    H174593   3.365   4.421   0.665 -0.7831  0.9186 -0.6999
17726TIP3    H274594   3.383   4.477   0.526 -1.1338 -1.7041 -1.8617
17727TIP3   OH274595   4.575   0.488  13.660 -0.3580 -0.0702  0.7016
17727TIP3    H174596   4.502   0.500  13.720  0.6790  1.3483  1.7501
17727TIP3    H274597   4.559   0.551  13.590 -2.5879 -3.0191 -1.7037
17728TIP3   OH274598   4.623   5.226  12.954  0.1703  0.7225 -1.1467
17728TIP3    H174599   4.551   5.278  12.919 -0.2499 -0.2297 -1.7448
17728TIP3    H274600   4.651   5.171  12.881 -0.3228 -0.8743 -0.1912
17729TIP3   OH274601   2.307   0.564  11.352 -0.8253  0.0874  0.1296
17729TIP3    H174602   2.378   0.596  11.296  0.9371  1.0047  2.7010
17729TIP3    H274603   2.230   0.610  11.321 -0.1887 -0.3302 -2.2532
17730TIP3   OH274604   4.675   1.383  16.860 -0.2215 -0.2060  0.0150
17730TIP3    H174605   4.641   1.379  16.771  1.2789 -1.0382 -0.5664
17730TIP3    H274606   4.694   1.292  16.883  3.2895  0.2329 -0.4859
17731TIP3   OH274607   4.055   0.197   5.616 -0.5802  0.3886  0.3460
17731TIP3    H174608   4.097   0.200   5.702  0.9137 -0.4487 -0.3119
17731TIP3    H274609   3.965   0.168   5.634  0.0962 -1.1514  1.5287
17732TIP3   OH274610   4.097   0.804   5.531  0.0251 -0.1500 -0.6037
17732TIP3    H174611   4.048   0.885   5.534  0.0192  0.0363 -3.4542
17732TIP3    H274612   4.188   0.831   5.519  0.6233 -0.5663  2.1118
17733TIP3   OH274613   6.324   2.023  14.382 -0.1071 -0.1677 -0.1179
17733TIP3    H174614   6.301   2.112  14.356  2.3753  0.8135  0.7962
17733TIP3    H274615   6.402   2.033  14.436  0.2607 -2.9171 -0.0101
17734TIP3   OH274616   6.033   5.806   5.417 -0.0695  0.5856  0.3157
17734TIP3    H174617   6.031   5.751   5.339 -2.1384  0.4020  0.4428
17734TIP3    H274618   6.096   5.875   5.395  1.0897 -0.6924 -0.6001
17735TIP3   OH274619   0.621   4.130  14.154 -0.7815 -0.2498  0.4197
17735TIP3    H174620   0.593   4.160  14.067 -1.1983 -2.2162 -0.1830
17735TIP3    H274621   0.699   4.183  14.174 -1.7838  1.5668 -0.2716
17736TIP3   OH274622   5.352   4.369  15.783 -0.5551 -0.5118  0.7483
17736TIP3    H174623   5.332   4.447  15.731  2.8682  0.1338  0.1586
17736TIP3    H274624   5.292   4.373  15.857 -2.4435  1.0509 -0.7607
17737TIP3   OH274625   0.261   4.086   4.318  0.0337  0.3319  1.0474
17737TIP3    H174626   0.184   4.058   4.368 -1.6020  1.3277 -0.8070
17737TIP3    H274627   0.297   4.159   4.370 -1.7859  1.5259  0.7190
17738TIP3   OH274628   3.279   2.129   5.850  0.0664  0.0114  0.5529
17738TIP3    H174629   3.218   2.196   5.819 -0.8144 -0.7076  0.6908
17738TIP3    H274630   3.224   2.052   5.864  1.0644 -0.7480  0.3695
17739TIP3   OH274631   4.712   5.648  13.179  0.2321 -0.3719 -0.3091
17739TIP3    H174632   4.739   5.588  13.109  1.0804  2.6061 -2.7321
17739TIP3    H274633   4.788   5.651  13.238  1.7590  1.1027 -2.2273
17740TIP3   OH274634   6.132   4.434  13.737  0.0520  0.2462  0.1097
17740TIP3    H174635   6.141   4.523  13.772 -0.4661  0.3582 -0.0336
17740TIP3    H274636   6.038   4.417  13.740  0.2854 -0.9943  1.8585
17741TIP3   OH274637   4.818   0.732   5.259  0.1581  0.1269 -0.4423
17741TIP3    H174638   4.895   0.682   5.286  0.1631 -0.1503 -0.9484
17741TIP3    H274639   4.769   0.746   5.340 -0.4749 -1.7920 -0.4493
17742TIP3   OH274640   3.919   5.348   2.724  0.5616 -0.1615  0.3657
17742TIP3    H174641   3.866   5.403   2.667 -1.8938 -2.1529  0.5660
17742TIP3    H274642   3.952   5.278   2.667  0.6713 -0.4505  0.7749
17743TIP3   OH274643   2.045   0.770   1.200  0.0232 -0.0180 -0.3804
17743TIP3    H174644   2.104   0.713   1.150 -1.9001 -2.4896  0.0036
17743TIP3    H274645   2.029   0.723   1.282 -0.2692  1.9571  0.7669
17744TIP3   OH274646   2.357   2.757   5.777  0.1211 -0.4512  0.2273
17744TIP3    H174647   2.407   2.748   5.858  3.0954  0.5262 -1.3281
17744TIP3    H274648   2.306   2.837   5.788 -1.1030 -1.3854  1.8032
17745TIP3   OH274649   0.763   0.520  16.726  0.0168  0.0679  0.2453
17745TIP3    H174650   0.852   0.487  16.716 -0.3121 -1.3167  1.5129
17745TIP3    H274651   0.734   0.484  16.810 -2.0451 -0.2670 -0.5593
17746TIP3   OH274652   0.379   2.716  12.372  0.0245  0.3123  0.2888
17746TIP3    H174653   0.294   2.680  12.398  0.3373 -0.3616  0.3918
17746TIP3    H274654   0.390   2.689  12.281 -1.1792  2.8737 -0.7320
17747TIP3   OH274655   5.360   4.800   5.427 -0.5100  0.0169  0.1502
17747TIP3    H174656   5.293   4.751   5.475 -2.3145  1.8732 -0.3570
17747TIP3    H274657   5.365   4.884   5.471  1.1145  0.1120 -0.1795
17748TIP3   OH274658   0.698   3.994  16.945 -0.4564 -0.0139 -0.0705
17748TIP3    H174659   0.614   4.025  16.979 -1.0992 -0.0095 -1.6026
17748TIP3    H274660   0.690   4.000  16.850  2.5149  3.2339 -0.3000
17749TIP3   OH274661   3.790   6.264   6.557  0.2554  0.4506 -0.3054
17749TIP3    H174662   3.866   6.269   6.497  1.8734 -0.5807  1.5355
17749TIP3    H274663   3.738   6.192   6.522  2.2122 -1.4904  0.5256
17750TIP3   OH274664   6.407   5.158   0.619 -0.1592  0.1631  0.5785
17750TIP3    H174665   6.432   5.184   0.530  1.3877 -4.1853 -0.5374
17750TIP3    H274666   6.489   5.161   0.669 -0.2166 -0.9774  0.7637
17751TIP3   OH274667   4.729   2.776  11.581  0.0680  0.4603  0.2836
17751TIP3    H174668   4.687   2.745  11.661 -0.4748 -2.2585 -0.9456
17751TIP3    H274669   4.659   2.818  11.532 -0.1435  0.0872  0.2601
17752TIP3   OH274670   4.011   5.749  11.796  0.0567  0.6063  0.0039
17752TIP3    H174671   4.101   5.780  11.808 -0.0026  0.8261 -0.1278
17752TIP3    H274672   4.017   5.654  11.810  0.4163  0.5348 -0.5928
17753TIP3   OH274673   3.787   4.910  12.990  0.3236  0.2553 -0.4214
17753TIP3    H174674   3.845   4.834  12.989 -0.1070 -0.0734 -0.5946
17753TIP3    H274675   3.839   4.980  12.951  0.5665 -0.0612 -0.6736
17754TIP3   OH274676   5.550   0.871  13.951  0.0530  0.4261  0.0870
17754TIP3    H174677   5.475   0.901  14.003  1.0988  0.6152  1.5339
17754TIP3    H274678   5.574   0.787  13.991  0.8371  0.5307 -0.1616
17755TIP3   OH274679   1.300   4.314   6.180 -0.4452 -0.3045  0.0318
17755TIP3    H174680   1.313   4.347   6.269 -1.1016 -1.2210  0.4818
17755TIP3    H274681   1.316   4.390   6.124  1.1748 -0.0028  0.8457
17756TIP3   OH274682   4.520   4.664  16.215 -0.1050  0.5153  0.4272
17756TIP3    H174683   4.472   4.620  16.285 -1.5824 -0.5924 -1.1981
17756TIP3    H274684   4.598   4.610  16.201 -0.0318  0.4932  0.9290
17757TIP3   OH274685   4.987   5.662   2.553 -0.0751  0.3281  0.2040
17757TIP3    H174686   5.016   5.617   2.474  0.0143  0.2832  0.2616
17757TIP3    H274687   4.917   5.720   2.523 -1.8654 -1.5582  0.5162
17758TIP3   OH274688   1.570   5.447   1.672  0.2093 -0.1653 -0.5906
17758TIP3    H174689   1.648   5.464   1.619  0.2152 -1.3167 -0.9912
17758TIP3    H274690   1.514   5.523   1.660  1.9185  1.4370  0.9607
17759TIP3   OH274691   6.626   2.131  14.811 -0.7173  0.4028  0.3735
17759TIP3    H174692   6.689   2.060  14.817 -1.0499  0.0793  0.0719
17759TIP3    H274693   6.639   2.182  14.891 -0.8496 -0.3145  0.8574
17760TIP3   OH274694   4.249   6.716   5.686  0.7221  0.0255  0.6587
17760TIP3    H174695   4.215   6.669   5.762  1.6352  0.5867  1.4355
17760TIP3    H274696   4.272   6.648   5.623  0.6854 -0.4795  1.1889
17761TIP3   OH274697   3.325   5.415  15.007  0.7649  0.7896 -0.4559
17761TIP3    H174698   3.303   5.502  14.975  0.4951  0.7874 -0.2790
17761TIP3    H274699   3.241   5.372  15.022  0.7957  1.3931  1.9177
17762TIP3   OH274700   1.175   2.867   3.089 -0.3627 -0.3440 -0.2986
17762TIP3    H174701   1.257   2.892   3.046 -0.0179 -0.2802  0.3775
17762TIP3    H274702   1.203   2.820   3.168 -0.8557  2.6823  1.8315
17763TIP3   OH274703   0.724   0.009   3.513  0.4592  0.0540  0.3387
17763TIP3    H174704   0.725   0.055   3.430  0.0682  0.1783  0.3983
17763TIP3    H274705   0.741  -0.082   3.490 -0.4963 -0.0598  0.0133
17764TIP3   OH274706   2.063   0.076  15.450  0.0226  0.1153  0.3410
17764TIP3    H174707   2.140   0.111  15.406 -0.4339 -0.2511 -0.7887
17764TIP3    H274708   2.024   0.016  15.386 -0.2755 -0.9782  1.5246
17765TIP3   OH274709   6.376   2.950   0.698  0.3885  0.0792 -0.5091
17765TIP3    H174710   6.448   2.930   0.758  1.6977  0.2750 -1.9448
17765TIP3    H274711   6.306   2.982   0.754  1.6621  0.5321  0.8866
17766TIP3   OH274712   3.899   0.268  16.389 -0.2491 -0.6583 -0.7569
17766TIP3    H174713   3.874   0.204  16.323 -0.9296 -1.1476 -0.0294
17766TIP3    H274714   3.968   0.225  16.440 -3.3210 -2.4625  2.2412
17767TIP3   OH274715   5.929   1.985  12.907  0.0275  0.0253 -0.4799
17767TIP3    H174716   5.926   1.999  13.001  0.0483 -2.6308 -0.0169
17767TIP3    H274717   5.894   2.066  12.869  1.0969  1.6127  1.7134
17768TIP3   OH274718   3.980   0.418   1.872  0.3328  0.3522 -0.2618
17768TIP3    H174719   4.039   0.408   1.797 -0.5215 -0.4432 -0.8582
17768TIP3    H274720   3.903   0.365   1.849 -0.2847  0.7383  0.8321
17769TIP3   OH274721   4.266   6.241   5.004 -0.2680 -0.1573  0.1278
17769TIP3    H174722   4.263   6.162   5.059 -1.3432 -0.9512 -1.0038
17769TIP3    H274723   4.350   6.234   4.958 -0.2199 -0.4709  0.2567
17770TIP3   OH274724   0.973   6.501   3.423  0.3241  0.4206  0.2249
17770TIP3    H174725   1.002   6.528   3.336 -0.9455 -0.6492 -0.5728
17770TIP3    H274726   0.877   6.497   3.416  0.2638 -0.7864  1.3318
17771TIP3   OH274727   3.902   0.381   4.379 -0.0391 -0.7683  0.6189
17771TIP3    H174728   3.857   0.451   4.333 -0.4737 -0.6395  1.2305
17771TIP3    H274729   3.981   0.366   4.327 -0.2850 -0.3093  0.0958
17772TIP3   OH274730   0.495   3.092  12.868 -0.7664  0.1090 -0.5332
17772TIP3    H174731   0.465   3.115  12.780 -1.5988  2.1986  0.2244
17772TIP3    H274732   0.417   3.063  12.914 -0.3739 -0.7677 -0.4007
17773TIP3   OH274733   4.901   1.514  15.560  0.3163 -0.5634  0.9992
17773TIP3    H174734   4.962   1.451  15.522 -0.4114  0.4095 -2.0143
17773TIP3    H274735   4.821   1.505  15.509 -1.2406  0.0132  3.1761
17774TIP3   OH274736   2.121   3.592   4.382 -0.1768  0.3141  0.5483
17774TIP3    H174737   2.208   3.555   4.366 -0.3790 -0.1131  0.4077
17774TIP3    H274738   2.072   3.573   4.302 -0.0008  1.7863  0.0586
17775TIP3   OH274739   2.717   6.306  14.967  0.3541 -0.4296 -0.0041
17775TIP3    H174740   2.743   6.337  15.053 -0.5423 -0.7190  0.3830
17775TIP3    H274741   2.700   6.385  14.916 -0.4011 -0.2568  0.4993
17776TIP3   OH274742   3.140   3.366   4.695  0.6355  0.1512 -0.0167
17776TIP3    H174743   3.198   3.418   4.750 -1.0608  0.5767  1.4840
17776TIP3    H274744   3.191   3.288   4.671  2.9450  2.0074 -1.6194
17777TIP3   OH274745   4.046   6.388   2.635 -0.2661  0.1250  0.4665
17777TIP3    H174746   3.961   6.412   2.598 -1.1082 -1.7321  1.0663
17777TIP3    H274747   4.038   6.406   2.728  0.5440  1.3139  0.3255
17778TIP3   OH274748   0.245   2.342  15.732 -0.3540  0.5497  0.0237
17778TIP3    H174749   0.299   2.299  15.799 -0.6392  2.7550  1.7707
17778TIP3    H274750   0.298   2.415  15.701 -0.0389 -0.6834 -2.6200
17779TIP3   OH274751   4.658   5.127   3.228 -0.2388  0.1354  0.4501
17779TIP3    H174752   4.745   5.087   3.224 -0.0946  0.5542 -1.9293
17779TIP3    H274753   4.600   5.060   3.193 -0.5011  0.7210 -0.2562
17780TIP3   OH274754   0.627   0.354   3.577 -0.1107  0.0024  0.7289
17780TIP3    H174755   0.620   0.279   3.637 -4.0182  1.4850  2.4973
17780TIP3    H274756   0.573   0.328   3.502  0.0912  0.2996  0.4840
17781TIP3   OH274757   3.528   4.818  12.993  0.0826 -0.3345 -0.2519
17781TIP3    H174758   3.480   4.899  13.011 -1.2816 -1.1146 -0.2855
17781TIP3    H274759   3.620   4.846  12.986 -0.1938  1.0077  0.9955
17782TIP3   OH274760   3.825   4.652  12.651 -0.8685 -0.5555 -0.0652
17782TIP3    H174761   3.917   4.644  12.677 -1.5594 -1.9559  2.2631
17782TIP3    H274762   3.789   4.716  12.712 -1.4910 -0.0896 -0.9048
17783TIP3   OH274763   0.335   0.929   1.832  0.4669  0.0174  0.4312
17783TIP3    H174764   0.382   0.957   1.910  0.3416  1.7698 -0.0877
17783TIP3    H274765   0.316   1.010   1.784 -0.0296 -0.9506 -1.0976
17784TIP3   OH274766   0.220   0.239   0.837  0.0437 -0.2419  0.3385
17784TIP3    H174767   0.178   0.240   0.751  0.1771 -0.4365  0.2710
17784TIP3    H274768   0.265   0.155   0.841 -2.7361 -1.8450  1.9277
17785TIP3   OH274769   5.799   3.275   0.755  0.5516  0.7113  0.0582
17785TIP3    H174770   5.791   3.215   0.681  2.0697  0.1473  0.2999
17785TIP3    H274771   5.784   3.362   0.717  0.1648  0.3304 -0.6789
17786TIP3   OH274772   1.395   0.043   5.533 -0.4412  1.0497  0.6380
17786TIP3    H174773   1.351  -0.016   5.472 -0.8589  2.0905 -0.0888
17786TIP3    H274774   1.447   0.101   5.478 -0.7341  1.9355  1.2656
17787TIP3   OH274775   2.813   3.782   0.290  0.5090 -0.7159 -0.7544
17787TIP3    H174776   2.899   3.793   0.331  0.7103 -0.6805 -1.1815
17787TIP3    H274777   2.801   3.687   0.287 -0.0913 -0.7031  0.5789
17788TIP3   OH274778   5.226   4.497  11.766 -0.0606 -0.6051  0.6353
17788TIP3    H174779   5.221   4.402  11.780  0.9680 -0.6663  0.6671
17788TIP3    H274780   5.191   4.510  11.678  0.8244 -1.1532  0.1873
17789TIP3   OH274781   3.780   0.313  12.527 -0.4379  0.3317 -0.1750
17789TIP3    H174782   3.732   0.364  12.594  1.4265  0.3030  1.2579
17789TIP3    H274783   3.830   0.249  12.577  0.1769 -0.4346 -1.7082
17790TIP3   OH274784   4.175   1.727  15.089 -0.5483 -0.3075 -0.6938
17790TIP3    H174785   4.180   1.821  15.104 -0.7642 -0.5509  1.0821
17790TIP3    H274786   4.261   1.694  15.115 -1.1440 -0.8299  0.6994
17791TIP3   OH274787   1.858   1.142   0.905  0.2692  0.3786 -0.2331
17791TIP3    H174788   1.772   1.136   0.863  0.3903 -0.8309 -0.3691
17791TIP3    H274789   1.839   1.138   0.999  0.1524  0.5492 -0.2491
17792TIP3   OH274790   0.384   5.129   6.137  0.1487 -0.2237 -0.0761
17792TIP3    H174791   0.470   5.161   6.164  0.2461  0.0375 -0.6873
17792TIP3    H274792   0.385   5.035   6.157 -0.2702  0.1685  2.0863
17793TIP3   OH274793   2.132   3.654  12.834 -0.2204  0.1264  0.1503
17793TIP3    H174794   2.061   3.711  12.805  0.7387  0.9154 -0.7285
17793TIP3    H274795   2.197   3.658  12.763  1.4651  0.8038  1.6539
17794TIP3   OH274796   2.368   5.264  14.341 -0.2866  0.0561 -0.0504
17794TIP3    H174797   2.391   5.305  14.425 -0.5333 -0.6942  0.3905
17794TIP3    H274798   2.403   5.324  14.275  3.3087 -1.1183  0.5258
17795TIP3   OH274799   2.605   5.292  12.861  0.0684 -0.4325 -0.2759
17795TIP3    H174800   2.651   5.344  12.927  0.0825  0.3491 -0.8873
17795TIP3    H274801   2.652   5.310  12.779 -2.7585  2.4553 -1.4930
17796TIP3   OH274802   5.336   5.697  15.040 -0.4157  0.5337 -0.0023
17796TIP3    H174803   5.359   5.735  14.955  0.6794 -0.3943 -0.1537
17796TIP3    H274804   5.413   5.645  15.064 -2.3528 -2.8934 -0.5429
17797TIP3   OH274805   4.770   2.539   4.602  0.2323  0.4352  0.6225
17797TIP3    H174806   4.705   2.549   4.672  0.1979 -0.4224  0.7289
17797TIP3    H274807   4.831   2.474   4.636 -1.4070 -2.3032 -1.2487
17798TIP3   OH274808   0.269   4.572   0.762  0.7594 -0.2141 -0.4879
17798TIP3    H174809   0.201   4.512   0.794  1.1300 -1.0455 -1.1908
17798TIP3    H274810   0.351   4.534   0.795  0.8609  1.1431  0.9082
17799TIP3   OH274811   5.081   2.600   0.142  0.4491 -0.1660 -0.1395
17799TIP3    H174812   5.001   2.653   0.141 -0.4871 -1.5518 -0.8654
17799TIP3    H274813   5.143   2.652   0.195 -0.4742  1.5474 -0.6615
17800TIP3   OH274814   2.155   3.198   1.292  0.0859  0.3982 -0.0604
17800TIP3    H174815   2.226   3.188   1.229  0.3541 -0.0999  0.3257
17800TIP3    H274816   2.151   3.115   1.339 -0.1276  0.7574  0.5709
17801TIP3   OH274817   1.165   3.734  14.060 -0.3168  0.2047  0.2414
17801TIP3    H174818   1.207   3.660  14.103 -0.3999 -0.9217 -1.5263
17801TIP3    H274819   1.205   3.738  13.974 -1.2612  1.3836 -0.1755
17802TIP3   OH274820   2.353   4.961   3.935  0.0929  0.0303 -0.3499
17802TIP3    H174821   2.268   4.921   3.917 -0.3577  0.8708 -0.1848
17802TIP3    H274822   2.416   4.889   3.933 -0.5108 -0.4769 -1.2917
17803TIP3   OH274823   0.999   0.049  14.960  0.5547 -0.2895 -0.5882
17803TIP3    H174824   0.937   0.118  14.986  1.7053  1.3742 -2.0766
17803TIP3    H274825   0.948  -0.008  14.903  0.0688  0.3862 -0.8460
17804TIP3   OH274826   3.448   4.083  16.506 -0.3189 -0.3786  0.2076
17804TIP3    H174827   3.356   4.068  16.528 -0.3596 -2.2929 -0.9501
17804TIP3    H274828   3.449   4.092  16.411  0.6779 -0.4566  0.1942
17805TIP3   OH274829   1.378   5.741   5.761  0.3675  0.4547  0.0961
17805TIP3    H174830   1.424   5.820   5.789 -1.0544  0.9446  1.1998
17805TIP3    H274831   1.443   5.671   5.768  1.0196  1.1526  1.3411
17806TIP3   OH274832   4.876   2.286   4.971  0.2989  0.0056 -0.0372
17806TIP3    H174833   4.874   2.190   4.978  0.1753  0.0204  0.1218
17806TIP3    H274834   4.790   2.314   5.001  0.7174  0.2370  0.9882
17807TIP3   OH274835   4.214   3.647   3.156  0.3061  0.1592 -0.0260
17807TIP3    H174836   4.306   3.672   3.149 -0.1061  1.7453 -0.2206
17807TIP3    H274837   4.212   3.583   3.227  1.7842 -1.2444 -1.1872
17808TIP3   OH274838   2.389   4.987  15.583 -0.5729 -0.2068  0.3273
17808TIP3    H174839   2.336   4.936  15.644 -2.0645  0.8218 -0.0772
17808TIP3    H274840   2.463   5.018  15.636 -1.2012 -0.3429  1.3129
17809TIP3   OH274841   0.211   1.515  16.703  0.1039 -0.1901 -0.4374
17809TIP3    H174842   0.278   1.584  16.706  0.7467 -0.8417  0.7928
17809TIP3    H274843   0.184   1.511  16.611 -0.1383  1.8734 -0.5022
17810TIP3   OH274844   0.387   6.355   2.883 -0.2563 -0.3826 -0.0865
17810TIP3    H174845   0.303   6.392   2.854 -0.5632  0.0841  1.3172
17810TIP3    H274846   0.367   6.265   2.908 -0.5335 -0.0317  1.0115
17811TIP3   OH274847   3.774   3.739  14.085  0.1151  0.0064  0.1984
17811TIP3    H174848   3.848   3.781  14.040  0.2982 -0.5608 -0.0491
17811TIP3    H274849   3.796   3.745  14.178  0.0719  0.5698  0.1768
17812TIP3   OH274850   4.673   6.551  14.159 -0.0316 -0.2402  0.0113
17812TIP3    H174851   4.602   6.515  14.212 -0.2710  0.6915  0.3362
17812TIP3    H274852   4.629   6.607  14.095  0.4163  0.3547  0.2268
17813TIP3   OH274853   6.126   5.241   2.909  0.8338 -0.7630  0.2553
17813TIP3    H174854   6.199   5.202   2.860  0.7072  0.1731 -0.7290
17813TIP3    H274855   6.156   5.241   3.000  0.9884 -2.7491  0.2497
17814TIP3   OH274856   0.283   2.381  16.707 -0.2267 -0.1653  0.2231
17814TIP3    H174857   0.228   2.330  16.648  0.8408 -1.2022  0.0978
17814TIP3    H274858   0.333   2.316  16.756  0.5203  0.7396  0.6890
17815TIP3   OH274859   5.611   3.147  14.030 -0.1652 -0.6971 -0.3066
17815TIP3    H174860   5.606   3.117  13.939 -1.0241  0.5175 -0.6899
17815TIP3    H274861   5.576   3.236  14.028 -2.5110 -1.4638  1.6041
17816TIP3   OH274862   4.645   4.859  14.287  0.2711  0.6225  0.8863
17816TIP3    H174863   4.594   4.804  14.227 -0.1825  0.4952  1.3767
17816TIP3    H274864   4.617   4.949  14.266 -1.4659  0.4653  2.2934
17817TIP3   OH274865   1.656   4.562  12.791  0.0830  0.3612  0.2643
17817TIP3    H174866   1.681   4.473  12.768 -2.4801 -0.4042  0.1276
17817TIP3    H274867   1.728   4.594  12.846  1.1792 -1.6577  0.1079
17818TIP3   OH274868   0.166   6.073  13.787  0.6271 -0.0779 -0.0273
17818TIP3    H174869   0.204   6.099  13.871  2.0271  2.0640 -1.2286
17818TIP3    H274870   0.077   6.107  13.789  0.8834  0.5960  0.3584
17819TIP3   OH274871   2.506   3.798   4.759  0.2778 -0.3815 -0.2453
17819TIP3    H174872   2.540   3.826   4.675  1.1965 -0.8707 -0.0569
17819TIP3    H274873   2.430   3.743   4.738  0.3809 -0.3331 -0.7429
17820TIP3   OH274874   6.673   1.956  14.474  0.5426  0.0584  0.7824
17820TIP3    H174875   6.717   2.003  14.403  0.3467 -0.2603  0.4529
17820TIP3    H274876   6.627   2.025  14.523  0.2304  0.2083  0.2838
17821TIP3   OH274877   1.776   2.573  13.883  0.2197  0.3037 -0.5124
17821TIP3    H174878   1.806   2.491  13.845  0.2022  0.5594 -1.0978
17821TIP3    H274879   1.778   2.558  13.978  0.2179 -0.3638 -0.6123
17822TIP3   OH274880   2.541   1.069   3.319  0.6538 -0.5185 -0.1480
17822TIP3    H174881   2.587   1.063   3.403  0.3386 -1.1865 -0.0144
17822TIP3    H274882   2.507   1.158   3.317  1.2860 -0.2637  0.1056
17823TIP3   OH274883   0.015   2.117   3.603 -0.2114  0.3532 -0.2028
17823TIP3    H174884  -0.067   2.072   3.623  0.4988 -1.2474 -0.6932
17823TIP3    H274885   0.041   2.082   3.517  1.0594  0.6899  0.0219
17824TIP3   OH274886   4.806   5.671   5.604 -0.0354 -0.7029  0.2617
17824TIP3    H174887   4.854   5.737   5.555  0.2827 -0.3690  1.0162
17824TIP3    H274888   4.839   5.588   5.570 -0.9597 -0.5125 -1.2131
17825TIP3   OH274889   5.052   1.334  14.982 -0.4826 -1.0822  0.4879
17825TIP3    H174890   5.021   1.416  15.021  0.8734 -0.4551  0.3035
17825TIP3    H274891   5.027   1.341  14.890  1.4107  0.1063  0.0011
17826TIP3   OH274892   3.367   5.199   5.371  0.0266  0.9627 -0.0932
17826TIP3    H174893   3.389   5.274   5.426  0.9262  0.4671  0.2398
17826TIP3    H274894   3.450   5.173   5.331  0.1361 -1.0154  1.2702
17827TIP3   OH274895   6.489   0.635   4.274  0.0713 -0.7475  1.0902
17827TIP3    H174896   6.570   0.603   4.235  1.2146  2.3089  0.6902
17827TIP3    H274897   6.422   0.619   4.208  1.0407 -0.1945 -0.0510
17828TIP3   OH274898   4.763   1.156  11.150 -0.2485  0.2041  0.5356
17828TIP3    H174899   4.828   1.177  11.217 -0.9345 -1.0614  1.6407
17828TIP3    H274900   4.736   1.241  11.115  2.8782  0.7366 -0.8677
17829TIP3   OH274901   0.745   4.860   4.866  0.2749 -0.2142 -0.1759
17829TIP3    H174902   0.818   4.816   4.909  0.1628  0.5679  0.8638
17829TIP3    H274903   0.786   4.907   4.793  0.7759  0.0078  0.2414
17830TIP3   OH274904   3.586   1.731   0.314 -0.4794  0.6598  0.2310
17830TIP3    H174905   3.598   1.772   0.400  1.5412 -0.3111  0.4485
17830TIP3    H274906   3.505   1.680   0.323 -0.9953  1.5954  1.1247
17831TIP3   OH274907   1.254   1.600  12.897  0.8041  0.4256 -0.1423
17831TIP3    H174908   1.255   1.695  12.906  2.4576  0.2902  1.6744
17831TIP3    H274909   1.342   1.572  12.924  0.2305 -1.6475 -0.2529
17832TIP3   OH274910   3.413   4.227  14.493  0.4320 -0.0749  0.7081
17832TIP3    H174911   3.402   4.235  14.587 -0.0345  1.0979  0.5713
17832TIP3    H274912   3.410   4.317  14.461  3.2425 -0.1757 -0.1556
17833TIP3   OH274913   0.849   1.495  11.597  0.7705 -0.2617 -0.2697
17833TIP3    H174914   0.862   1.418  11.541  0.9044  0.7246 -1.6256
17833TIP3    H274915   0.845   1.459  11.686 -1.8563 -2.1560 -1.0410
17834TIP3   OH274916   4.585   5.043   1.097  0.6065 -0.4885 -0.6136
17834TIP3    H174917   4.640   5.000   1.162 -0.6792 -0.8385  0.2694
17834TIP3    H274918   4.585   4.983   1.022 -0.8749 -1.9005  0.4696
17835TIP3   OH274919   5.040   4.360   4.108  0.1094  0.0230  0.0144
17835TIP3    H174920   5.105   4.426   4.134  0.5781 -1.2161  2.1744
17835TIP3    H274921   5.068   4.334   4.020  2.1195  0.1029  0.5687
17836TIP3   OH274922   1.923   0.972  12.355 -0.2055 -0.1309 -0.5296
17836TIP3    H174923   1.910   0.885  12.393  0.1476  0.2411  0.4944
17836TIP3    H274924   1.990   0.959  12.288  1.0602 -0.3835  0.7443
17837TIP3   OH274925   0.756   1.388  12.685 -0.1792  0.2570  0.1343
17837TIP3    H174926   0.793   1.307  12.721 -0.3411  0.1716  0.1107
17837TIP3    H274927   0.732   1.440  12.761 -0.1417  0.2508  0.1498
17838TIP3   OH274928   4.966   5.109   2.909  0.2499  0.1124  0.4076
17838TIP3    H174929   5.033   5.091   2.974 -0.7178 -0.5419  1.2645
17838TIP3    H274930   4.981   5.045   2.840  0.3662 -0.1796  0.7036
17839TIP3   OH274931   2.011   0.153  16.148  0.0879  0.0102  0.5951
17839TIP3    H174932   1.943   0.212  16.116 -1.1105 -0.8619  1.4400
17839TIP3    H274933   2.093   0.193  16.120 -0.7094  1.7545  0.6334
17840TIP3   OH274934   1.062   5.390  16.098  0.2366 -0.1140  0.0504
17840TIP3    H174935   1.079   5.459  16.162 -0.9993 -0.4874  0.8162
17840TIP3    H274936   1.110   5.418  16.019 -0.5431  1.8143  0.2035
17841TIP3   OH274937   2.008   5.099  13.189 -0.0917 -0.6264 -0.3396
17841TIP3    H174938   2.004   5.190  13.219  1.2009 -0.3401 -0.9295
17841TIP3    H274939   2.102   5.083  13.178 -0.3312 -1.9324 -0.5506
17842TIP3   OH274940   2.122   5.527   1.789 -0.0266 -0.2047  0.3189
17842TIP3    H174941   2.164   5.468   1.727 -0.5505  0.3389 -0.5700
17842TIP3    H274942   2.122   5.478   1.872 -0.7353 -1.5911 -0.4635
17843TIP3   OH274943   4.679   3.679   2.592 -0.3415  0.0821 -0.6630
17843TIP3    H174944   4.593   3.694   2.633  0.3074 -1.2974  1.3371
17843TIP3    H274945   4.657   3.652   2.503 -2.0485 -0.7562 -0.0495
17844TIP3   OH274946   4.043   5.699  12.118  0.2910 -0.2093 -0.0647
17844TIP3    H174947   4.082   5.654  12.193  0.1671  1.1279  0.8420
17844TIP3    H274948   4.025   5.630  12.055  0.7288 -1.3220  0.9945
17845TIP3   OH274949   1.440   1.534  12.541 -0.2781 -1.1321 -0.2577
17845TIP3    H174950   1.450   1.468  12.609  2.2094  0.6045  1.2067
17845TIP3    H274951   1.446   1.485  12.459 -1.5142 -3.0466  0.7178
17846TIP3   OH274952   5.849   2.427   2.499 -0.2903 -0.5618 -0.2394
17846TIP3    H174953   5.797   2.449   2.422  1.0106  1.0019 -0.7347
17846TIP3    H274954   5.789   2.441   2.573 -1.1318 -0.6970 -0.8774
17847TIP3   OH274955   3.636   0.013   6.235 -0.3098  0.2471  0.2722
17847TIP3    H174956   3.626   0.069   6.157 -0.4239 -1.6839 -1.1743
17847TIP3    H274957   3.558  -0.042   6.234 -0.4433  0.3753  1.9598
17848TIP3   OH274958   1.132   4.240   4.324 -0.1767  0.0797  0.0959
17848TIP3    H174959   1.208   4.292   4.297  1.5526 -1.4986  1.6150
17848TIP3    H274960   1.144   4.156   4.279 -1.0674 -0.1778  0.3165
17849TIP3   OH274961   1.267   3.307   0.593  1.0222  0.7747 -0.2783
17849TIP3    H174962   1.194   3.355   0.555 -1.6995 -1.0572  2.1537
17849TIP3    H274963   1.302   3.365   0.661  0.2441  0.7813  0.1230
17850TIP3   OH274964   2.528   4.901  15.874 -0.4271  0.0972  0.3576
17850TIP3    H174965   2.610   4.897  15.924 -0.0299 -0.9522 -0.3432
17850TIP3    H274966   2.508   4.994  15.868  0.8409  0.3917  0.3565
17851TIP3   OH274967   5.129   0.598  17.256 -0.4926  0.4860 -0.3270
17851TIP3    H174968   5.216   0.608  17.219 -0.5924  1.6349 -0.2974
17851TIP3    H274969   5.127   0.510  17.292  1.0418  0.8334  0.6653
17852TIP3   OH274970   4.756   2.918   2.556 -0.2365  0.1737 -0.3953
17852TIP3    H174971   4.695   2.965   2.613 -0.9579  1.5310 -2.1411
17852TIP3    H274972   4.826   2.981   2.540  0.2382 -0.3888 -0.5530
17853TIP3   OH274973   6.694   3.207   4.386 -0.3245 -0.2547 -0.0693
17853TIP3    H174974   6.701   3.302   4.386 -0.4264 -0.2155  1.5971
17853TIP3    H274975   6.743   3.179   4.309  1.3529  1.0373  0.4770
17854TIP3   OH274976   1.285   4.722  11.607 -0.4545  0.3757  0.1816
17854TIP3    H174977   1.343   4.715  11.683 -1.3583 -1.3307  0.7699
17854TIP3    H274978   1.270   4.816  11.597  1.1740  0.7561  0.9412
17855TIP3   OH274979   5.705   5.235  12.238 -0.2154 -0.1665  0.5568
17855TIP3    H174980   5.646   5.289  12.187  0.4125  0.5992  0.6292
17855TIP3    H274981   5.740   5.172  12.176  0.9881  1.1194 -0.1223
17856TIP3   OH274982   4.822   1.695  13.220  0.0446 -0.2906  0.1733
17856TIP3    H174983   4.903   1.744  13.233 -0.2112 -0.0650  0.9491
17856TIP3    H274984   4.791   1.675  13.308 -1.9056  1.5350 -0.0273
17857TIP3   OH274985   2.997   4.807  13.654 -0.6656 -0.7251 -0.3586
17857TIP3    H174986   3.024   4.716  13.642  1.7161 -0.4716  2.1438
17857TIP3    H274987   3.070   4.858  13.620 -0.0868  0.1162  1.9982
17858TIP3   OH274988   2.052   0.277  13.395  0.0325 -0.8611 -0.3008
17858TIP3    H174989   1.996   0.347  13.429 -0.2700 -1.3720  0.2676
17858TIP3    H274990   2.039   0.281  13.300 -1.1361 -1.1054 -0.1703
17859TIP3   OH274991   5.279   4.288   2.178  0.2024 -0.0606  0.1334
17859TIP3    H174992   5.219   4.344   2.128  0.3531  1.3392  1.4145
17859TIP3    H274993   5.364   4.329   2.167  0.3587 -0.1588  0.9068
17860TIP3   OH274994   1.245   0.051  11.538  0.1648  0.4433  0.0131
17860TIP3    H174995   1.328   0.099  11.533 -0.5695  1.7526  0.1184
17860TIP3    H274996   1.189   0.091  11.472 -0.7564  0.3097  0.6934
17861TIP3   OH274997   0.307   5.485  13.799 -0.2660 -0.1655 -0.2946
17861TIP3    H174998   0.254   5.436  13.861  0.6558 -1.2025 -0.2993
17861TIP3    H274999   0.272   5.460  13.713  1.7572 -2.8565 -0.4613
17862TIP3   OH275000   3.792   4.246  16.413 -0.0385  0.2459  0.2697
17862TIP3    H175001   3.770   4.315  16.350 -0.8767  0.5198  0.8540
17862TIP3    H275002   3.873   4.208  16.378  0.0765  1.0791 -0.4193
17863TIP3   OH275003   5.974   2.012   5.168  0.1886  0.3751 -0.1602
17863TIP3    H175004   5.904   2.076   5.178 -1.3878 -1.3584  0.5574
17863TIP3    H275005   5.977   1.994   5.074 -1.0013 -0.2052 -0.1048
17864TIP3   OH275006   1.980   2.204   1.812 -0.7181 -0.0452  0.5796
17864TIP3    H175007   1.889   2.196   1.838 -1.7846  1.0594 -2.3748
17864TIP3    H275008   1.991   2.140   1.742  0.2589  0.9349 -0.2092
17865TIP3   OH275009   3.045   3.875  12.323 -0.2104 -0.2915 -0.0991
17865TIP3    H175010   3.131   3.890  12.283 -0.1857 -1.3056 -0.4497
17865TIP3    H275011   3.063   3.878  12.417 -0.0258  0.7316 -0.1483
17866TIP3   OH275012   6.122   5.555  14.601 -0.3973  0.4387  0.0548
17866TIP3    H175013   6.175   5.615  14.654 -0.2957  1.3302 -1.0225
17866TIP3    H275014   6.069   5.613  14.546 -0.0257 -0.4610 -1.2929
17867TIP3   OH275015   6.059   5.041  14.270 -0.1840  0.4364 -0.4894
17867TIP3    H175016   5.978   5.087  14.246 -0.4482  0.6057  0.6807
17867TIP3    H275017   6.053   5.030  14.365  0.1425 -1.5450 -0.6655
17868TIP3   OH275018   2.471   0.748  15.244 -0.2696  0.3816  0.0753
17868TIP3    H175019   2.384   0.781  15.220 -0.0274  0.2784 -0.9898
17868TIP3    H275020   2.531   0.793  15.185  0.3071 -0.2248  0.1908
17869TIP3   OH275021   0.328   1.590  13.149 -0.3552  0.0213 -0.2940
17869TIP3    H175022   0.238   1.557  13.154 -0.1038 -0.7576 -0.6766
17869TIP3    H275023   0.319   1.683  13.128 -1.1676  1.0278  3.7659
17870TIP3   OH275024   0.805   3.907  13.642  0.4599 -0.2835 -0.2219
17870TIP3    H175025   0.794   3.974  13.575  1.5924  0.1282 -0.0117
17870TIP3    H275026   0.828   3.828  13.594 -1.7427 -0.7928 -0.5485
17871TIP3   OH275027   4.716   3.529   5.858  0.4175 -0.2553  0.0397
17871TIP3    H175028   4.792   3.471   5.851 -0.9602 -2.2505  0.6060
17871TIP3    H275029   4.676   3.506   5.942 -0.0468  1.7560  0.4153
17872TIP3   OH275030   2.060   1.385  12.023  0.0436  0.0138 -0.2545
17872TIP3    H175031   2.037   1.436  12.102  0.4009  0.4688 -0.4396
17872TIP3    H275032   2.036   1.442  11.950  0.4120 -0.1054 -0.4680
17873TIP3   OH275033   1.938   2.305  15.542 -0.7497 -0.2781  0.8226
17873TIP3    H175034   2.018   2.351  15.567 -1.8904  2.2247  0.2446
17873TIP3    H275035   1.954   2.214  15.565  2.8500 -0.1828 -0.6979
17874TIP3   OH275036   2.378   0.912   0.840  0.0572 -0.3969 -0.5850
17874TIP3    H175037   2.286   0.885   0.829  0.2818 -1.5091  0.0867
17874TIP3    H275038   2.426   0.829   0.849  1.2866  0.1199 -1.9652
17875TIP3   OH275039   4.090   5.150   3.657  0.0971  0.3786 -0.1545
17875TIP3    H175040   4.153   5.080   3.678 -0.6692 -0.1957  0.2881
17875TIP3    H275041   4.109   5.173   3.566 -1.1857 -2.0847 -1.1323
17876TIP3   OH275042   5.594   0.777   5.772  0.6426 -0.3984 -0.5645
17876TIP3    H175043   5.503   0.804   5.782  0.9005 -0.1163  1.5314
17876TIP3    H275044   5.627   0.830   5.700 -1.0579 -1.1525 -1.9501
17877TIP3   OH275045   1.434   3.783  14.314 -0.2167  0.3395 -0.0489
17877TIP3    H175046   1.454   3.821  14.399 -0.6219  0.9461 -0.2135
17877TIP3    H275047   1.429   3.689  14.329  0.0470  0.4176  0.5272
17878TIP3   OH275048   2.431   1.581  16.412  0.1652  0.1006  0.5333
17878TIP3    H175049   2.400   1.637  16.483 -1.2393 -0.4915  0.4367
17878TIP3    H275050   2.472   1.641  16.349  0.4044  0.7639  1.3056
17879TIP3   OH275051   5.644   1.074  13.538 -0.0317 -0.0828 -0.5981
17879TIP3    H175052   5.559   1.043  13.507  0.3511  0.2158 -2.0109
17879TIP3    H275053   5.661   1.023  13.617 -0.9534 -1.0357 -0.9976
17880TIP3   OH275054   4.445   5.297  12.415  0.2792 -0.7391  0.0739
17880TIP3    H175055   4.540   5.296  12.427  0.3208  1.0814  0.1835
17880TIP3    H275056   4.420   5.388  12.432 -1.5023 -1.2112  0.1439
17881TIP3   OH275057   5.090   1.236   2.776  0.3631  0.0172  0.2236
17881TIP3    H175058   5.119   1.171   2.841  1.4058 -0.2687 -0.4951
17881TIP3    H275059   5.148   1.311   2.790  1.0659 -0.3130 -0.8161
17882TIP3   OH275060   4.475   2.186  12.858 -0.6015 -0.0526 -0.6355
17882TIP3    H175061   4.485   2.112  12.797  1.9226 -1.3981  1.2308
17882TIP3    H275062   4.547   2.245  12.838 -0.3870  0.0280  0.3152
17883TIP3   OH275063   0.958   5.667  17.255  0.0745 -0.2514 -0.1238
17883TIP3    H175064   1.027   5.668  17.188  0.1897 -0.6008 -0.0110
17883TIP3    H275065   0.971   5.749  17.303  0.7973 -0.5995  0.2828
17884TIP3   OH275066   5.507   1.327   3.864  0.1706 -0.1369 -0.6714
17884TIP3    H175067   5.516   1.419   3.839  2.0353 -0.1644 -0.2181
17884TIP3    H275068   5.503   1.329   3.960  1.7239 -0.6007 -0.5754
17885TIP3   OH275069   3.337   3.696  17.355  0.6176 -0.3172  0.1413
17885TIP3    H175070   3.285   3.775  17.337  0.6271 -0.6720 -1.6241
17885TIP3    H275071   3.428   3.725  17.344  0.5910 -0.8104 -1.8522
17886TIP3   OH275072   0.944   2.652  11.870 -0.6843 -0.4523  0.7447
17886TIP3    H175073   0.904   2.738  11.885  0.5931 -0.0307  1.8821
17886TIP3    H275074   1.017   2.670  11.810 -0.7400 -0.8395  0.5608
17887TIP3   OH275075   0.542   2.078   2.710 -0.1573 -0.1713  0.2707
17887TIP3    H175076   0.514   2.121   2.790  0.0998 -0.9593  0.7940
17887TIP3    H275077   0.619   2.129   2.681  0.4116 -0.5277  1.1198
17888TIP3   OH275078   5.723   0.053   5.755 -0.1832 -0.0912 -0.0173
17888TIP3    H175079   5.718   0.063   5.850  0.2663  2.0400 -0.1857
17888TIP3    H275080   5.664   0.119   5.719  2.0949  1.4123 -1.2417
17889TIP3   OH275081   3.930   0.714   1.709  0.1156  0.9322  0.5239
17889TIP3    H175082   3.895   0.692   1.795  1.1788 -0.7685  0.5654
17889TIP3    H275083   4.025   0.708   1.719  0.2581  0.8296 -0.7247
17890TIP3   OH275084   2.228   4.073   2.207  0.1775  0.2643 -0.2638
17890TIP3    H175085   2.136   4.075   2.183  0.5672  1.2102 -1.8049
17890TIP3    H275086   2.264   4.156   2.174  1.7917 -0.5257 -0.6134
17891TIP3   OH275087   4.380   4.754  13.109  0.3419 -0.1202  0.2701
17891TIP3    H175088   4.411   4.843  13.096  0.1532  0.2599  2.1930
17891TIP3    H275089   4.285   4.762  13.119  0.1221 -0.7468 -1.1122
17892TIP3   OH275090   0.744   4.359   5.401  0.1138 -0.4739  0.0839
17892TIP3    H175091   0.820   4.410   5.430 -0.1910 -0.0076  0.0770
17892TIP3    H275092   0.671   4.393   5.452 -0.5969  0.9360 -1.7418
17893TIP3   OH275093   1.345   0.155   4.647  0.0163 -0.0018  0.7090
17893TIP3    H175094   1.329   0.064   4.668 -0.6340 -0.6373 -2.1074
17893TIP3    H275095   1.300   0.204   4.716  0.7132 -1.7501  2.4920
17894TIP3   OH275096   0.245   2.304  14.187  0.3544 -0.3934  0.5323
17894TIP3    H175097   0.261   2.265  14.101  2.1255  1.0851  0.1013
17894TIP3    H275098   0.289   2.246  14.249  1.3953 -0.1006  0.1007
17895TIP3   OH275099   5.258   1.619  11.628  0.3230  0.5437 -0.6307
17895TIP3    H175100   5.209   1.701  11.626 -1.8973 -0.7152 -0.3284
17895TIP3    H275101   5.311   1.625  11.708  0.3636  1.7472 -0.7231
17896TIP3   OH275102   4.584   3.003   1.814 -0.2078  0.3209 -0.0285
17896TIP3    H175103   4.504   3.036   1.854 -0.4868 -2.0730  1.5568
17896TIP3    H275104   4.633   2.965   1.887 -0.0914 -3.0086 -1.6856
17897TIP3   OH275105   6.720   5.761   2.947 -0.2634  0.7016 -0.0110
17897TIP3    H175106   6.732   5.752   2.853 -2.2410  0.7009 -0.3190
17897TIP3    H275107   6.766   5.686   2.984 -0.7646 -0.1952 -1.1274
17898TIP3   OH275108   4.084   4.826  11.535  0.1741 -0.1380 -0.2381
17898TIP3    H175109   4.085   4.916  11.501 -1.0440  0.2530  0.6910
17898TIP3    H275110   4.169   4.791  11.510  0.5708  1.1782 -0.8694
17899TIP3   OH275111   0.685   2.499  13.819  0.1635 -0.5722 -0.3366
17899TIP3    H175112   0.712   2.452  13.740 -1.5107  0.9091 -1.8945
17899TIP3    H275113   0.636   2.435  13.870  1.7534 -1.7159 -0.1661
17900TIP3   OH275114   3.975   2.633   2.894 -0.7608  0.3894  0.0019
17900TIP3    H175115   3.885   2.625   2.864 -0.4193 -1.2787 -0.7433
17900TIP3    H275116   4.027   2.599   2.821  0.2851 -1.1235  1.3748
17901TIP3   OH275117   4.199   4.259   6.246  0.3892 -0.3661  0.4683
17901TIP3    H175118   4.284   4.248   6.289  0.7442  2.3159  0.6384
17901TIP3    H275119   4.136   4.263   6.317  0.1589 -1.7858  0.3696
17902TIP3   OH275120   2.845   2.054  17.096 -0.5539  0.1326  0.2044
17902TIP3    H175121   2.889   2.105  17.029 -2.4001  1.9251  0.2763
17902TIP3    H275122   2.864   2.100  17.178 -1.9021  0.5035  0.3261
17903TIP3   OH275123   2.746   0.858  16.741  0.1939  0.3162  0.3144
17903TIP3    H175124   2.840   0.842  16.744  0.0696 -0.7503 -0.7195
17903TIP3    H275125   2.738   0.953  16.735  1.2883  0.3572 -1.1552
17904TIP3   OH275126   6.582   3.843  14.961  0.0702  0.0031 -0.2674
17904TIP3    H175127   6.621   3.853  15.048 -1.6004 -1.6850  0.7365
17904TIP3    H275128   6.612   3.758  14.930 -1.4046 -0.5900 -0.1715
17905TIP3   OH275129   1.889   6.226  16.693 -0.2090 -0.0603 -0.1467
17905TIP3    H175130   1.981   6.201  16.703 -0.3349  0.2381  2.4820
17905TIP3    H275131   1.864   6.192  16.607  2.4801  0.3205 -1.1668
17906TIP3   OH275132   4.444   0.427  15.190 -0.0633 -0.1807  0.3789
17906TIP3    H175133   4.415   0.500  15.244 -0.4015  0.1098 -0.1916
17906TIP3    H275134   4.396   0.351  15.224 -2.3109  0.4586 -1.1860
17907TIP3   OH275135   2.284   4.614  12.321  0.2910  0.3407 -0.6025
17907TIP3    H175136   2.244   4.591  12.405  0.1304  1.0328 -0.4793
17907TIP3    H275137   2.323   4.700  12.337  0.1418  0.5340 -1.2767
17908TIP3   OH275138   3.149   1.688   4.126  0.1690  0.0113 -0.2660
17908TIP3    H175139   3.161   1.641   4.209  0.3146 -1.2528 -0.9928
17908TIP3    H275140   3.237   1.702   4.093  0.2337  2.1141  0.6200
17909TIP3   OH275141   4.086   1.438  13.005  0.5356 -0.0738  0.7313
17909TIP3    H175142   4.142   1.380  12.954  0.6425  0.2978  0.4205
17909TIP3    H275143   4.143   1.470  13.075  0.4182 -0.5006  1.0269
17910TIP3   OH275144   6.494   0.301   5.512  0.0551 -0.5676 -0.1034
17910TIP3    H175145   6.459   0.389   5.499 -2.0738 -1.5562 -1.7278
17910TIP3    H275146   6.535   0.304   5.598 -2.3790  1.2898  1.1061
17911TIP3   OH275147   1.938   4.293   0.215 -0.5102 -0.3775 -0.0661
17911TIP3    H175148   1.909   4.329   0.131  1.0449  1.5038  0.1473
17911TIP3    H275149   1.993   4.218   0.191 -0.3999 -0.0960 -0.7130
17912TIP3   OH275150   4.850   0.201   3.018 -0.0078  0.6061  0.6251
17912TIP3    H175151   4.897   0.242   3.090  0.9422  1.4725 -0.4366
17912TIP3    H275152   4.850   0.108   3.038  1.8237  0.6319  0.8629
17913TIP3   OH275153   5.791   3.243  11.509 -0.1955 -0.1648 -0.1129
17913TIP3    H175154   5.783   3.223  11.415  0.7762 -0.6668 -0.0989
17913TIP3    H275155   5.740   3.323  11.520 -1.3648 -0.7848 -0.8219
17914TIP3   OH275156   2.783   4.750  12.488  0.2487  0.1785  0.0808
17914TIP3    H175157   2.834   4.674  12.458  0.6678  0.7563 -0.7225
17914TIP3    H275158   2.757   4.727  12.577  1.2128 -0.4960  0.2175
17915TIP3   OH275159   2.351   4.158  11.150 -0.2103  0.1529  0.6948
17915TIP3    H175160   2.382   4.190  11.234 -2.7806  1.3432  1.2907
17915TIP3    H275161   2.380   4.223  11.086 -1.0713  1.0520  1.1838
17916TIP3   OH275162   3.432   2.482  15.930  0.0647  0.5715  0.3467
17916TIP3    H175163   3.409   2.479  15.838  2.9900  0.3945 -0.4980
17916TIP3    H275164   3.465   2.394  15.950 -2.1801  0.0547  2.1150
17917TIP3   OH275165   4.932   5.835   4.011 -0.9357  0.1592  0.1927
17917TIP3    H175166   4.876   5.875   4.078 -1.5282 -1.6419  0.8463
17917TIP3    H275167   4.883   5.845   3.930 -0.4835  1.8361  0.0897
17918TIP3   OH275168   1.054   0.397   0.219  0.2083 -0.2939  0.3409
17918TIP3    H175169   1.026   0.312   0.252  2.6767 -1.2184  0.3071
17918TIP3    H275170   1.063   0.385   0.124  0.4142  0.0359  0.3132
17919TIP3   OH275171   4.299   5.691  11.533  0.7118  0.4504  0.1401
17919TIP3    H175172   4.264   5.780  11.533 -0.2249  0.0988 -0.6901
17919TIP3    H275173   4.362   5.690  11.605 -0.2346  1.4133  1.0103
17920TIP3   OH275174   2.098   4.543  17.026  0.4523 -0.5310  0.0272
17920TIP3    H175175   2.094   4.616  16.964  0.1412 -0.0116  0.6501
17920TIP3    H275176   2.024   4.487  17.003 -0.4537  0.3372  0.7474
17921TIP3   OH275177   6.055   3.627  16.295 -0.5015  0.2910  0.5213
17921TIP3    H175178   6.110   3.582  16.359 -0.0700  0.3399  0.1897
17921TIP3    H275179   6.003   3.558  16.255  1.5340 -0.2470 -1.3667
17922TIP3   OH275180   4.891   0.419   1.331 -0.4732 -0.3040  0.1354
17922TIP3    H175181   4.973   0.400   1.376 -1.5013  1.3780  2.9987
17922TIP3    H275182   4.823   0.383   1.388 -1.7969 -0.6941 -1.6064
17923TIP3   OH275183   1.113   5.038  13.632 -0.3562  0.4374 -0.0235
17923TIP3    H175184   1.079   5.121  13.600  0.0755  1.2828  1.5968
17923TIP3    H275185   1.194   5.025  13.582  0.0971  1.5214  0.3842
17924TIP3   OH275186   5.008   1.686   1.550 -0.1992  0.8807  0.1466
17924TIP3    H175187   4.934   1.700   1.609 -0.9285 -0.1650 -0.4818
17924TIP3    H275188   5.067   1.627   1.597 -0.8912 -0.1395 -0.2426
17925TIP3   OH275189   3.803   0.206   2.756  0.4934  0.5973  0.0247
17925TIP3    H175190   3.763   0.172   2.837  0.0157 -1.6116 -1.0508
17925TIP3    H275191   3.729   0.212   2.695  1.2736 -0.5726 -1.0768
17926TIP3   OH275192   4.938   5.593  14.275  0.3077  0.1692  0.4625
17926TIP3    H175193   4.896   5.569  14.192  1.2545 -0.7808  0.2295
17926TIP3    H275194   4.867   5.599  14.338 -0.1850 -1.6354  0.1326
17927TIP3   OH275195   5.498   6.513   4.229 -0.3527 -0.1380 -0.1318
17927TIP3    H175196   5.554   6.579   4.188 -1.0469 -0.5169 -1.7839
17927TIP3    H275197   5.449   6.562   4.295  0.0582  0.7372 -0.4502
17928TIP3   OH275198   4.158   4.397  16.912  0.3898  0.1714 -0.2209
17928TIP3    H175199   4.086   4.343  16.880 -0.6431  1.9638 -1.0032
17928TIP3    H275200   4.149   4.394  17.007 -0.3644 -0.0893 -0.2926
17929TIP3   OH275201   3.289   3.167   2.030 -0.3166  0.0872  0.5240
17929TIP3    H175202   3.294   3.194   2.122 -0.1974 -0.1308  0.5813
17929TIP3    H275203   3.363   3.108   2.018 -0.1238  0.3942  0.1935
17930TIP3   OH275204   0.324   4.198   1.418  0.2020  0.0076  0.3315
17930TIP3    H175205   0.362   4.126   1.367 -0.1418  1.0035 -1.4116
17930TIP3    H275206   0.239   4.164   1.447  0.5236 -0.6777  0.5061
17931TIP3   OH275207   0.142   1.632   4.948 -0.3658  0.4879  0.4385
17931TIP3    H175208   0.204   1.669   4.885 -2.0062 -0.5884 -1.9411
17931TIP3    H275209   0.183   1.551   4.977 -0.8037 -0.4653 -1.4877
17932TIP3   OH275210   5.999   2.034   1.512 -0.8276  0.3706  0.4776
17932TIP3    H175211   5.983   2.028   1.606  1.1486  0.5025  0.8663
17932TIP3    H275212   5.985   1.945   1.479 -1.9069  0.4077  0.8159
17933TIP3   OH275213   0.168   4.482  16.484 -0.2176 -0.0703 -0.0644
17933TIP3    H175214   0.176   4.430  16.564  1.4381  1.2105  0.6563
17933TIP3    H275215   0.102   4.548  16.505  0.0375  0.1130  0.1640
17934TIP3   OH275216   4.278   0.078   0.202  0.8603  0.1064 -0.7554
17934TIP3    H175217   4.284   0.151   0.140  2.9320  1.1415  0.5716
17934TIP3    H275218   4.368   0.050   0.216  0.2572 -1.5452  0.1625
17935TIP3   OH275219   2.294   3.017   5.903 -0.5220  0.1111  0.8258
17935TIP3    H175220   2.313   3.098   5.949 -2.2066  0.9659  0.0991
17935TIP3    H275221   2.226   3.040   5.840  0.9255 -1.2506 -1.3499
17936TIP3   OH275222   1.632   3.012   0.628 -0.9551 -0.4574 -0.7465
17936TIP3    H175223   1.647   3.076   0.698  0.6848 -0.2049 -1.2959
17936TIP3    H275224   1.607   3.065   0.553  1.6293 -0.2680 -1.5594
17937TIP3   OH275225   5.972   5.477  14.231 -0.3474 -0.1746  0.4294
17937TIP3    H175226   5.898   5.418  14.217 -0.3040 -0.8737  2.7326
17937TIP3    H275227   5.933   5.555  14.269 -0.1085  0.2591 -0.2074
17938TIP3   OH275228   1.332   2.027   3.761 -0.2458  0.1604  0.7435
17938TIP3    H175229   1.290   1.963   3.703  0.6801  1.4653 -1.4841
17938TIP3    H275230   1.261   2.087   3.786 -0.3929  0.3747 -0.1694
17939TIP3   OH275231   0.338   5.573  14.401 -0.3934 -0.0686  0.9137
17939TIP3    H175232   0.430   5.598  14.392  0.0622 -1.3282  1.7216
17939TIP3    H275233   0.328   5.552  14.494 -1.4546 -0.1055  0.8071
17940TIP3   OH275234   6.193   2.987  15.234  0.1096 -0.8620 -0.2992
17940TIP3    H175235   6.254   2.913  15.229  0.4355 -0.5275 -1.9245
17940TIP3    H275236   6.245   3.058  15.272  0.4690 -0.8491 -0.8040
17941TIP3   OH275237   0.963   2.721  16.392 -0.1805  0.3036 -0.1132
17941TIP3    H175238   0.928   2.693  16.476  0.0602  1.2740  0.3360
17941TIP3    H275239   0.959   2.817  16.396  0.9157  0.3957 -0.7249
17942TIP3   OH275240   3.219   1.544   4.880  0.0101 -0.0857  0.1053
17942TIP3    H175241   3.187   1.624   4.839 -1.3736  0.6063  2.3759
17942TIP3    H275242   3.196   1.475   4.818  2.9280  1.2906 -2.8345
17943TIP3   OH275243   5.844   5.586  16.660  0.2608 -0.4541  0.2089
17943TIP3    H175244   5.908   5.606  16.728 -1.6048 -0.0012  1.9142
17943TIP3    H275245   5.765   5.559  16.708 -1.1080 -0.1903 -1.7783
17944TIP3   OH275246   5.370   3.412   4.668  0.5077 -0.2709 -0.2635
17944TIP3    H175247   5.314   3.382   4.739  0.6778  0.5200  0.2225
17944TIP3    H275248   5.314   3.467   4.614  0.2891 -1.1416 -0.9524
17945TIP3   OH275249   3.311   4.647  13.444  0.1432 -0.6468 -0.2757
17945TIP3    H175250   3.308   4.719  13.381  2.3747  0.3259  0.6437
17945TIP3    H275251   3.258   4.578  13.403 -0.2417  0.6943 -2.1969
17946TIP3   OH275252   5.440   2.872   2.918  0.3340 -0.0311 -0.4466
17946TIP3    H175253   5.406   2.803   2.975 -2.8319  1.3331 -0.4512
17946TIP3    H275254   5.372   2.939   2.919  3.0963  3.0310 -0.6471
17947TIP3   OH275255   5.434   0.824   4.454  0.0135  0.3703  0.1253
17947TIP3    H175256   5.379   0.863   4.387 -0.5323 -0.7185 -0.0881
17947TIP3    H275257   5.444   0.892   4.521 -0.0172  1.2233 -0.7130
17948TIP3   OH275258   0.624   5.027   0.282 -0.5172 -0.4410  0.0912
17948TIP3    H175259   0.621   4.965   0.209  1.4331 -0.9077  0.3541
17948TIP3    H275260   0.682   5.097   0.251 -1.0691  0.2320  0.5603
17949TIP3   OH275261   5.522   6.029  12.980 -0.1885  0.9913 -0.3766
17949TIP3    H175262   5.601   5.975  12.971 -0.4736 -0.0879  2.6269
17949TIP3    H275263   5.543   6.109  12.932  2.5885  0.5857 -0.0442
17950TIP3   OH275264   0.752   0.589   1.245  0.1856 -0.5842  0.2554
17950TIP3    H175265   0.813   0.603   1.172  0.4857  1.6718  0.8512
17950TIP3    H275266   0.665   0.591   1.203  0.2619  2.1536  0.0088
17951TIP3   OH275267   6.577   2.977  15.187 -0.3162  0.6637  0.5300
17951TIP3    H175268   6.658   2.929  15.205 -0.7969 -0.3061  0.2104
17951TIP3    H275269   6.522   2.962  15.264 -1.5072 -1.6220 -0.6489
17952TIP3   OH275270   0.520   0.506  15.470  0.3303  0.4107 -0.5930
17952TIP3    H175271   0.490   0.574  15.530 -1.3985 -2.0730  1.6050
17952TIP3    H275272   0.482   0.530  15.385 -1.9609  1.2072  0.5629
17953TIP3   OH275273   2.359   1.559   3.278  0.4468  0.1622 -0.1307
17953TIP3    H175274   2.387   1.620   3.210 -0.0556 -1.2628 -1.6907
17953TIP3    H275275   2.364   1.609   3.359 -1.6008  2.8131 -1.4949
17954TIP3   OH275276   6.236   3.711   2.973 -0.2228 -0.3592 -0.3726
17954TIP3    H175277   6.274   3.797   2.959 -0.4393 -0.4173 -1.3302
17954TIP3    H275278   6.259   3.661   2.895 -0.7882 -0.9268 -0.1872
17955TIP3   OH275279   1.274   1.340   1.408  0.1030 -0.3726 -0.0308
17955TIP3    H175280   1.232   1.265   1.367 -0.0735 -0.0022 -0.5483
17955TIP3    H275281   1.368   1.325   1.397  0.0652 -0.4496 -0.2618
17956TIP3   OH275282   6.135   3.575   6.168 -0.9076 -0.0399 -0.2118
17956TIP3    H175283   6.212   3.537   6.211 -0.9200 -1.5752 -1.4667
17956TIP3    H275284   6.084   3.613   6.240  0.0257 -0.8011  0.8906
17957TIP3   OH275285   1.519   4.289  11.471  0.5802  0.2369  0.4640
17957TIP3    H175286   1.564   4.330  11.545 -0.8040  1.6633  0.5599
17957TIP3    H275287   1.446   4.241  11.511 -0.3846  1.3051  0.0228
17958TIP3   OH275288   3.661   1.660   5.159 -0.1773  0.1240  0.2339
17958TIP3    H175289   3.594   1.728   5.158  0.6975  1.0033 -0.8683
17958TIP3    H275290   3.732   1.694   5.104  0.5286 -1.4392  0.1007
17959TIP3   OH275291   1.976   0.079  11.054  0.2300 -0.1711 -0.3660
17959TIP3    H175292   2.066   0.086  11.086 -0.0543 -1.2773  0.7580
17959TIP3    H275293   1.984   0.036  10.969  0.8535  1.1597 -1.0238
17960TIP3   OH275294   2.374   3.916   2.042 -0.1730 -0.2380 -0.8447
17960TIP3    H175295   2.309   3.956   2.099 -1.7249 -3.2514 -0.3163
17960TIP3    H275296   2.452   3.907   2.097 -0.5764 -0.1220 -0.2426
17961TIP3   OH275297   5.411   1.648  14.764  0.0172  0.4059  0.4614
17961TIP3    H175298   5.368   1.679  14.845  0.7652  0.5957  0.7923
17961TIP3    H275299   5.486   1.707  14.753  0.6139 -0.3822  0.2918
17962TIP3   OH275300   3.118   6.238   1.468 -0.0201  0.4348  0.8355
17962TIP3    H175301   3.195   6.278   1.508  0.5952 -0.8390  0.9740
17962TIP3    H275302   3.141   6.145   1.459 -1.2067  0.1913  0.0783
17963TIP3   OH275303   2.271   4.981   1.841 -0.1869 -0.5464 -0.1633
17963TIP3    H175304   2.182   5.014   1.842  0.3595  0.9862  0.2968
17963TIP3    H275305   2.303   4.998   1.753  0.0873  0.1840  0.0676
17964TIP3   OH275306   3.006   1.864  12.268 -0.3322  0.4791  0.2660
17964TIP3    H175307   2.915   1.892  12.274 -0.5247 -0.2246  0.7840
17964TIP3    H275308   3.006   1.775  12.302  0.2682 -0.1657 -1.3389
17965TIP3   OH275309   0.873   4.480   5.788  0.1078 -0.2654  0.5306
17965TIP3    H175310   0.929   4.473   5.711  0.4121 -0.6078  0.7825
17965TIP3    H275311   0.898   4.563   5.829  0.3507 -0.3628  0.5796
17966TIP3   OH275312   4.103   5.835  15.452  0.4799 -0.3303  0.4498
17966TIP3    H175313   4.182   5.782  15.448  1.4722  1.0558  0.7042
17966TIP3    H275314   4.099   5.865  15.543 -1.0206 -1.3340  0.7493
17967TIP3   OH275315   0.018   3.630  14.179 -0.8007  0.2261 -0.3833
17967TIP3    H175316   0.023   3.705  14.237  2.0190 -0.8532  0.9681
17967TIP3    H275317   0.100   3.631  14.130 -1.1309 -1.4226 -1.0601
17968TIP3   OH275318   1.929   5.169   5.514 -0.3845 -0.0449  0.1184
17968TIP3    H175319   1.865   5.240   5.512 -1.3648 -0.8938  0.8651
17968TIP3    H275320   2.005   5.207   5.558  0.2878  1.4555 -2.1510
17969TIP3   OH275321   2.383   0.916   1.845 -0.0728 -0.2903  0.0265
17969TIP3    H175322   2.314   0.963   1.798 -0.4129  0.4329  1.1827
17969TIP3    H275323   2.339   0.838   1.879  0.0414 -0.5451 -0.4030
17970TIP3   OH275324   6.610   5.309   1.782  0.6537  0.0820 -0.4494
17970TIP3    H175325   6.538   5.361   1.816 -0.1388  0.7349 -2.9132
17970TIP3    H275326   6.581   5.218   1.792  0.1548  0.2825 -0.0334
17971TIP3   OH275327   0.825   1.383   3.191  0.4044 -0.4982  0.0097
17971TIP3    H175328   0.913   1.406   3.161  0.0841 -2.1947 -2.5568
17971TIP3    H275329   0.769   1.451   3.154  0.4541 -0.2421  0.3957
17972TIP3   OH275330   3.086   0.829  15.022  0.4233 -0.0106 -0.3093
17972TIP3    H175331   3.099   0.872  15.106 -0.1700 -0.1070 -0.1639
17972TIP3    H275332   3.073   0.900  14.960  1.7323  0.0915 -0.4806
17973TIP3   OH275333   6.243   5.571  17.175 -0.2916  0.3738 -0.0997
17973TIP3    H175334   6.258   5.554  17.268  1.6859  0.1621 -0.4014
17973TIP3    H275335   6.311   5.634  17.152 -1.3367  1.1297 -1.2166
17974TIP3   OH275336   6.290   4.519  15.093  0.5398 -0.0477  0.5448
17974TIP3    H175337   6.359   4.527  15.159 -0.4315 -1.5919  1.8302
17974TIP3    H275338   6.212   4.556  15.134  0.0633 -0.4519  0.0255
17975TIP3   OH275339   6.665   3.978   6.432  0.6635 -0.3021  0.0319
17975TIP3    H175340   6.756   4.008   6.427  0.7087 -0.2154  1.1804
17975TIP3    H275341   6.668   3.898   6.484  0.0444 -0.1455  0.3178
17976TIP3   OH275342   0.030   3.588   3.398  0.5124 -0.4412 -0.2308
17976TIP3    H175343  -0.062   3.576   3.421 -0.2684  1.7905 -1.8397
17976TIP3    H275344   0.079   3.554   3.474 -1.6978  0.8686  1.8937
17977TIP3   OH275345   5.075   1.357  13.328  0.3231  0.2193 -0.2725
17977TIP3    H175346   5.115   1.381  13.412 -0.9953 -1.2646  0.8224
17977TIP3    H275347   5.139   1.386  13.263  1.3216  1.5452  1.2099
17978TIP3   OH275348   6.070   3.349   2.038 -0.4882  0.5094 -0.7657
17978TIP3    H175349   6.053   3.330   2.130  0.7887 -0.4971 -0.7049
17978TIP3    H275350   5.993   3.315   1.992 -0.9563  0.6664 -0.1188
17979TIP3   OH275351   3.189   1.355  12.117  0.5930  0.6927  0.1830
17979TIP3    H175352   3.144   1.436  12.143 -0.7560  0.0945 -0.1709
17979TIP3    H275353   3.140   1.325  12.040  2.3486  0.6130 -0.9550
17980TIP3   OH275354   5.043   5.786   3.107  0.0979 -0.3811  0.3046
17980TIP3    H175355   4.957   5.823   3.087  0.3068 -0.3083 -0.5014
17980TIP3    H275356   5.040   5.697   3.070  1.1971  0.4526 -1.9971
17981TIP3   OH275357   1.036   5.066  17.319  0.2410  0.5509 -0.3483
17981TIP3    H175358   0.978   5.123  17.370 -2.1867 -0.4738 -1.8063
17981TIP3    H275359   1.113   5.120  17.303 -1.3225  2.9384 -0.4245
17982TIP3   OH275360   4.001   4.303   0.594  0.5959 -0.2760 -0.3535
17982TIP3    H175361   3.966   4.247   0.525  1.1630 -2.8597  1.3146
17982TIP3    H275362   4.071   4.352   0.551  0.8248 -1.6673 -1.6874
17983TIP3   OH275363   5.017   0.153   3.901 -0.4489 -0.3239  0.1217
17983TIP3    H175364   4.978   0.126   3.984  0.7551 -0.9970  0.4788
17983TIP3    H275365   5.055   0.239   3.919  0.1196 -0.6257  0.3666
17984TIP3   OH275366   2.416   2.495  15.547  0.0734  0.5399 -0.2661
17984TIP3    H175367   2.345   2.553  15.576  0.6834  1.8754 -1.3588
17984TIP3    H275368   2.434   2.521  15.457  3.2170  1.5540  0.5402
17985TIP3   OH275369   0.067   0.331  17.227  0.2269 -0.0947 -0.1403
17985TIP3    H175370   0.104   0.418  17.213  1.5134 -0.6942 -0.5903
17985TIP3    H275371   0.138   0.271  17.204  0.1500 -1.2496  2.3788
17986TIP3   OH275372   1.712   3.501   1.537  0.0221 -0.3271  0.0779
17986TIP3    H175373   1.629   3.456   1.518  0.4521 -1.2316  0.2821
17986TIP3    H275374   1.700   3.537   1.624 -0.0158 -0.8227  0.2823
17987TIP3   OH275375   4.168   4.725   4.447  0.4233 -0.1897 -0.1920
17987TIP3    H175376   4.109   4.761   4.380  0.0121  0.9530  0.7493
17987TIP3    H275377   4.223   4.664   4.399 -0.5894 -0.2313 -1.3743
17988TIP3   OH275378   5.259   2.736  16.841 -0.4568 -0.5383  0.0220
17988TIP3    H175379   5.252   2.656  16.894  0.4395 -0.7591 -0.1811
17988TIP3    H275380   5.200   2.798  16.885  1.1443 -0.3258  2.0223
17989TIP3   OH275381   5.835   4.948  17.349  0.4682  0.0599  0.0622
17989TIP3    H175382   5.920   4.907  17.334 -0.0436 -1.4597  1.0597
17989TIP3    H275383   5.823   5.007  17.274  2.0759 -0.1957 -0.4392
17990TIP3   OH275384   2.760   1.573  14.747 -0.0175 -0.3332  0.1448
17990TIP3    H175385   2.779   1.484  14.776  1.6348  0.0079  0.2076
17990TIP3    H275386   2.740   1.563  14.654 -0.2704 -0.8285  0.2482
17991TIP3   OH275387   3.683   0.771  16.049  0.1652  0.3380  0.0292
17991TIP3    H175388   3.776   0.764  16.028 -0.1389  1.4292 -1.8301
17991TIP3    H275389   3.660   0.683  16.081  1.4885 -0.3940 -0.9095
17992TIP3   OH275390   4.044   5.719   3.696 -0.2704 -0.0815  0.2332
17992TIP3    H175391   4.118   5.773   3.668  0.5369 -0.9547  0.5973
17992TIP3    H275392   4.023   5.750   3.783  1.9971 -2.0299  1.6305
17993TIP3   OH275393   5.852   2.690   5.284  0.0962  0.5555 -0.1628
17993TIP3    H175394   5.822   2.745   5.356  1.6340  0.6206  0.4701
17993TIP3    H275395   5.862   2.603   5.322 -1.6322 -0.0422 -0.9831
17994TIP3   OH275396   6.356   2.524  14.549 -0.5247 -0.3966  0.0606
17994TIP3    H175397   6.403   2.476  14.617 -0.4609 -0.2196  0.1426
17994TIP3    H275398   6.363   2.616  14.576  1.8439 -0.0008 -1.5793
17995TIP3   OH275399   6.343   0.747   1.537  0.4532  0.1307  0.4446
17995TIP3    H175400   6.293   0.686   1.482  1.1212 -0.8444  0.8742
17995TIP3    H275401   6.418   0.695   1.567  0.2340  0.6882  2.0881
17996TIP3   OH275402   1.580   3.134  10.565 -0.4074  0.1267  0.7938
17996TIP3    H175403   1.570   3.042  10.590 -1.8774  0.4276  1.4290
17996TIP3    H275404   1.494   3.160  10.533  0.9501  0.2028 -3.3661
17997TIP3   OH275405   2.375   4.944  13.252 -0.7212 -0.1162 -0.0332
17997TIP3    H175406   2.312   5.000  13.206  0.5150  0.9593 -0.4781
17997TIP3    H275407   2.458   4.992  13.246 -0.2891 -0.4489  2.4317
17998TIP3   OH275408   5.687   4.587  13.756  0.6338 -0.3697  0.5608
17998TIP3    H175409   5.636   4.595  13.836  0.0250  4.0328 -0.0276
17998TIP3    H275410   5.778   4.596  13.784  0.5517 -0.5395  0.8838
17999TIP3   OH275411   4.497   6.735  13.159  0.1136  0.0193  0.0186
17999TIP3    H175412   4.557   6.714  13.087  1.6267  1.2200  0.8541
17999TIP3    H275413   4.503   6.830  13.169 -0.2072 -0.0869  1.5770
18000TIP3   OH275414   3.018   6.096   2.267  0.1761  0.0424  0.2633
18000TIP3    H175415   3.107   6.104   2.232  0.2827 -0.1977  0.4787
18000TIP3    H275416   3.025   6.032   2.338 -0.4066 -0.9334 -0.5317
18001TIP3   OH275417   1.557   6.690  11.570  0.7211 -0.1497 -0.4642
18001TIP3    H175418   1.549   6.743  11.491  1.4733 -0.3762 -0.7020
18001TIP3    H275419   1.611   6.742  11.629 -1.6093  0.9879  0.7825
18002TIP3   OH275420   4.609   6.078   3.214  0.5327  0.0201 -0.1408
18002TIP3    H175421   4.529   6.059   3.264  1.2012 -1.5733  0.3696
18002TIP3    H275422   4.657   6.141   3.269 -0.9405  2.1020 -1.0879
18003TIP3   OH275423   3.551   3.871  14.716 -0.2181  0.4258  0.1718
18003TIP3    H175424   3.562   3.929  14.792 -0.3969 -1.0994  1.4064
18003TIP3    H275425   3.456   3.861  14.707 -0.1814 -0.3438  0.5276
18004TIP3   OH275426   2.627   1.396  11.103  0.8020  0.4804 -0.2347
18004TIP3    H175427   2.628   1.444  11.020  0.2627  1.3502  0.2483
18004TIP3    H275428   2.717   1.404  11.136  0.8994  0.5353 -0.5102
18005TIP3   OH275429   0.010   2.645  13.889 -0.7055  0.5138 -0.7540
18005TIP3    H175430  -0.029   2.563  13.916  1.5304 -0.5532 -0.5171
18005TIP3    H275431   0.007   2.701  13.967  1.8766 -1.0403  0.6064
18006TIP3   OH275432   4.551   2.955  15.060  0.3901 -1.0752  0.9632
18006TIP3    H175433   4.586   3.005  15.134  0.8418  0.2000 -0.0745
18006TIP3    H275434   4.621   2.958  14.995  0.2043 -2.6398  0.6627
18007TIP3   OH275435   0.901   0.963   0.264 -0.0808  0.0186  0.2873
18007TIP3    H175436   0.879   0.884   0.313 -0.3732  0.5030  0.9558
18007TIP3    H275437   0.992   0.949   0.235  0.3743  0.0492  1.6433
18008TIP3   OH275438   2.354   3.399  15.599  0.0760  0.0662  0.0542
18008TIP3    H175439   2.410   3.427  15.671  1.2670 -0.0911 -0.7837
18008TIP3    H275440   2.372   3.462  15.529 -0.1757 -0.4858 -0.5109
18009TIP3   OH275441   5.807   1.276   2.996 -0.1592 -0.1291 -0.0479
18009TIP3    H175442   5.798   1.235   3.082  0.7727 -0.1938  0.0262
18009TIP3    H275443   5.847   1.362   3.015  2.5887 -1.1838 -0.6030
18010TIP3   OH275444   1.537   5.510   4.080 -0.5587  0.0347  0.1875
18010TIP3    H175445   1.617   5.555   4.051 -1.6646  1.0688 -1.3934
18010TIP3    H275446   1.522   5.542   4.169 -1.9006  3.8412 -1.2208
18011TIP3   OH275447   6.120   4.156   1.482  0.3745  0.7209 -0.0985
18011TIP3    H175448   6.026   4.148   1.498  0.3968  1.3860  0.3938
18011TIP3    H275449   6.134   4.108   1.400 -0.0751 -0.9711  0.7680
18012TIP3   OH275450   4.119   0.525   6.323  1.0769 -0.4500 -0.9632
18012TIP3    H175451   4.111   0.538   6.417 -0.4441 -2.6191 -0.7080
18012TIP3    H275452   4.183   0.454   6.314 -2.0656 -3.5263 -1.1339
18013TIP3   OH275453   1.671   1.336  11.674 -0.1505  0.2591  0.1495
18013TIP3    H175454   1.599   1.290  11.717  0.2053 -0.7123 -0.2688
18013TIP3    H275455   1.738   1.346  11.742 -0.0571 -0.2297  0.1297
18014TIP3   OH275456   0.888   0.973   2.003 -0.3008 -0.4498  0.4349
18014TIP3    H175457   0.884   0.903   1.938  0.0346  0.1784 -0.2765
18014TIP3    H275458   0.797   0.998   2.018 -0.3334  0.1340 -0.6192
18015TIP3   OH275459   1.860   2.980  12.440 -0.3673 -0.3354  0.1943
18015TIP3    H175460   1.867   3.072  12.465 -1.6125 -0.3275  0.5432
18015TIP3    H275461   1.927   2.936  12.493  1.7120  0.6139 -1.4883
18016TIP3   OH275462   2.824   5.889  16.500  0.1238 -0.1974  0.3106
18016TIP3    H175463   2.797   5.797  16.502 -1.4635  0.2500  1.7809
18016TIP3    H275464   2.898   5.891  16.439 -0.5099 -2.2453 -0.6026
18017TIP3   OH275465   5.695   1.513  15.998 -0.2456 -0.4413  0.1838
18017TIP3    H175466   5.746   1.467  16.064 -2.7611 -0.2402  2.4232
18017TIP3    H275467   5.669   1.445  15.935 -0.5128 -1.3157  1.2145
18018TIP3   OH275468   5.657   5.015  11.317  0.1216 -0.7223 -0.4562
18018TIP3    H175469   5.729   5.078  11.317 -1.1705  0.8438  0.5473
18018TIP3    H275470   5.669   4.965  11.236  2.7554 -1.0826  0.0562
18019TIP3   OH275471   4.728   3.003  13.655  0.1367 -0.3659 -0.0509
18019TIP3    H175472   4.658   3.040  13.602  0.2839 -0.5954 -0.4107
18019TIP3    H275473   4.726   2.909  13.636  0.8649 -0.3116 -0.4559
18020TIP3   OH275474   2.627   5.275   3.624 -0.7531  0.0128  0.2376
18020TIP3    H175475   2.703   5.295   3.678 -0.7413 -0.0404  0.2405
18020TIP3    H275476   2.563   5.239   3.685 -0.8456  0.2237  0.2653
18021TIP3   OH275477   5.668   4.163   4.134  0.6780  0.0379 -0.2349
18021TIP3    H175478   5.727   4.095   4.101  1.7502  0.6629  0.3169
18021TIP3    H275479   5.630   4.126   4.214 -0.2736 -0.6490 -0.9776
18022TIP3   OH275480   2.510   1.033  12.506 -0.2323  0.6878 -0.2289
18022TIP3    H175481   2.579   1.013  12.442 -0.7302  1.9854 -1.2256
18022TIP3    H275482   2.473   0.948  12.529  0.4327  0.1348 -1.1354
18023TIP3   OH275483   5.976   6.014  12.096 -0.1998  0.1173 -0.0371
18023TIP3    H175484   6.045   6.080  12.103  0.9329 -1.1603  1.6024
18023TIP3    H275485   5.896   6.064  12.081  0.8491  1.7385 -0.4436
18024TIP3   OH275486   0.739   5.115  11.748  0.1274 -1.5364 -0.0114
18024TIP3    H175487   0.791   5.058  11.804  1.9875  2.2063  2.4861
18024TIP3    H275488   0.797   5.137  11.676  1.6732  1.4256  1.9759
18025TIP3   OH275489   3.512   1.414   2.087  0.1232 -0.1710  0.2035
18025TIP3    H175490   3.417   1.418   2.086  0.1293  3.5019 -0.7084
18025TIP3    H275491   3.535   1.356   2.015 -1.4436  0.0405 -0.5067
18026TIP3   OH275492   2.228   4.381  15.005 -0.3252  0.3110 -0.5334
18026TIP3    H175493   2.154   4.385  14.945 -0.5948  0.7191 -0.1852
18026TIP3    H275494   2.303   4.361  14.949 -0.8334 -1.0470 -0.7622
18027TIP3   OH275495   2.635   3.395   2.291 -0.3165  0.4931  0.1087
18027TIP3    H175496   2.728   3.374   2.281 -0.4746 -0.0114 -0.3882
18027TIP3    H275497   2.601   3.324   2.345 -0.5992  0.1591 -0.5013
18028TIP3   OH275498   0.540   5.172   3.917  0.3556 -0.0783  0.5194
18028TIP3    H175499   0.526   5.200   4.008 -2.5012  1.0720 -0.1921
18028TIP3    H275500   0.499   5.086   3.912  2.3365 -1.0950  0.7572
18029TIP3   OH275501   6.174   5.194   4.246 -0.1082 -0.1147  0.2636
18029TIP3    H175502   6.222   5.170   4.325  0.7279 -0.6671 -0.3898
18029TIP3    H275503   6.114   5.121   4.231 -0.3520  0.0467  0.4585
18030TIP3   OH275504   2.037   4.769   3.469  0.5522  0.3983 -0.2878
18030TIP3    H175505   2.100   4.784   3.399  2.1928 -1.7747  0.6288
18030TIP3    H275506   2.031   4.673   3.476  0.5944  0.5229  2.6378
18031TIP3   OH275507   3.559   2.406   2.095  0.2746  0.1853 -0.1037
18031TIP3    H175508   3.475   2.447   2.117 -0.0597  1.6338 -3.5213
18031TIP3    H275509   3.537   2.316   2.073 -0.4217  0.5742 -1.0422
18032TIP3   OH275510   4.816   1.393   1.221  0.0776 -0.0992 -0.4497
18032TIP3    H175511   4.832   1.487   1.224 -1.1215  0.1089  0.1241
18032TIP3    H275512   4.839   1.362   1.309  0.6912 -0.3885 -0.7078
18033TIP3   OH275513   0.414   3.048  12.098 -0.0270  0.3729  0.1155
18033TIP3    H175514   0.459   3.055  12.013 -0.5155  1.4400 -0.0774
18033TIP3    H275515   0.418   3.137  12.134  0.1738 -0.0743  1.2189
18034TIP3   OH275516   2.112   2.419   1.709 -0.1400 -0.3801 -0.8077
18034TIP3    H175517   2.186   2.375   1.667  1.0693  0.5710  0.2143
18034TIP3    H275518   2.072   2.353   1.765  0.3522 -0.7320 -0.8704
18035TIP3   OH275519   1.836   0.945   4.448  0.1934 -0.3395  0.2248
18035TIP3    H175520   1.790   0.887   4.509 -0.5364 -0.4847 -0.4440
18035TIP3    H275521   1.928   0.940   4.474 -0.1473 -0.1341  1.5136
18036TIP3   OH275522   6.105   1.991   6.786 -0.1658  0.0923 -0.2062
18036TIP3    H175523   6.174   2.046   6.748  1.0930 -1.2950 -0.0037
18036TIP3    H275524   6.082   2.035   6.868  1.9332 -0.4456  0.7351
18037TIP3   OH275525   5.762   4.869   3.255  0.2923 -0.5290  0.6596
18037TIP3    H175526   5.712   4.794   3.289 -0.3075 -1.2492 -1.6095
18037TIP3    H275527   5.825   4.830   3.195  0.5079  0.7350  0.0341
18038TIP3   OH275528   0.694   3.168  16.280  0.6913  0.4678 -0.8556
18038TIP3    H175529   0.629   3.102  16.255  1.2668  0.0747 -1.3493
18038TIP3    H275530   0.642   3.245  16.301  0.0663  0.1971 -1.3472
18039TIP3   OH275531   5.387   2.239   5.941  0.5360 -0.4649  0.3749
18039TIP3    H175532   5.354   2.280   5.861 -0.5937  0.9447  1.4928
18039TIP3    H275533   5.465   2.192   5.914 -1.2598 -2.3094 -2.0820
18040TIP3   OH275534   3.579   5.312   2.006 -0.6252  0.5755  0.5931
18040TIP3    H175535   3.499   5.316   1.953  0.5813  1.2418 -1.2901
18040TIP3    H275536   3.598   5.218   2.014 -0.8535  0.4627 -0.1272
18041TIP3   OH275537   0.170   0.821   2.505 -0.5780 -0.8470  0.8230
18041TIP3    H175538   0.100   0.875   2.543 -0.1104  1.0669 -0.8484
18041TIP3    H275539   0.247   0.839   2.559 -0.2230  0.8926 -0.1817
18042TIP3   OH275540   6.197   2.395  16.438  0.4640  0.3331  0.2952
18042TIP3    H175541   6.138   2.321  16.425  1.3037 -0.3772  0.4774
18042TIP3    H275542   6.138   2.471  16.445 -0.3352  0.3319 -3.8218
18043TIP3   OH275543   5.405   5.949   5.946  0.1553 -0.0310 -0.1444
18043TIP3    H175544   5.495   5.965   5.976  0.9127 -1.6047 -1.4117
18043TIP3    H275545   5.410   5.960   5.851 -1.2216  0.7439 -0.1413
18044TIP3   OH275546   5.448   5.577  15.652 -0.0943  0.2253 -0.1416
18044TIP3    H175547   5.515   5.515  15.680  0.8037  0.8884 -0.7852
18044TIP3    H275548   5.377   5.565  15.715  0.5060 -0.6734  0.3914
18045TIP3   OH275549   4.348   2.173   4.455 -0.4164 -0.2056  0.2026
18045TIP3    H175550   4.322   2.100   4.398  0.4420  0.1806 -0.7095
18045TIP3    H275551   4.381   2.240   4.395  0.3766  0.2680  1.1473
18046TIP3   OH275552   4.287   4.116   0.888  0.4163  0.7179  0.0909
18046TIP3    H175553   4.329   4.189   0.933 -0.0594  1.7844 -1.1391
18046TIP3    H275554   4.359   4.071   0.843  0.4675  1.6980 -0.8556
18047TIP3   OH275555   2.591   6.224   1.390  0.2168 -0.0222 -0.2942
18047TIP3    H175556   2.674   6.196   1.427  1.2445  3.5826  0.5237
18047TIP3    H275557   2.536   6.246   1.465  0.2507  1.9228 -0.7703
18048TIP3   OH275558   5.338   5.096   5.429  0.1711  0.1010  0.1548
18048TIP3    H175559   5.418   5.125   5.386  0.9193 -0.3723  1.1669
18048TIP3    H275560   5.309   5.171   5.481 -0.1695  0.3379 -0.3654
18049TIP3   OH275561   3.859   3.763   1.372 -0.1464 -0.3133  0.0789
18049TIP3    H175562   3.781   3.805   1.409 -1.0735 -1.9066  0.0092
18049TIP3    H275563   3.837   3.749   1.280  1.9890  3.2650 -1.1926
18050TIP3   OH275564   2.110   1.233  12.650  0.8073  0.1126 -0.2344
18050TIP3    H175565   2.048   1.271  12.714  1.9112  2.1331 -0.2728
18050TIP3    H275566   2.054   1.200  12.580 -0.4638 -2.3759  1.7845
18051TIP3   OH275567   2.742   2.576   0.739  0.2589  0.0665 -0.1762
18051TIP3    H175568   2.706   2.489   0.756  0.8546 -0.2526 -0.5134
18051TIP3    H275569   2.759   2.613   0.826 -1.7144  0.5983  0.0217
18052TIP3   OH275570   6.565   4.833  15.170  0.0098  0.6545  0.3690
18052TIP3    H175571   6.611   4.751  15.188 -1.5998 -0.5100 -0.4961
18052TIP3    H275572   6.500   4.840  15.240 -1.4015 -0.0797 -0.8063
18053TIP3   OH275573   4.349   4.841   0.300 -0.5907  0.5474  0.2981
18053TIP3    H175574   4.286   4.769   0.291 -0.0109  0.2576 -2.2125
18053TIP3    H275575   4.434   4.797   0.306 -0.4419  0.9884  1.7571
18054TIP3   OH275576   0.407   6.617   1.799  0.0250  0.2444  0.4827
18054TIP3    H175577   0.432   6.645   1.711 -1.1750  0.8859  0.3248
18054TIP3    H275578   0.454   6.676   1.858  0.9214 -0.2630  0.2851
18055TIP3   OH275579   6.446   0.108   4.803 -0.6437  0.0520  0.0982
18055TIP3    H175580   6.452   0.013   4.793  1.7423  0.2512 -1.0415
18055TIP3    H275581   6.523   0.132   4.855 -1.8632  1.2590  1.4120
18056TIP3   OH275582   4.346   4.222   5.988  0.5609  0.6573 -0.5697
18056TIP3    H175583   4.313   4.143   5.946  1.2520  0.3598 -0.5714
18056TIP3    H275584   4.349   4.201   6.081 -0.4621  1.1316 -0.4129
18057TIP3   OH275585   5.945   4.919   5.741 -0.2497 -0.0003  0.0192
18057TIP3    H175586   5.950   4.883   5.652 -0.5404  1.0070 -0.4277
18057TIP3    H275587   6.026   4.891   5.783 -0.8015 -1.7684 -0.0540
18058TIP3   OH275588   0.968   3.244   4.724 -0.1277  0.0656 -0.2838
18058TIP3    H175589   1.037   3.260   4.789  0.0008  0.3318 -0.4819
18058TIP3    H275590   1.003   3.174   4.669  0.3860  0.8179 -0.9437
18059TIP3   OH275591   2.637   4.987  13.341  0.7953 -0.3456  0.6822
18059TIP3    H175592   2.727   4.965  13.318  0.5651 -1.0933  0.4310
18059TIP3    H275593   2.617   4.930  13.415  0.3166 -0.6962  0.2968
18060TIP3   OH275594   5.472   6.005   2.490  0.0581 -0.5972  0.1496
18060TIP3    H175595   5.434   6.006   2.577 -0.1731 -0.4280  0.0463
18060TIP3    H275596   5.452   5.918   2.456 -1.8155  0.0702 -0.5961
18061TIP3   OH275597   5.616   0.689  16.670  0.1749 -0.0106 -0.1966
18061TIP3    H175598   5.599   0.607  16.716  3.1965 -1.4549 -1.3755
18061TIP3    H275599   5.625   0.754  16.739 -1.0988 -0.8834  0.8425
18062TIP3   OH275600   4.123   2.002  15.601  0.3251  0.7603 -0.2589
18062TIP3    H175601   4.058   1.933  15.594  0.4134  0.7566 -1.1070
18062TIP3    H275602   4.207   1.957  15.600  0.4768  0.9511 -2.8638
18063TIP3   OH275603   1.036   0.592  16.008  0.5756 -0.2940 -0.0962
18063TIP3    H175604   1.094   0.660  16.042  0.0027 -0.3797  1.0997
18063TIP3    H275605   1.095   0.531  15.963  1.2673  0.2203  0.0906
18064TIP3   OH275606   1.421   3.151  13.697 -0.4560 -0.0975 -0.0529
18064TIP3    H175607   1.500   3.100  13.717  0.4236  0.7488 -1.2305
18064TIP3    H275608   1.435   3.234  13.741 -0.6377  0.0912 -0.3495
18065TIP3   OH275609   0.707   1.619   3.455  0.0038 -0.0195  0.2582
18065TIP3    H175610   0.757   1.538   3.466 -1.7843 -1.3337 -0.6031
18065TIP3    H275611   0.769   1.689   3.475  2.4546 -1.4739 -1.5778
18066TIP3   OH275612   0.257   0.105  17.191  0.7899  0.3020 -0.0904
18066TIP3    H175613   0.251   0.027  17.246  1.0259  0.0601 -0.4054
18066TIP3    H275614   0.328   0.156  17.230  0.6145  0.3775  0.1350
18067TIP3   OH275615   2.966   3.310  15.254 -0.1519  0.0694 -0.1274
18067TIP3    H175616   2.874   3.308  15.280 -0.8703 -0.7225 -2.4946
18067TIP3    H275617   2.965   3.343  15.164  1.9444  0.4535 -0.0607
18068TIP3   OH275618   5.860   3.274   2.537  0.2060 -0.0260 -0.0328
18068TIP3    H175619   5.793   3.221   2.494 -0.3993  0.6700  0.0294
18068TIP3    H275620   5.923   3.210   2.571 -0.0939 -0.6579 -0.6373
18069TIP3   OH275621   4.091   4.993  12.982  0.2102 -0.4932  0.0278
18069TIP3    H175622   4.055   4.922  13.035  0.4433 -0.1096  0.7053
18069TIP3    H275623   4.109   5.063  13.044  0.9449 -0.2162 -0.4887
18070TIP3   OH275624   3.020   5.975   3.068  0.2196 -0.3295 -0.3930
18070TIP3    H175625   2.980   5.903   3.116  0.9687 -1.4654 -1.4093
18070TIP3    H275626   2.992   5.963   2.977  2.3886 -0.8826 -1.0509
18071TIP3   OH275627   5.377   4.329  13.865  0.8234  0.3634  0.0147
18071TIP3    H175628   5.419   4.412  13.890 -0.5886  1.1884 -0.2354
18071TIP3    H275629   5.387   4.325  13.770 -0.6605  1.1740 -0.2057
18072TIP3   OH275630   3.561   1.504   2.919  0.3185  0.2113  0.2631
18072TIP3    H175631   3.521   1.462   2.843  1.8707  1.7729 -1.4924
18072TIP3    H275632   3.513   1.586   2.930  0.9661  0.6165  0.1209
18073TIP3   OH275633   1.266   1.400   4.403  0.1664  0.6347  0.7919
18073TIP3    H175634   1.297   1.318   4.364 -1.7030 -0.9480  2.4121
18073TIP3    H275635   1.322   1.412   4.480  1.2602  1.6051 -0.1267
18074TIP3   OH275636   5.148   5.139  14.422  0.0562 -0.2986  0.4318
18074TIP3    H175637   5.101   5.192  14.486 -1.1663 -1.3187  0.4080
18074TIP3    H275638   5.202   5.079  14.475  0.9086  0.4655  0.4613
18075TIP3   OH275639   2.059   0.950   2.767 -0.7909 -0.5700 -0.0159
18075TIP3    H175640   1.969   0.978   2.784 -0.2042 -0.1184  2.8419
18075TIP3    H275641   2.110   1.030   2.766 -0.1879 -0.9460  0.0752
18076TIP3   OH275642   5.200   2.553   3.535  0.1603 -0.3408  0.3257
18076TIP3    H175643   5.117   2.506   3.532  0.1315 -0.2406 -0.4673
18076TIP3    H275644   5.186   2.632   3.483  0.7465 -0.3118  0.2008
18077TIP3   OH275645   1.467   4.500   0.309 -0.4443 -0.3714  0.5587
18077TIP3    H175646   1.475   4.473   0.217 -1.8838 -0.5049  0.4458
18077TIP3    H275647   1.548   4.471   0.350  0.9013  1.0183 -0.9739
18078TIP3   OH275648   5.736   0.260   0.819 -0.3556  0.1853 -0.6713
18078TIP3    H175649   5.645   0.279   0.798 -1.0787 -1.0923  1.0516
18078TIP3    H275650   5.740   0.260   0.915  0.8825 -2.0684 -0.6336
18079TIP3   OH275651   5.152   5.136   5.805  0.4841  0.2195 -0.0592
18079TIP3    H175652   5.247   5.145   5.809  0.5849 -0.8532  0.3398
18079TIP3    H275653   5.137   5.043   5.789 -0.5164  0.1351  1.2214
18080TIP3   OH275654   0.465   5.324  12.394  0.3663  0.0906  0.0819
18080TIP3    H175655   0.483   5.347  12.303  0.4096 -0.0710  0.0498
18080TIP3    H275656   0.430   5.235  12.390  0.3541  0.0883  0.2226
18081TIP3   OH275657   1.877   4.823  14.335 -0.4080 -0.1091  0.2997
18081TIP3    H175658   1.883   4.887  14.405 -0.3290  0.4018 -0.1676
18081TIP3    H275659   1.946   4.847  14.273  0.4814 -1.4129  0.7312
18082TIP3   OH275660   5.043   3.590  13.750 -0.4454  0.1449 -0.3826
18082TIP3    H175661   5.094   3.509  13.741 -0.8411 -0.2291  0.6021
18082TIP3    H275662   5.068   3.642  13.674 -0.3075 -0.9691 -1.1312
18083TIP3   OH275663   2.332   6.446  14.099 -0.7206  0.2794 -0.6890
18083TIP3    H175664   2.249   6.473  14.138 -0.6606  1.4757 -1.3555
18083TIP3    H275665   2.343   6.355  14.127 -0.7529  0.9859  1.9202
18084TIP3   OH275666   0.948   3.153  14.932  0.0308 -0.4146 -0.0400
18084TIP3    H175667   0.948   3.173  14.838  0.4526 -0.4456 -0.0497
18084TIP3    H275668   1.038   3.168  14.959 -0.1895  0.0251  0.4606
18085TIP3   OH275669   3.657   1.721  16.946 -0.3554  0.3468  0.5008
18085TIP3    H175670   3.639   1.693  17.036 -0.0592 -0.7716  0.2251
18085TIP3    H275671   3.739   1.770  16.952 -1.6934  2.6518  1.2444
18086TIP3   OH275672   1.208   5.571   4.232  0.0179  0.1094  0.5675
18086TIP3    H175673   1.188   5.656   4.193  0.3604 -0.5658 -1.1887
18086TIP3    H275674   1.153   5.509   4.184  0.6568 -0.8049  0.9870
18087TIP3   OH275675   1.669   1.772  16.595  0.1678 -0.6958  1.0738
18087TIP3    H175676   1.656   1.726  16.678 -1.6712  0.9549  1.7881
18087TIP3    H275677   1.591   1.752  16.544  0.7554 -0.7762  0.1833
18088TIP3   OH275678   4.168   5.928   3.318  0.3220 -0.6663  0.1867
18088TIP3    H175679   4.137   5.981   3.244  0.0800 -0.8809  0.1319
18088TIP3    H275680   4.127   5.842   3.304  0.7787 -0.8967  0.2237
18089TIP3   OH275681   2.731   2.347  13.585 -0.3493  0.3129 -0.6579
18089TIP3    H175682   2.748   2.276  13.647  1.9858  0.3113 -1.2187
18089TIP3    H275683   2.676   2.409  13.634 -0.4036 -0.7359  0.6476
18090TIP3   OH275684   1.474   4.251   0.999 -0.3258  0.3283  0.1175
18090TIP3    H175685   1.494   4.277   1.089 -0.1489 -1.4163  0.6160
18090TIP3    H275686   1.381   4.228   1.001 -0.6555  1.5623 -0.4805
18091TIP3   OH275687   5.261   1.817  10.909 -0.3120 -0.1449 -0.3911
18091TIP3    H175688   5.240   1.821  11.003  1.6577 -0.2794  0.0896
18091TIP3    H275689   5.228   1.900  10.874 -2.3113 -0.6781  0.1107
18092TIP3   OH275690   5.433   4.663   0.940 -0.3376 -0.1851  0.0144
18092TIP3    H175691   5.404   4.705   0.859  0.9436  2.0185  0.6004
18092TIP3    H275692   5.461   4.736   0.996 -0.6316 -1.6700  2.2268
18093TIP3   OH275693   4.361   2.744   1.771  0.2137  0.0247 -0.0777
18093TIP3    H175694   4.269   2.744   1.798  0.4824 -0.1927  0.8594
18093TIP3    H275695   4.360   2.784   1.683 -0.8131 -0.3363 -0.2428
18094TIP3   OH275696   0.933   2.932  11.435 -0.2142 -0.2151 -0.1304
18094TIP3    H175697   0.982   3.014  11.431  1.1163 -1.0172 -3.1588
18094TIP3    H275698   0.996   2.864  11.410 -0.7950 -2.5638  3.8567
18095TIP3   OH275699   4.194   3.476   5.967  0.3773  0.2605  0.5826
18095TIP3    H175700   4.178   3.569   5.984  1.7574  0.1425  3.1030
18095TIP3    H275701   4.234   3.474   5.880  0.4843  2.0607  0.5496
18096TIP3   OH275702   0.700   0.373   6.013  0.4259 -0.3567 -0.0574
18096TIP3    H175703   0.654   0.439   6.065  0.9440  0.1032 -0.1861
18096TIP3    H275704   0.647   0.294   6.024 -0.3228  0.1322 -0.0939
18097TIP3   OH275705   2.642   4.633   2.477 -0.1263  0.3976 -0.5980
18097TIP3    H175706   2.665   4.582   2.399 -0.5541  1.8152 -1.6978
18097TIP3    H275707   2.725   4.672   2.505 -0.3781  2.0914 -2.0303
18098TIP3   OH275708   6.433   4.710   4.963  0.0687 -0.2068  0.1162
18098TIP3    H175709   6.365   4.777   4.971  0.1588  0.1408 -1.7071
18098TIP3    H275710   6.457   4.710   4.871  1.7714 -1.1128  0.5080
18099TIP3   OH275711   5.343   1.750   0.309 -0.3688  0.0221  0.1042
18099TIP3    H175712   5.367   1.657   0.318 -1.1915 -0.0732  1.5712
18099TIP3    H275713   5.258   1.748   0.266 -0.2578  0.1132 -0.1203
18100TIP3   OH275714   3.407   6.448   0.118 -0.3695 -0.2587 -0.6380
18100TIP3    H175715   3.399   6.542   0.133 -1.6865  0.0421 -2.8637
18100TIP3    H275716   3.431   6.440   0.026  1.0671 -2.0880 -0.1548
18101TIP3   OH275717   0.405   2.544  11.344  0.6231 -0.0899  0.0772
18101TIP3    H175718   0.347   2.468  11.335  0.5337 -0.3914  2.6062
18101TIP3    H275719   0.387   2.596  11.266 -1.7118 -1.0909 -0.1517
18102TIP3   OH275720   0.336   4.258   5.646  0.0787  0.3536 -0.1231
18102TIP3    H175721   0.373   4.186   5.697  1.1437 -0.2894 -1.7398
18102TIP3    H275722   0.246   4.268   5.680  0.8715  0.3036  2.1840
18103TIP3   OH275723   2.513   3.521   4.046  0.0778  0.1806  0.6593
18103TIP3    H175724   2.602   3.546   4.071  0.3464  0.1896 -0.2658
18103TIP3    H275725   2.523   3.434   4.008 -0.4672 -0.2452  1.4836
18104TIP3   OH275726   0.853   4.648   5.199 -0.4178 -0.1382  0.1860
18104TIP3    H175727   0.814   4.718   5.253  1.0031  0.8874 -0.0626
18104TIP3    H275728   0.901   4.594   5.260 -2.7819 -1.9161  0.6282
18105TIP3   OH275729   0.480   5.317   5.153  0.1898 -0.4629 -0.2971
18105TIP3    H175730   0.505   5.367   5.230 -0.9545  0.5257 -0.5395
18105TIP3    H275731   0.402   5.361   5.119  0.1112 -1.4349 -1.4781
18106TIP3   OH275732   4.099   1.517  14.304 -0.1477 -0.1251 -0.3554
18106TIP3    H175733   4.188   1.528  14.337  0.6562 -0.4645 -2.2989
18106TIP3    H275734   4.051   1.593  14.338  0.0722 -1.3540  3.0854
18107TIP3   OH275735   6.215   0.714  14.073 -0.7330  0.0991  0.0378
18107TIP3    H175736   6.308   0.693  14.065 -1.1908 -1.4846 -1.7494
18107TIP3    H275737   6.185   0.659  14.146 -0.6006 -0.6950 -0.4915
18108TIP3   OH275738   3.472   0.972   2.992  0.0454 -0.4026  0.6478
18108TIP3    H175739   3.517   0.910   2.935 -0.1660  0.8266 -0.9340
18108TIP3    H275740   3.380   0.966   2.965 -0.1242 -0.1260  1.1647
18109TIP3   OH275741   4.034   2.571  15.265  0.1246 -0.0354 -0.3520
18109TIP3    H175742   3.956   2.550  15.214  0.7480 -0.8770 -0.9891
18109TIP3    H275743   4.006   2.565  15.356 -0.7054  0.3054 -0.5713
18110TIP3   OH275744   1.002   3.696  15.405 -0.7256  0.2213 -0.4178
18110TIP3    H175745   1.033   3.655  15.485 -0.8578  0.1551 -0.4010
18110TIP3    H275746   1.067   3.671  15.339  0.6020  2.0549  0.1037
18111TIP3   OH275747   6.584   2.912  14.099  0.7585  0.4734 -0.0698
18111TIP3    H175748   6.675   2.938  14.089  0.6258  1.2590  0.6079
18111TIP3    H275749   6.545   2.982  14.152 -0.0275 -0.2818  0.3814
18112TIP3   OH275750   0.785   6.653   1.765  0.3596  0.2939  0.6069
18112TIP3    H175751   0.757   6.562   1.752  2.1159 -0.2319  0.3022
18112TIP3    H275752   0.831   6.676   1.685  1.0828  0.9991  1.2035
18113TIP3   OH275753   0.430   1.490   4.710  0.1391 -0.3520  0.4137
18113TIP3    H175754   0.480   1.500   4.791  1.4318  1.0591 -0.4908
18113TIP3    H275755   0.356   1.549   4.721  0.5900  0.2328  0.3897
18114TIP3   OH275756   6.534   1.441  12.892  0.2980 -0.0480 -0.4381
18114TIP3    H175757   6.588   1.394  12.957 -0.9848  0.4739  1.0670
18114TIP3    H275758   6.598   1.475  12.829  1.5585 -0.9400  0.2940
18115TIP3   OH275759   1.636   6.175   6.016 -0.1670 -0.0429 -0.0517
18115TIP3    H175760   1.545   6.155   6.039 -0.8372  0.0619 -2.3329
18115TIP3    H275761   1.675   6.207   6.097 -1.3105 -2.8416  1.7252
18116TIP3   OH275762   1.058   2.899   1.214 -0.2719 -0.3779 -0.3009
18116TIP3    H175763   1.019   2.953   1.145  0.5810  0.5275 -0.0884
18116TIP3    H275764   1.088   2.961   1.280 -1.5281 -1.2690  1.1566
18117TIP3   OH275765   0.434   6.114   2.093  0.3796  0.2579 -0.0029
18117TIP3    H175766   0.480   6.115   2.009  0.2485  0.2685 -0.0750
18117TIP3    H275767   0.460   6.030   2.132 -0.1545 -0.0958 -0.3907
18118TIP3   OH275768   1.695   3.821  10.952  0.0619 -0.3528  0.6202
18118TIP3    H175769   1.717   3.744  10.901  0.3731 -1.3083  2.1325
18118TIP3    H275770   1.772   3.878  10.945  1.4165 -1.8227  2.4378
18119TIP3   OH275771   4.581   0.195  12.217 -0.4828  0.4902  0.1537
18119TIP3    H175772   4.489   0.169  12.225 -0.1283 -1.2738 -1.0039
18119TIP3    H275773   4.629   0.125  12.262  0.2650  1.9400  1.6787
18120TIP3   OH275774   4.252   0.930  12.443  0.1925 -0.0349  0.1879
18120TIP3    H175775   4.343   0.921  12.414  0.3356  1.1768  0.2077
18120TIP3    H275776   4.219   0.840  12.449  1.8403 -0.5797  1.6881
18121TIP3   OH275777   4.748   5.339  14.651  0.0340  0.0724  0.5019
18121TIP3    H175778   4.665   5.346  14.605  0.2415  1.1665  0.2474
18121TIP3    H275779   4.727   5.365  14.741  0.1638  0.7711  0.3400
18122TIP3   OH275780   4.088   1.363  15.313  0.2997 -0.1002 -0.1529
18122TIP3    H175781   4.169   1.397  15.351 -0.2415  2.2896 -0.9743
18122TIP3    H275782   4.084   1.402  15.225 -1.2417 -0.9704 -0.5144
18123TIP3   OH275783   6.628   1.027  16.852  0.4269 -0.4059  0.2181
18123TIP3    H175784   6.551   1.014  16.906 -0.1687  1.4467 -0.1363
18123TIP3    H275785   6.597   1.015  16.762  0.5008  0.5314  0.0606
18124TIP3   OH275786   5.004   0.223   0.477  0.3214 -0.2630 -0.2599
18124TIP3    H175787   5.070   0.182   0.422 -2.3490 -0.9022 -3.2573
18124TIP3    H275788   4.967   0.152   0.529 -0.5479 -0.6693 -1.3999
18125TIP3   OH275789   3.470   6.444   6.374  0.7548  0.5215 -0.9681
18125TIP3    H175790   3.522   6.454   6.454 -0.0290 -2.1428 -0.0379
18125TIP3    H275791   3.534   6.431   6.305  1.4671 -2.1071  0.0651
18126TIP3   OH275792   0.662   4.320   1.448 -0.0460  0.4145 -0.1485
18126TIP3    H175793   0.608   4.394   1.420 -0.5732 -0.1100 -0.5491
18126TIP3    H275794   0.703   4.289   1.367  0.6339  0.6249  0.1095
18127TIP3   OH275795   6.227   3.862  13.119 -0.0167  0.3717  0.3022
18127TIP3    H175796   6.212   3.942  13.169  1.0919  2.0056 -1.8369
18127TIP3    H275797   6.304   3.881  13.065  0.6178 -2.3553  0.1006
18128TIP3   OH275798   4.622   1.361  10.985  0.0681  0.2315 -0.0283
18128TIP3    H175799   4.555   1.417  10.944 -0.6855 -0.0742  0.7743
18128TIP3    H275800   4.705   1.399  10.956 -0.3564  2.8700  1.8485
18129TIP3   OH275801   0.304   0.401   0.310  0.0294  0.0263  0.0455
18129TIP3    H175802   0.212   0.407   0.287  0.3612  0.9737 -1.1009
18129TIP3    H275803   0.348   0.462   0.251  1.6090 -1.6554 -0.6063
18130TIP3   OH275804   0.796   2.520   0.127 -0.1986 -0.2106  0.1646
18130TIP3    H175805   0.780   2.459   0.199 -0.9232  0.5584  0.6609
18130TIP3    H275806   0.867   2.576   0.159 -2.4788  2.0759  1.5570
18131TIP3   OH275807   1.906   6.669  11.958  0.0288  0.3279  0.1365
18131TIP3    H175808   1.961   6.603  11.915  1.8156  3.4611 -2.8611
18131TIP3    H275809   1.965   6.715  12.018 -0.0937  1.6459 -0.7148
18132TIP3   OH275810   6.577   4.750  13.894 -0.0597  0.3284 -0.1115
18132TIP3    H175811   6.650   4.697  13.860 -0.0348  0.9545 -1.0564
18132TIP3    H275812   6.590   4.837  13.856  1.0315  1.6525  2.9215
18133TIP3   OH275813   2.472   0.960   4.038  0.3459  0.0509  0.0623
18133TIP3    H175814   2.458   1.036   3.981 -0.8990 -0.7907 -0.8130
18133TIP3    H275815   2.391   0.953   4.089 -0.4540 -1.8576 -1.3509
18134TIP3   OH275816   3.828   3.761   0.868 -0.0329  0.3539  0.1330
18134TIP3    H175817   3.765   3.757   0.796  1.3785  0.3749 -1.1477
18134TIP3    H275818   3.875   3.844   0.855 -0.0453  0.5706  1.3443
18135TIP3   OH275819   0.230   0.828  14.649 -0.4117 -0.0982  0.1409
18135TIP3    H175820   0.304   0.808  14.707  0.6154  0.8522 -0.8007
18135TIP3    H275821   0.200   0.743  14.619 -1.0310 -0.6347  2.0968
18136TIP3   OH275822   3.745   0.731   1.020 -0.3153  0.2003 -0.2011
18136TIP3    H175823   3.674   0.667   1.010  0.1148 -0.3551  0.2399
18136TIP3    H275824   3.703   0.816   1.006 -1.1479 -0.0968  0.4244
18137TIP3   OH275825   1.658   2.988   0.123  0.0602  0.1164  0.0374
18137TIP3    H175826   1.735   3.008   0.177 -0.0881  3.0971 -0.6884
18137TIP3    H275827   1.629   2.902   0.154  0.9276  0.9245  3.6246
18138TIP3   OH275828   5.794   5.011   3.756  0.0120 -0.5211  0.4589
18138TIP3    H175829   5.769   5.075   3.821 -2.1279  0.8918 -1.6110
18138TIP3    H275830   5.890   5.015   3.754  0.0166  1.0532  1.8386
18139TIP3   OH275831   4.726   0.310   4.814  0.4031  0.0578 -0.5789
18139TIP3    H175832   4.697   0.368   4.743  3.0788  1.3530 -0.7071
18139TIP3    H275833   4.808   0.273   4.782  0.5784 -0.9960  1.0141
18140TIP3   OH275834   5.135   1.508  12.393 -0.0289  0.1129  0.6330
18140TIP3    H175835   5.215   1.464  12.366 -0.0361 -0.1124  0.9784
18140TIP3    H275836   5.123   1.577  12.328 -1.0053 -1.5120 -0.9960
18141TIP3   OH275837   2.282   5.011   5.588 -0.9448  0.4524 -0.1836
18141TIP3    H175838   2.208   5.032   5.532 -2.2484  0.5138  1.5010
18141TIP3    H275839   2.311   5.096   5.622 -0.7259  0.3366 -0.0766
18142TIP3   OH275840   1.998   2.011  14.487 -0.1012  0.5586  0.1627
18142TIP3    H175841   2.025   2.096  14.521 -0.2203  0.3226  0.8618
18142TIP3    H275842   2.076   1.955  14.498  0.3096  0.8235 -1.2171
18143TIP3   OH275843   2.916   2.662   0.556  0.4011 -0.1348 -0.5447
18143TIP3    H175844   2.849   2.634   0.620  1.3986 -0.8570  0.2091
18143TIP3    H275845   2.877   2.642   0.471 -0.4834 -0.2478 -0.1293
18144TIP3   OH275846   4.759   6.245   2.088 -0.1606 -0.0331  0.1648
18144TIP3    H175847   4.726   6.329   2.058  0.8670  0.3737  0.1266
18144TIP3    H275848   4.849   6.241   2.055  0.5634 -0.1504  2.0180
18145TIP3   OH275849   0.236   4.549  11.397 -0.3920  0.2982 -0.4098
18145TIP3    H175850   0.222   4.542  11.302  2.1739  2.3388 -1.0341
18145TIP3    H275851   0.312   4.493  11.415 -1.3389 -0.7148  0.6559
18146TIP3   OH275852   4.777   4.061  14.036 -0.0755  0.6395  0.5260
18146TIP3    H175853   4.765   4.008  14.115 -0.6010 -0.3334 -0.1782
18146TIP3    H275854   4.775   3.997  13.964  2.6665  1.1887 -0.1673
18147TIP3   OH275855   1.113   4.515  14.284  0.2572 -0.0669 -0.2752
18147TIP3    H175856   1.117   4.432  14.236  1.1806  0.1874 -0.6637
18147TIP3    H275857   1.168   4.575  14.233 -1.9931  1.3848 -1.1299
18148TIP3   OH275858   1.474   4.369  13.732 -0.2364 -0.3470  0.5524
18148TIP3    H175859   1.393   4.419  13.732 -0.7027 -1.0728  1.5033
18148TIP3    H275860   1.539   4.430  13.768 -0.6173 -0.1547  0.9193
18149TIP3   OH275861   0.426   5.309   0.359 -0.1540  0.3103 -0.5305
18149TIP3    H175862   0.369   5.237   0.386 -0.4812  0.8542  0.2833
18149TIP3    H275863   0.449   5.289   0.268  3.6021 -3.3437  0.8492
18150TIP3   OH275864   0.710   5.973  15.751 -0.1269 -0.6086  0.1388
18150TIP3    H175865   0.709   5.898  15.691  1.3968  0.8321 -1.8215
18150TIP3    H275866   0.803   5.991  15.764 -0.4607  1.1253  0.2824
18151TIP3   OH275867   2.955   4.695  14.180 -0.3705 -0.2415  0.0876
18151TIP3    H175868   2.915   4.614  14.210  2.0706 -1.0336  1.5390
18151TIP3    H275869   2.965   4.748  14.260  0.1378  0.5088 -0.4625
18152TIP3   OH275870   6.003   3.529   3.053 -0.0005 -0.7142 -0.5917
18152TIP3    H175871   6.052   3.575   2.984 -1.4733  0.1119 -1.1310
18152TIP3    H275872   5.982   3.597   3.117  0.4352 -1.2714  0.1600
18153TIP3   OH275873   6.292   4.403   6.604  0.1449  0.2615 -0.1616
18153TIP3    H175874   6.359   4.469   6.584  0.7076 -0.3114 -0.1810
18153TIP3    H275875   6.264   4.372   6.518  0.3381  0.0191 -0.1371
18154TIP3   OH275876   3.753   2.968   3.733 -0.3034  0.6062 -0.7097
18154TIP3    H175877   3.819   3.020   3.777 -0.9501  0.7530  0.1135
18154TIP3    H275878   3.744   3.008   3.647  1.5204 -0.1451 -1.3082
18155TIP3   OH275879   5.473   0.707   3.177 -0.5038 -0.0043  0.2378
18155TIP3    H175880   5.403   0.738   3.120 -1.0461  1.6609  1.7058
18155TIP3    H275881   5.551   0.754   3.146 -0.9601  1.5460  1.2975
18156TIP3   OH275882   3.468   0.560  12.571 -0.5977  0.6234  0.6594
18156TIP3    H175883   3.449   0.652  12.552 -1.3414  0.6720  1.5094
18156TIP3    H275884   3.397   0.533  12.631  0.3044 -0.1350  1.4295
18157TIP3   OH275885   6.593   6.523  12.435 -0.2156  0.6358  0.1921
18157TIP3    H175886   6.616   6.569  12.515 -0.6421  1.0133  0.1061
18157TIP3    H275887   6.676   6.511  12.389  0.2978 -1.1706  1.4866
18158TIP3   OH275888   5.026   3.848  13.869  0.2098 -0.2380 -0.1331
18158TIP3    H175889   5.052   3.822  13.957 -0.1059  0.9644  0.3381
18158TIP3    H275890   5.021   3.766  13.820  1.4953 -0.8109  0.6580
18159TIP3   OH275891   4.431   4.828  15.353 -0.3697  0.1283 -0.0395
18159TIP3    H175892   4.366   4.898  15.346 -0.1760  0.2298 -1.0311
18159TIP3    H275893   4.498   4.863  15.411 -0.3715  0.6988 -0.3714
18160TIP3   OH275894   0.569   1.659   2.041  0.1499 -0.4056  0.4589
18160TIP3    H175895   0.516   1.589   2.004 -2.4712  1.1053  1.0589
18160TIP3    H275896   0.619   1.693   1.967  1.6967 -2.9487  0.1992
18161TIP3   OH275897   6.622   2.709  11.075 -0.3727 -0.3638  0.0068
18161TIP3    H175898   6.592   2.693  10.985  1.4005  0.7019 -0.8339
18161TIP3    H275899   6.565   2.779  11.107 -1.7314 -1.4913  0.1488
18162TIP3   OH275900   3.714   4.696   5.548 -0.0186  0.3223 -0.7401
18162TIP3    H175901   3.657   4.642   5.603 -0.1416  0.0288 -1.1475
18162TIP3    H275902   3.767   4.634   5.499 -0.0097  0.5718 -1.0568
18163TIP3   OH275903   0.201   6.595  14.573 -0.3919 -0.2805  0.7897
18163TIP3    H175904   0.130   6.578  14.635 -1.6877 -0.0527 -0.5859
18163TIP3    H275905   0.181   6.540  14.497 -0.9311  2.1673 -0.9616
18164TIP3   OH275906   1.415   4.977   5.947  0.0909 -0.1606  0.4564
18164TIP3    H175907   1.439   4.898   5.996  0.7555 -1.3532 -1.6406
18164TIP3    H275908   1.479   5.042   5.973  0.5644 -0.8278  1.0081
18165TIP3   OH275909   2.066   1.725  10.430  0.0943  0.3869 -0.2512
18165TIP3    H175910   2.100   1.744  10.343  0.4113  0.5652 -0.0906
18165TIP3    H275911   2.122   1.775  10.489 -0.0906  0.2319  0.0583
18166TIP3   OH275912   2.775   5.413  13.057  0.0313  0.5675  0.2433
18166TIP3    H175913   2.767   5.491  13.111  2.7368  0.0872  1.4635
18166TIP3    H275914   2.810   5.346  13.116 -0.5685 -1.0950 -1.1990
18167TIP3   OH275915   4.816   5.050   3.780  0.7734 -0.1004 -0.4070
18167TIP3    H175916   4.726   5.022   3.796 -0.3374  2.5450 -1.4235
18167TIP3    H275917   4.850   4.987   3.717 -1.1989  0.1083 -1.7733
18168TIP3   OH275918   6.031   2.846  14.443 -0.2545 -0.1159  0.0569
18168TIP3    H175919   5.949   2.803  14.464  0.7978 -1.1497  2.3823
18168TIP3    H275920   6.016   2.938  14.462 -1.0585 -0.1734 -0.2504
18169TIP3   OH275921   2.975   6.723   5.152  0.1438  0.3944  0.0438
18169TIP3    H175922   3.047   6.734   5.214  0.6428 -0.8955 -0.2807
18169TIP3    H275923   3.014   6.677   5.078 -0.8193  0.4613 -0.5196
18170TIP3   OH275924   0.874   6.723  11.298  0.4553  0.1042  0.0809
18170TIP3    H175925   0.935   6.768  11.356 -0.0598  0.8498  0.0566
18170TIP3    H275926   0.930   6.691  11.226  1.2240 -1.5417  1.3483
18171TIP3   OH275927   2.775   2.773  14.562 -0.4317 -0.2472 -0.7039
18171TIP3    H175928   2.715   2.843  14.588  0.8376  0.6223 -0.0293
18171TIP3    H275929   2.839   2.817  14.506 -0.4813 -1.1946 -1.5356
18172TIP3   OH275930   1.217   2.883   0.055 -0.1271  0.4545 -0.4818
18172TIP3    H175931   1.214   2.967   0.100  1.4397  0.3049 -0.0476
18172TIP3    H275932   1.197   2.819   0.124 -1.1175  0.4434 -0.7676
18173TIP3   OH275933   4.588   3.512   0.815  0.5909  0.5620  0.0114
18173TIP3    H175934   4.508   3.460   0.826 -0.6818  2.6853  1.8278
18173TIP3    H275935   4.591   3.532   0.721 -1.4981  1.0926  0.0135
18174TIP3   OH275936   6.153   2.415   0.011 -0.6794  1.1094  0.8281
18174TIP3    H175937   6.191   2.331  -0.016 -1.2467  0.7722  1.0604
18174TIP3    H275938   6.164   2.416   0.106  0.4330  1.8588  0.7141
18175TIP3   OH275939   3.679   2.105   2.026 -0.5238  0.1665  0.2208
18175TIP3    H175940   3.773   2.103   2.042  0.0747  0.6855 -2.6534
18175TIP3    H275941   3.660   2.021   1.983 -1.0825  0.6637 -0.5250
18176TIP3   OH275942   0.817   5.853  15.251 -0.0361 -0.3412  0.2742
18176TIP3    H175943   0.863   5.912  15.192  1.2870 -0.8672  0.7377
18176TIP3    H275944   0.730   5.842  15.212  0.6097 -0.2143 -1.2509
18177TIP3   OH275945   5.458   1.171  14.102 -0.5500 -0.3592  0.4940
18177TIP3    H175946   5.479   1.151  14.193 -0.7648  0.1598  0.6642
18177TIP3    H275947   5.414   1.256  14.106  1.9595  1.0706 -0.3721
18178TIP3   OH275948   1.603   4.860  13.619  0.3478 -0.0537  0.1175
18178TIP3    H175949   1.532   4.801  13.647  1.0967 -0.1576  1.9884
18178TIP3    H275950   1.623   4.912  13.697  0.5822  1.8234 -1.1210
18179TIP3   OH275951   5.368   0.563   5.243  0.0615 -0.2141 -0.1020
18179TIP3    H175952   5.432   0.603   5.185  1.6651 -0.0767  1.6828
18179TIP3    H275953   5.409   0.564   5.329 -2.1476 -0.5733  1.0381
18180TIP3   OH275954   3.644   3.999   0.485 -0.3005  0.1036 -0.0661
18180TIP3    H175955   3.738   4.006   0.468 -0.2064 -1.0308 -0.0531
18180TIP3    H275956   3.605   3.987   0.398 -0.4063  0.1969 -0.0325
18181TIP3   OH275957   3.479   0.426   1.350 -0.3158  0.2399 -0.2931
18181TIP3    H175958   3.470   0.331   1.343  0.9440  0.0651  0.1812
18181TIP3    H275959   3.450   0.446   1.439  0.6162  0.1221  0.0467
18182TIP3   OH275960   2.197   3.415   0.751 -0.2259 -0.0420  0.7245
18182TIP3    H175961   2.108   3.425   0.783 -0.8279 -1.9646 -0.2216
18182TIP3    H275962   2.191   3.437   0.658  0.3378  0.0573  0.7086
18183TIP3   OH275963   5.442   6.153  13.878  0.5376  0.6326  0.2873
18183TIP3    H175964   5.402   6.125  13.961 -0.3153  1.1551  0.0667
18183TIP3    H275965   5.403   6.239  13.861  1.7407  1.1364  0.0328
18184TIP3   OH275966   3.405   1.241  12.257 -0.1849  0.0037 -0.3570
18184TIP3    H175967   3.332   1.275  12.205  0.3765  1.3289 -0.3251
18184TIP3    H275968   3.372   1.237  12.346  0.0059  1.4099 -0.1992
18185TIP3   OH275969   0.673   4.489  13.346 -0.0000 -0.2157  0.4711
18185TIP3    H175970   0.707   4.424  13.285  1.9123  0.6731  0.4947
18185TIP3    H275971   0.718   4.570  13.322 -0.4406  0.5309  2.0058
18186TIP3   OH275972   4.794   2.167  14.882 -0.4444  1.0223  0.7335
18186TIP3    H175973   4.790   2.236  14.815 -0.2461  1.4249  1.1322
18186TIP3    H275974   4.886   2.168  14.911 -0.2893  0.1804  0.3157
18187TIP3   OH275975   4.843   4.614  11.025  0.3777  0.0542  0.3416
18187TIP3    H175976   4.792   4.694  11.017 -1.1808 -0.8589  0.7530
18187TIP3    H275977   4.933   4.640  11.005  0.1380  2.1784  1.7810
18188TIP3   OH275978   0.129   4.078   2.960  0.5173  0.3318  0.5277
18188TIP3    H175979   0.077   4.100   3.038  0.7386 -2.1651  1.4766
18188TIP3    H275980   0.088   3.998   2.926  1.8146  0.1166 -0.5984
18189TIP3   OH275981   4.724   6.678   2.972  0.1266  0.7827  0.7002
18189TIP3    H175982   4.645   6.685   3.026 -0.5594 -0.0163 -0.1728
18189TIP3    H275983   4.793   6.655   3.034 -0.1707  2.1210  1.5739
18190TIP3   OH275984   4.070   1.805   0.122 -0.3995 -0.3726  0.1881
18190TIP3    H175985   4.098   1.814   0.213 -0.5364  0.0706  0.1878
18190TIP3    H275986   3.975   1.818   0.124 -0.1885  1.4934 -0.2530
18191TIP3   OH275987   5.107   0.104  14.567 -0.0493 -0.4869 -0.5255
18191TIP3    H175988   5.066   0.031  14.614  0.6033 -1.5493 -1.5441
18191TIP3    H275989   5.036   0.167  14.555 -1.0400 -1.6462 -0.9640
18192TIP3   OH275990   5.408   4.557  10.842  0.7326 -0.3130 -0.4777
18192TIP3    H175991   5.459   4.510  10.776  0.7695 -0.5395 -0.2913
18192TIP3    H275992   5.345   4.492  10.873 -0.0958  0.1374 -1.1532
18193TIP3   OH275993   0.070   6.577  11.753  0.2421  0.7596 -0.2840
18193TIP3    H175994   0.055   6.490  11.715  0.3032  1.0668 -1.0405
18193TIP3    H275995   0.038   6.638  11.686  1.0509  1.3324 -0.1675
18194TIP3   OH275996   1.122   0.565  16.984 -0.2471 -0.0749  0.3859
18194TIP3    H175997   1.192   0.625  16.956 -1.0281 -0.3478 -2.4599
18194TIP3    H275998   1.045   0.595  16.936 -1.6524 -0.9567  1.9900
18195TIP3   OH275999   1.901   2.233   0.735  0.1308  0.2013 -0.6810
18195TIP3    H176000   1.841   2.284   0.789 -0.8371 -1.3388 -0.2141
18195TIP3    H276001   1.884   2.261   0.645  0.1045  1.1411 -0.3916
18196TIP3   OH276002   0.685   2.415  12.024  1.0893 -0.4686  0.1223
18196TIP3    H176003   0.600   2.460  12.021 -0.1925 -2.6909  0.8803
18196TIP3    H276004   0.720   2.424  11.935 -0.3662 -0.2515 -0.4596
18197TIP3   OH276005   6.241   2.110   5.735  0.4067  0.1792 -0.4729
18197TIP3    H176006   6.312   2.046   5.725 -0.3753 -1.0318  1.3042
18197TIP3    H276007   6.205   2.093   5.822 -0.6477  2.2422 -0.4426
18198TIP3   OH276008   2.139   2.894   4.764 -0.4513 -0.8326 -0.7276
18198TIP3    H176009   2.228   2.929   4.766 -0.7937  0.1790 -1.9963
18198TIP3    H276010   2.136   2.832   4.837  0.3297  1.3988  1.3343
18199TIP3   OH276011   5.000   5.271   0.443 -0.3275  0.2624  0.2465
18199TIP3    H176012   4.982   5.294   0.351 -0.6322  0.6186  0.3938
18199TIP3    H276013   4.932   5.317   0.493  0.7887  1.3703  0.7902
18200TIP3   OH276014   3.659   1.070   0.887 -0.6391  0.6767  0.3888
18200TIP3    H176015   3.670   1.165   0.895 -2.6911  1.0577 -0.6904
18200TIP3    H276016   3.569   1.054   0.914  0.1668 -1.2335  2.1995
18201TIP3   OH276017   4.396   5.027  17.305  0.0923  0.2068 -0.1226
18201TIP3    H176018   4.358   5.092  17.246  0.7248 -0.3634 -1.1883
18201TIP3    H276019   4.323   4.972  17.332 -0.0073 -0.2832 -1.3696
18202TIP3   OH276020   0.876   3.559   2.958 -0.4633 -0.0037  0.5808
18202TIP3    H176021   0.830   3.641   2.975 -0.9144 -0.2427  0.5169
18202TIP3    H276022   0.936   3.550   3.032 -2.1666 -0.8636  1.9374
18203TIP3   OH276023   2.029   2.329  17.066  0.5512 -0.0658  0.4007
18203TIP3    H176024   2.002   2.268  17.134  1.2866 -0.3984  0.4088
18203TIP3    H276025   2.029   2.415  17.109  2.2797 -0.4248  1.2415
18204TIP3   OH276026   3.713   0.760   4.566  0.1292  0.7182 -0.1658
18204TIP3    H176027   3.717   0.665   4.558 -4.9474  0.1290  1.1292
18204TIP3    H276028   3.735   0.778   4.657  1.4605  0.9036 -0.5025
18205TIP3   OH276029   4.300   5.987   3.969 -0.0575  0.0337 -0.2037
18205TIP3    H176030   4.208   5.989   3.994 -0.6802 -0.9174 -2.2347
18205TIP3    H276031   4.327   6.079   3.971 -0.7407  0.2357  1.3427
18206TIP3   OH276032   5.885   3.252   1.013 -0.0721  0.1904 -0.3202
18206TIP3    H176033   5.944   3.179   0.997  0.5256  0.3795  0.9674
18206TIP3    H276034   5.855   3.277   0.925  0.9982 -0.5215 -0.9180
18207TIP3   OH276035   6.726   6.621   3.659  0.5054 -0.6369 -0.1081
18207TIP3    H176036   6.789   6.671   3.608  0.0767  0.2693  0.2216
18207TIP3    H276037   6.753   6.635   3.750 -1.7674  2.1794  0.2855
18208TIP3   OH276038   1.320   1.313   4.808  0.4508  0.3100  0.3231
18208TIP3    H176039   1.339   1.405   4.787 -1.0092  0.6047  0.1933
18208TIP3    H276040   1.244   1.317   4.866 -1.1520 -0.8708 -1.5445
18209TIP3   OH276041   4.819   6.690   4.051  0.1882 -0.1335 -0.0617
18209TIP3    H176042   4.817   6.597   4.031  0.4333 -0.3540  0.9175
18209TIP3    H276043   4.911   6.710   4.068  0.1302  0.2724 -0.2009
18210TIP3   OH276044   3.726   1.104   4.878  0.3616  0.0242 -0.8286
18210TIP3    H176045   3.743   1.010   4.881 -2.1785 -0.4963 -0.1108
18210TIP3    H276046   3.642   1.112   4.834  0.1393  1.8870 -0.1697
18211TIP3   OH276047   6.000   0.742   0.867 -0.3973 -0.0022  0.4635
18211TIP3    H176048   6.006   0.821   0.921  0.8920 -0.6080  1.2485
18211TIP3    H276049   5.993   0.670   0.930  0.6261 -0.6786 -0.1539
18212TIP3   OH276050   0.907   2.626  13.508 -0.2636 -0.5230 -0.0063
18212TIP3    H176051   0.862   2.546  13.535 -0.3681 -1.1884 -1.9970
18212TIP3    H276052   0.839   2.682  13.473  0.2523 -1.1820 -2.2220
18213TIP3   OH276053   0.554   3.113   5.552  0.1136  0.3659  0.5885
18213TIP3    H176054   0.565   3.199   5.592 -0.2023 -0.2216  1.9901
18213TIP3    H276055   0.591   3.122   5.464  0.2305  1.8766  0.7775
18214TIP3   OH276056   1.960   2.984   0.869  0.3296  0.8433 -0.5394
18214TIP3    H176057   2.036   3.042   0.870  0.6057  0.5605 -2.2520
18214TIP3    H276058   1.971   2.931   0.790 -0.8068 -0.3537  0.0687
18215TIP3   OH276059   4.967   4.064   1.823  0.9873  0.1152  0.5933
18215TIP3    H176060   4.940   4.151   1.795  0.9743 -0.0589  0.0565
18215TIP3    H276061   4.889   4.026   1.863  1.1467  0.5566  1.3528
18216TIP3   OH276062   6.249   1.275  10.765 -0.0182  0.1959 -0.4080
18216TIP3    H176063   6.177   1.249  10.708 -0.1648 -0.3647  0.0285
18216TIP3    H276064   6.208   1.328  10.833 -0.0459 -0.2590 -0.0681
18217TIP3   OH276065   3.823   2.045  11.868  0.1156  0.3114 -0.1132
18217TIP3    H176066   3.759   2.115  11.855 -0.7853 -0.0545  1.9597
18217TIP3    H276067   3.897   2.086  11.911  0.1422  0.2320 -0.0825
18218TIP3   OH276068   3.221   0.159  14.237  0.1968 -0.1099 -0.0144
18218TIP3    H176069   3.316   0.150  14.249 -0.0471 -1.4719  1.1320
18218TIP3    H276070   3.193   0.211  14.312 -0.1814 -1.2788  0.6840
18219TIP3   OH276071   6.396   4.200  16.279  0.3831 -0.3454 -0.2698
18219TIP3    H176072   6.422   4.279  16.326 -1.0109  0.2919 -0.5106
18219TIP3    H276073   6.394   4.225  16.187 -0.6147 -0.4785 -0.2987
18220TIP3   OH276074   5.027   5.175  12.721  0.7441  0.5088  0.5552
18220TIP3    H176075   5.044   5.264  12.691  2.4924 -0.3467 -1.2191
18220TIP3    H276076   5.090   5.121  12.674 -2.4552 -2.1397 -1.1112
18221TIP3   OH276077   1.737   5.051  12.976 -0.2260 -0.2283 -1.0393
18221TIP3    H176078   1.733   5.021  13.067 -0.2749  1.6804 -0.3766
18221TIP3    H276079   1.778   4.978  12.929  0.8938 -0.7881  0.7101
18222TIP3   OH276080   1.545   5.418  13.203 -0.3419 -0.3987  0.3620
18222TIP3    H176081   1.452   5.420  13.183  0.1042 -1.5765 -2.2163
18222TIP3    H276082   1.572   5.509  13.201 -0.6709 -0.2439 -3.4574
18223TIP3   OH276083   1.793   3.718   1.123 -0.2443  0.0779  0.6052
18223TIP3    H176084   1.701   3.723   1.099 -0.6326 -2.3099  1.2889
18223TIP3    H276085   1.835   3.676   1.047  0.8807  3.4212 -0.8307
18224TIP3   OH276086   4.565   0.287  12.679 -0.1712 -0.3961 -0.5172
18224TIP3    H176087   4.590   0.335  12.758 -0.7901 -0.6039 -0.1870
18224TIP3    H276088   4.621   0.209  12.680 -1.3902 -1.3155  0.6964
18225TIP3   OH276089   4.259   2.217  16.729  0.0086 -0.7246  0.2329
18225TIP3    H176090   4.238   2.237  16.820 -0.7271  0.1291 -0.1082
18225TIP3    H276091   4.250   2.301  16.683  1.3821 -0.9203 -0.4488
18226TIP3   OH276092   4.917   1.960  10.786  0.2138 -0.1418 -0.0419
18226TIP3    H176093   4.870   2.043  10.781 -0.6635 -0.5129  1.5858
18226TIP3    H276094   5.010   1.985  10.786 -0.0338  0.8040 -0.0540
18227TIP3   OH276095   3.149   2.116   0.199  0.0888 -0.2446 -0.0596
18227TIP3    H176096   3.060   2.102   0.232  0.5505 -1.5915  0.6662
18227TIP3    H276097   3.136   2.155   0.113 -1.2573 -1.5240 -0.4823
18228TIP3   OH276098   5.130   5.916  14.404  0.1099 -0.1560 -0.7833
18228TIP3    H176099   5.172   5.861  14.470 -1.0221  0.3361  0.3861
18228TIP3    H276100   5.109   5.855  14.333  3.8288 -0.2122 -2.0128
18229TIP3   OH276101   0.333   5.433  14.652 -0.0088 -0.0863 -0.1212
18229TIP3    H176102   0.252   5.442  14.700 -0.1720  0.5801 -0.5159
18229TIP3    H276103   0.402   5.434  14.719 -0.3684 -1.8922  0.3362
18230TIP3   OH276104   1.920   5.906  13.314  0.4157  0.3071  0.5376
18230TIP3    H176105   1.863   5.842  13.357 -0.6637  1.0538  0.2666
18230TIP3    H276106   1.859   5.965  13.270  1.4536  0.2724 -0.9972
18231TIP3   OH276107   4.832   1.789   3.989  0.4635 -0.3684 -0.1581
18231TIP3    H176108   4.922   1.809   4.015  0.9140 -2.6586  0.1989
18231TIP3    H276109   4.779   1.820   4.063  0.9345  0.8366 -0.2994
18232TIP3   OH276110   0.357   3.615   0.346  0.0227  0.2462  0.5912
18232TIP3    H176111   0.326   3.701   0.376 -1.0147  0.0607  0.1188
18232TIP3    H276112   0.314   3.552   0.404  0.2085  0.0155  0.4798
18233TIP3   OH276113   0.077   4.014   4.940 -0.0277  0.0922  0.1546
18233TIP3    H176114   0.118   4.071   4.875 -0.2170  0.5424  0.4226
18233TIP3    H276115   0.150   3.978   4.990  0.1052 -0.0816 -0.1636
18234TIP3   OH276116   4.492   1.385  16.665 -0.0056 -0.2046 -0.2682
18234TIP3    H176117   4.436   1.396  16.742 -0.4674 -0.9530 -0.4806
18234TIP3    H276118   4.434   1.344  16.600 -0.1849  2.1049 -1.6809
18235TIP3   OH276119   5.960   2.388   5.227 -0.6537  0.1540 -0.0427
18235TIP3    H176120   5.946   2.331   5.303 -0.2724  0.1998  0.0636
18235TIP3    H276121   6.025   2.452   5.257  0.2305 -0.4133 -0.7237
18236TIP3   OH276122   3.411   4.450   2.772  1.0265  0.0300 -0.4961
18236TIP3    H176123   3.421   4.380   2.836  0.4943 -1.0716 -1.5606
18236TIP3    H276124   3.319   4.476   2.779  1.7334  2.2511  1.4631
18237TIP3   OH276125   1.796   6.153   2.799  0.6543  0.2892 -0.1415
18237TIP3    H176126   1.816   6.113   2.715  0.4833  0.8932 -0.4769
18237TIP3    H276127   1.882   6.180   2.833  0.6608  0.6311 -0.4247
18238TIP3   OH276128   0.480   0.579   3.945  0.2542  0.2747 -0.1181
18238TIP3    H176129   0.525   0.564   4.029  1.2642  1.3633 -0.4360
18238TIP3    H276130   0.440   0.495   3.924 -1.6168  0.4394  2.3708
18239TIP3   OH276131   6.152   1.198  16.978 -0.5413  0.7925  0.0938
18239TIP3    H176132   6.152   1.107  17.007 -0.4515  1.0262  0.8610
18239TIP3    H276133   6.061   1.216  16.954 -0.5942  0.5497  0.1151
18240TIP3   OH276134   1.066   0.254   6.081 -0.5341  0.1643 -0.0318
18240TIP3    H176135   1.075   0.160   6.071 -0.2329  0.0612  1.0325
18240TIP3    H276136   0.978   0.267   6.117  0.5626 -0.0561  3.0956
18241TIP3   OH276137   1.056   0.023   5.928  0.3085  0.2867 -0.6812
18241TIP3    H176138   1.148   0.016   5.906  0.1644 -0.6862 -1.0229
18241TIP3    H276139   1.014  -0.048   5.879 -0.8562  1.6627 -1.7652
18242TIP3   OH276140   4.644   4.691   3.985 -0.1269  0.4552 -0.3179
18242TIP3    H176141   4.653   4.623   3.918 -0.2291  0.1644 -0.0394
18242TIP3    H276142   4.722   4.682   4.039 -1.0742 -0.7383  0.8900
18243TIP3   OH276143   5.438   3.204  16.113 -0.3997  0.5977  0.3070
18243TIP3    H176144   5.394   3.145  16.174  0.8059 -2.1459 -1.2369
18243TIP3    H276145   5.397   3.185  16.028  2.3676 -0.7773 -0.8681
18244TIP3   OH276146   6.610   2.257   5.823  0.1568 -0.1229  0.0687
18244TIP3    H176147   6.554   2.311   5.879  0.6563  0.9248 -0.4126
18244TIP3    H276148   6.611   2.303   5.739  1.5798 -0.2049  0.0144
18245TIP3   OH276149   2.644   0.924  15.574  0.7674  0.1862 -0.3399
18245TIP3    H176150   2.714   0.978  15.611  2.0260 -0.4091 -1.7105
18245TIP3    H276151   2.576   0.922  15.642  2.1116  0.7237  1.0877
18246TIP3   OH276152   4.799   3.167   5.016 -0.4284 -0.1620  0.0812
18246TIP3    H176153   4.868   3.113   4.977  0.3670  0.4556  0.6035
18246TIP3    H276154   4.801   3.248   4.966 -1.0295 -0.2769 -0.1370
18247TIP3   OH276155   1.172   0.205  12.415 -0.0684  0.0005 -0.2850
18247TIP3    H176156   1.198   0.163  12.497  0.3823 -0.2780 -0.5656
18247TIP3    H276157   1.248   0.196  12.358 -0.5494 -0.2459 -0.9015
18248TIP3   OH276158   6.351   4.164   3.410 -0.0796  0.4428  0.4034
18248TIP3    H176159   6.366   4.078   3.372  1.7691  0.4927  0.9656
18248TIP3    H276160   6.401   4.224   3.354  1.4574  0.6967  1.9771
18249TIP3   OH276161   3.704   2.198   3.927  0.3568 -0.3057  0.3913
18249TIP3    H176162   3.735   2.147   3.852 -0.3929  0.4149 -0.4342
18249TIP3    H276163   3.779   2.202   3.986  0.8989 -1.0713 -0.2201
18250TIP3   OH276164   4.764   5.381  11.031  0.2581  0.3462  0.1825
18250TIP3    H176165   4.683   5.360  10.986  0.3546 -0.5211  0.3866
18250TIP3    H276166   4.781   5.305  11.087  0.4746  1.1163  1.1986
18251TIP3   OH276167   2.374   3.156   3.714  0.1351  0.1422 -0.0580
18251TIP3    H176168   2.442   3.198   3.767 -1.4930  0.3184  2.0605
18251TIP3    H276169   2.308   3.224   3.700  0.4865  0.0806 -2.3695
18252TIP3   OH276170   3.454   5.356  16.734 -0.7233 -0.0533 -0.0368
18252TIP3    H176171   3.482   5.415  16.664  1.5778 -2.0653 -0.9440
18252TIP3    H276172   3.359   5.349  16.723 -0.7365  1.6378 -1.3417
18253TIP3   OH276173   3.090   1.179   2.795 -0.6098  0.2114 -0.0984
18253TIP3    H176174   3.013   1.130   2.823 -0.2842 -0.4640 -0.3711
18253TIP3    H276175   3.088   1.259   2.848 -1.2621  0.0040  0.1982
18254TIP3   OH276176   2.534   5.445   0.223  0.0439 -0.6432  0.3321
18254TIP3    H176177   2.520   5.427   0.316 -0.5308  0.6771  0.5182
18254TIP3    H276178   2.577   5.530   0.221 -0.9983 -0.1052 -0.6334
18255TIP3   OH276179   3.277   2.007  12.055  0.0724 -0.1158 -0.0592
18255TIP3    H176180   3.310   2.045  11.973 -2.1569  0.1151 -0.9043
18255TIP3    H276181   3.347   2.024  12.118  0.9690  1.5824 -1.4136
18256TIP3   OH276182   0.681   2.523  14.712  0.2716 -0.4796  0.1946
18256TIP3    H176183   0.629   2.469  14.651  0.7866 -2.7835  1.6725
18256TIP3    H276184   0.621   2.593  14.738 -0.4821 -0.3414 -1.7116
18257TIP3   OH276185   5.300   2.598  12.007  0.2118  0.2502  0.1098
18257TIP3    H176186   5.219   2.566  12.046  0.9382 -0.4011  1.1578
18257TIP3    H276187   5.301   2.691  12.027  0.2656  0.0448  1.1464
18258TIP3   OH276188   5.089   0.921  12.297 -0.1246 -0.0725 -0.3741
18258TIP3    H176189   5.070   0.830  12.277  1.5275 -0.2459 -1.3161
18258TIP3    H276190   5.117   0.920  12.389 -3.2426  0.0331  0.6883
18259TIP3   OH276191   3.858   5.235   0.225  0.1449  0.0987  0.3418
18259TIP3    H176192   3.875   5.308   0.166  1.5102 -0.8265 -0.4765
18259TIP3    H276193   3.861   5.274   0.312  1.7278  0.8965 -0.0335
18260TIP3   OH276194   0.964   4.183  14.427 -0.3158  0.3912  0.0295
18260TIP3    H176195   1.045   4.134  14.440 -0.2039  0.4849 -0.3054
18260TIP3    H276196   0.895   4.117  14.435 -0.1062 -0.1127 -1.7988
18261TIP3   OH276197   5.135   0.776  15.057 -0.3370 -0.1383  0.2004
18261TIP3    H176198   5.174   0.861  15.041  0.3371 -0.4131  0.3633
18261TIP3    H276199   5.176   0.745  15.138  1.0789 -1.5775 -1.0029
18262TIP3   OH276200   5.924   5.524   1.828 -0.9164  0.1292  0.5357
18262TIP3    H176201   5.956   5.603   1.784 -0.3370 -1.1271 -1.4404
18262TIP3    H276202   5.842   5.550   1.870 -0.7527  1.7599 -0.1131
18263TIP3   OH276203   0.225   2.790  16.334 -0.3049 -0.1037  0.0299
18263TIP3    H176204   0.171   2.727  16.286 -0.6173  0.2098 -0.0408
18263TIP3    H276205   0.299   2.739  16.367 -0.6970 -0.5650  0.2082
18264TIP3   OH276206   6.640   2.652  14.389  0.1658  0.3676  0.2971
18264TIP3    H176207   6.597   2.734  14.367  0.3930  0.0180 -1.6755
18264TIP3    H276208   6.716   2.648  14.330 -0.0211 -1.3835  0.1038
18265TIP3   OH276209   1.189   3.036  11.404 -0.3369 -0.1187  0.4141
18265TIP3    H176210   1.217   3.103  11.342 -1.4991 -0.5758 -0.6471
18265TIP3    H276211   1.177   3.082  11.487  1.3293  0.4879  0.3405
18266TIP3   OH276212   3.785   1.070  11.094  0.1896 -0.2407 -0.0897
18266TIP3    H176213   3.874   1.051  11.123  0.3104 -0.9929 -0.8949
18266TIP3    H276214   3.797   1.124  11.015 -0.0084 -1.3037 -0.8769
18267TIP3   OH276215   5.528   5.742  12.905  0.1389  0.3174  0.4449
18267TIP3    H176216   5.507   5.835  12.891  1.2345  0.2587 -2.0226
18267TIP3    H276217   5.502   5.699  12.824 -1.2469 -1.7764  1.8904
18268TIP3   OH276218   5.599   5.092  15.257 -0.4602 -0.1290 -0.1362
18268TIP3    H176219   5.667   5.035  15.222  1.0140  1.4698 -0.0232
18268TIP3    H276220   5.568   5.142  15.181  0.5973  1.2023  0.2756
18269TIP3   OH276221   2.242   3.465  13.187  0.4382  0.5178  0.2220
18269TIP3    H176222   2.270   3.402  13.254 -1.3759  1.4827  2.0472
18269TIP3    H276223   2.229   3.412  13.108  0.6254 -1.0901  1.2132
18270TIP3   OH276224   4.575   4.148   0.270 -0.6142  0.2702 -0.4199
18270TIP3    H176225   4.515   4.223   0.269 -0.2740  0.5793  0.5400
18270TIP3    H276226   4.549   4.098   0.347 -0.5781 -0.3867 -0.8311
18271TIP3   OH276227   0.016   2.188  16.708 -0.2385 -0.2376  0.1924
18271TIP3    H176228   0.062   2.133  16.772 -1.3040 -0.2491  0.9865
18271TIP3    H276229  -0.013   2.264  16.759 -0.8318 -0.0895 -0.3499
18272TIP3   OH276230   3.366   2.914  11.719  0.2881 -0.4066  0.0063
18272TIP3    H176231   3.343   3.005  11.738  0.0475 -0.6278  0.8157
18272TIP3    H276232   3.434   2.892  11.784  1.6704 -0.2585 -1.3321
18273TIP3   OH276233   5.355   0.958  11.212 -0.4789 -0.2237 -0.3539
18273TIP3    H176234   5.294   0.994  11.147 -0.7776  1.1895  0.6622
18273TIP3    H276235   5.320   0.987  11.296  1.6195  0.7060  0.2656
18274TIP3   OH276236   2.520   2.766   2.011  0.5221  0.2723 -0.6791
18274TIP3    H176237   2.585   2.778   1.942  1.4368  0.0398  0.1334
18274TIP3    H276238   2.550   2.690   2.061  0.1747  0.7559  0.3011
18275TIP3   OH276239   5.732   6.099   5.675 -0.7301  0.4004 -0.3960
18275TIP3    H176240   5.753   6.022   5.622  0.8588  1.9454 -2.1611
18275TIP3    H276241   5.639   6.115   5.659 -0.5909  0.0159 -1.6585
18276TIP3   OH276242   3.554   2.465   5.747  0.7217  0.3547  0.4557
18276TIP3    H176243   3.623   2.527   5.769 -0.5388  1.1774  2.3687
18276TIP3    H276244   3.473   2.509   5.772 -0.4075 -1.1236 -0.4007
18277TIP3   OH276245   0.310   3.573  12.790 -0.6697 -0.4966 -0.3582
18277TIP3    H176246   0.336   3.503  12.730 -2.8442 -1.3024 -0.4587
18277TIP3    H276247   0.254   3.530  12.854 -0.9027  0.9079  0.4275
18278TIP3   OH276248   1.842   6.622   2.669 -0.2928  0.2758  1.0393
18278TIP3    H176249   1.759   6.632   2.716  0.4011  0.5715  2.2457
18278TIP3    H276250   1.909   6.640   2.735  0.7767 -1.3772  0.4637
18279TIP3   OH276251   5.951   4.747   1.139  0.3926 -0.6937  0.4490
18279TIP3    H176252   5.902   4.711   1.212  0.2601 -0.1248  0.6449
18279TIP3    H276253   5.973   4.671   1.085 -2.1416 -0.7891 -0.5472
18280TIP3   OH276254   5.246   6.330  16.323  0.3037  0.1170 -0.5124
18280TIP3    H176255   5.297   6.351  16.245  1.4715 -2.3049 -0.4819
18280TIP3    H276256   5.164   6.295  16.290  0.0216  0.8160 -0.5890
18281TIP3   OH276257   3.691   2.555  15.666  0.4324  0.5641  0.7050
18281TIP3    H176258   3.695   2.625  15.601  0.4913 -0.4513 -0.4250
18281TIP3    H276259   3.712   2.598  15.749  1.8763  1.6303 -0.1569
18282TIP3   OH276260   0.728   0.618  17.013  0.3366  1.0127  0.0417
18282TIP3    H176261   0.781   0.543  16.988 -0.1701  0.5449  0.3517
18282TIP3    H276262   0.683   0.644  16.932 -0.2492  0.3565  0.1476
18283TIP3   OH276263   0.154   5.636  13.341  0.5039 -0.0092  0.4160
18283TIP3    H176264   0.176   5.554  13.298  0.3921 -0.0380  0.4139
18283TIP3    H276265   0.083   5.673  13.288  0.0385 -0.2740  0.8465
18284TIP3   OH276266   4.876   1.338  11.761  0.0503  0.0659  0.1381
18284TIP3    H176267   4.806   1.273  11.771  1.3154 -1.2834  0.5345
18284TIP3    H276268   4.896   1.365  11.851 -0.0757  0.5756  0.0136
18285TIP3   OH276269   6.658   2.151  11.964  0.0786  0.3074  0.5011
18285TIP3    H176270   6.610   2.228  11.995 -0.2184  0.3335 -0.0184
18285TIP3    H276271   6.740   2.186  11.930  0.2208  0.3236  0.8547
18286TIP3   OH276272   0.754   6.583   0.963  0.5999  0.2276 -0.0700
18286TIP3    H176273   0.751   6.642   1.039 -2.3450 -0.1045  0.1908
18286TIP3    H276274   0.667   6.591   0.924  0.8931 -2.2359 -1.3734
18287TIP3   OH276275   6.190   2.636   4.613  0.4083 -0.0042 -0.3154
18287TIP3    H176276   6.259   2.579   4.579  0.3840 -0.6754  0.7225
18287TIP3    H276277   6.160   2.685   4.536  0.6180 -1.1825 -1.1803
18288TIP3   OH276278   4.058   1.307   2.422  0.6690  0.1021 -0.6791
18288TIP3    H176279   4.015   1.222   2.430  1.5295 -0.4109 -1.2763
18288TIP3    H276280   3.991   1.365   2.385 -0.1161 -0.1326  0.3257
18289TIP3   OH276281   6.387   6.492   3.772  0.4326  0.8245  0.3053
18289TIP3    H176282   6.465   6.437   3.775  0.6927  1.2141  0.8710
18289TIP3    H276283   6.345   6.479   3.858 -0.5566  0.0146 -0.2705
18290TIP3   OH276284   1.154   1.020  15.488 -0.6072 -0.2206 -0.0021
18290TIP3    H176285   1.166   0.936  15.532 -2.7633 -1.1634 -1.0771
18290TIP3    H276286   1.215   1.018  15.414 -1.0517 -1.1184 -0.3558
18291TIP3   OH276287   5.801   1.710   2.033 -0.3098 -0.1823 -0.2686
18291TIP3    H176288   5.766   1.766   1.965 -2.9442 -1.3118  0.0298
18291TIP3    H276289   5.786   1.621   2.001 -1.2722 -0.7341  1.5633
18292TIP3   OH276290   4.863   1.489  12.436 -0.3495  0.0271 -0.6180
18292TIP3    H176291   4.958   1.477  12.445 -0.1504  1.6452 -0.1520
18292TIP3    H276292   4.830   1.403  12.411  1.0623 -0.9098  0.5804
18293TIP3   OH276293   1.038   2.643   5.157 -0.0332  0.0703 -0.1063
18293TIP3    H176294   0.948   2.611   5.147  0.2397 -0.3050 -1.4275
18293TIP3    H276295   1.031   2.738   5.142 -0.7009  0.6200  2.9895
18294TIP3   OH276296   0.137   3.152   5.247  0.0723 -0.0428  0.5952
18294TIP3    H176297   0.144   3.133   5.341  0.6046 -1.3596  0.3024
18294TIP3    H276298   0.227   3.156   5.216 -0.1150 -0.7486 -0.0701
18295TIP3   OH276299   1.103   1.969  16.240  0.2613 -0.2311 -0.0004
18295TIP3    H176300   1.185   2.003  16.204  0.7245 -2.0129 -0.7056
18295TIP3    H276301   1.128   1.928  16.322 -0.3713  1.4537  1.0865
18296TIP3   OH276302   5.231   0.396   5.091 -0.0265 -0.5053  0.3133
18296TIP3    H176303   5.294   0.350   5.035  1.0965  0.0612  1.0918
18296TIP3    H276304   5.284   0.452   5.147 -1.3085  1.5902 -0.4131
18297TIP3   OH276305   0.772   4.912  12.916 -0.5912 -0.4643  0.4973
18297TIP3    H176306   0.747   4.909  13.009  1.1736  0.7930  1.0699
18297TIP3    H276307   0.865   4.935  12.917 -0.8989  1.1800 -1.6267
18298TIP3   OH276308   6.468   0.345  11.483  0.1459  0.3389  0.0900
18298TIP3    H176309   6.397   0.403  11.455  0.5364  1.0109  0.4608
18298TIP3    H276310   6.473   0.278  11.414  0.0209  1.0327 -0.6056
18299TIP3   OH276311   4.422   4.694  14.697 -0.3303 -0.1988  0.1427
18299TIP3    H176312   4.471   4.612  14.698 -0.2789 -0.2202 -1.2683
18299TIP3    H276313   4.474   4.754  14.751  1.2216 -0.2623 -1.1829
18300TIP3   OH276314   4.734   0.989  14.218  0.5232 -0.2638  0.2162
18300TIP3    H176315   4.741   1.083  14.207 -0.5462 -0.3493 -1.5500
18300TIP3    H276316   4.801   0.953  14.159 -0.1527 -0.6337 -0.3306
18301TIP3   OH276317   6.176   3.625   2.310  0.0256 -0.3557 -0.5587
18301TIP3    H176318   6.150   3.713   2.337  1.1802 -0.2590  0.2731
18301TIP3    H276319   6.271   3.623   2.321  0.0087 -1.7273 -0.5174
18302TIP3   OH276320   3.542   2.275   6.341  0.1137 -0.0095  0.2717
18302TIP3    H176321   3.492   2.357   6.348 -1.6706 -1.1251  1.9793
18302TIP3    H276322   3.527   2.244   6.252 -4.4662 -1.4504  1.2689
18303TIP3   OH276323   4.930   4.259   3.412 -0.8322  0.0750 -0.2525
18303TIP3    H176324   4.964   4.342   3.379  0.1652  0.5015  1.7227
18303TIP3    H276325   5.003   4.198   3.406 -0.6778  0.1218  0.9818
18304TIP3   OH276326   0.258   1.880  13.077  0.4886  0.4458 -0.5964
18304TIP3    H176327   0.177   1.882  13.128 -1.1665  1.9195 -3.0681
18304TIP3    H276328   0.317   1.940  13.122 -0.5638  0.9759  0.1160
18305TIP3   OH276329   0.923   6.454  16.163 -0.1986 -0.9091  0.3696
18305TIP3    H176330   0.948   6.377  16.214 -0.1278 -1.8445 -1.0253
18305TIP3    H276331   1.004   6.482  16.120 -0.6390 -1.3711 -0.8072
18306TIP3   OH276332   1.614   2.776   5.087  0.4142 -0.1544  0.1195
18306TIP3    H176333   1.524   2.783   5.053  0.4249  0.1159  0.1494
18306TIP3    H276334   1.612   2.825   5.169  0.4430 -0.6298  0.4082
18307TIP3   OH276335   4.227   3.211  12.796 -0.1723 -0.3102  0.4311
18307TIP3    H176336   4.209   3.305  12.789 -1.4140 -0.5788 -0.3552
18307TIP3    H276337   4.199   3.175  12.712  4.7740 -0.7807 -1.3104
18308TIP3   OH276338   1.219   0.253   2.021  0.1177 -0.3247 -0.6412
18308TIP3    H176339   1.257   0.339   2.042 -1.8133  0.6140 -0.7802
18308TIP3    H276340   1.281   0.215   1.959  2.4338 -0.2480  1.4613
18309TIP3   OH276341   4.526   5.204  15.223 -0.0620  1.1691 -0.3112
18309TIP3    H176342   4.487   5.285  15.192 -3.2306  1.3661  3.4410
18309TIP3    H276343   4.464   5.136  15.198 -0.5647  0.8224  1.6729
18310TIP3   OH276344   2.401   4.276  11.405  0.0855  0.1555 -0.2129
18310TIP3    H176345   2.395   4.186  11.436  1.7214 -0.6349 -2.0120
18310TIP3    H276346   2.428   4.326  11.482 -0.7310 -0.8669  0.7857
18311TIP3   OH276347   1.742   2.119   3.105  0.6362 -0.1179  0.0736
18311TIP3    H176348   1.651   2.114   3.135  0.9383  0.0238  1.0435
18311TIP3    H276349   1.775   2.030   3.114  0.4704 -0.2705 -0.7228
18312TIP3   OH276350   0.066   5.647  14.305 -0.0846  0.4909  0.0319
18312TIP3    H176351   0.156   5.629  14.333 -0.0018 -1.6330 -1.4397
18312TIP3    H276352   0.012   5.594  14.364 -0.4492  1.8823  1.0164
18313TIP3   OH276353   0.918   3.407  16.882  0.1337 -0.3233 -0.3856
18313TIP3    H176354   0.970   3.387  16.805  0.2127 -2.4490  0.1448
18313TIP3    H276355   0.832   3.432  16.848  0.7390  0.7373 -1.1870
18314TIP3   OH276356   3.302   1.013   3.462 -0.4418  0.1103  0.6799
18314TIP3    H176357   3.321   0.928   3.500  1.1687  0.6098  1.0335
18314TIP3    H276358   3.352   1.015   3.380  1.3826  1.5526  1.7564
18315TIP3   OH276359   5.049   3.980   5.633  0.3058  0.0979 -0.2806
18315TIP3    H176360   5.115   3.975   5.564  1.5811 -1.5007  0.9887
18315TIP3    H276361   5.054   3.896   5.678 -0.4644  1.0860  1.7912
18316TIP3   OH276362   6.534   0.056  16.686 -0.3235 -0.1592  0.0327
18316TIP3    H176363   6.440   0.053  16.673 -0.3711 -2.2499  0.4819
18316TIP3    H276364   6.571   0.054  16.598 -0.6900 -0.4897 -0.1153
18317TIP3   OH276365   4.480   2.122   0.154  0.5126  0.0785  0.0479
18317TIP3    H176366   4.456   2.071   0.077 -1.7247 -0.4268  0.9975
18317TIP3    H276367   4.542   2.187   0.122 -0.3377 -0.1205 -2.1607
18318TIP3   OH276368   3.587   1.916   2.766 -0.3700  0.6608  0.2362
18318TIP3    H176369   3.604   1.980   2.835  1.3601 -1.2826  1.7145
18318TIP3    H276370   3.494   1.929   2.744 -0.6595  2.1156  2.0735
18319TIP3   OH276371   4.419   2.855   0.379 -0.0221 -0.1645  0.1585
18319TIP3    H176372   4.498   2.803   0.388 -0.3567 -0.7937 -0.4847
18319TIP3    H276373   4.446   2.944   0.403  0.6965 -0.5065  0.6596
18320TIP3   OH276374   4.845   3.273   5.647 -0.1066 -0.0471 -0.6810
18320TIP3    H176375   4.799   3.270   5.730  0.4991 -1.6621 -0.3638
18320TIP3    H276376   4.936   3.288   5.670 -0.1669  1.2849 -1.1928
18321TIP3   OH276377   5.064   3.409   1.568  0.5203 -0.6862 -0.1426
18321TIP3    H176378   5.126   3.355   1.519 -0.4057 -0.9064 -1.0988
18321TIP3    H276379   5.031   3.351   1.637  0.4253 -0.9776 -0.4280
18322TIP3   OH276380   1.518   0.594   4.714  0.6325 -0.1427  0.4181
18322TIP3    H176381   1.444   0.588   4.773 -0.5163  1.2107 -0.7969
18322TIP3    H276382   1.593   0.613   4.771 -0.2141 -0.0751  1.5391
18323TIP3   OH276383   3.125   3.340   0.876 -0.1517  0.3611  0.0005
18323TIP3    H176384   3.055   3.292   0.920  0.4795 -0.3704  0.2453
18323TIP3    H276385   3.116   3.317   0.783  0.4703 -0.7003  0.1799
18324TIP3   OH276386   6.499   0.370  14.681 -0.6146  0.1053 -0.4308
18324TIP3    H176387   6.560   0.317  14.733 -0.3191 -0.1112 -0.9887
18324TIP3    H276388   6.483   0.318  14.602  0.0835  1.0468 -1.2372
18325TIP3   OH276389   1.742   5.229  16.966 -0.1959 -0.6565 -0.0370
18325TIP3    H176390   1.668   5.286  16.942 -0.5872 -1.0182  0.2744
18325TIP3    H276391   1.804   5.238  16.894 -0.9699 -1.0862 -0.7742
18326TIP3   OH276392   2.750   6.309   1.703  0.2655 -0.5860 -0.0440
18326TIP3    H176393   2.758   6.264   1.788 -0.7568 -0.5248  0.0947
18326TIP3    H276394   2.657   6.330   1.696  0.5262  0.3821 -0.6905
18327TIP3   OH276395   0.953   4.719  14.916  0.1208 -0.8658 -0.6988
18327TIP3    H176396   1.014   4.703  14.988 -0.4483 -2.3778 -0.5361
18327TIP3    H276397   0.876   4.666  14.936  0.4902 -2.4661 -3.0817
18328TIP3   OH276398   4.408   6.655   1.885 -0.3378  0.2125  0.1681
18328TIP3    H176399   4.415   6.750   1.871  0.0531 -0.0504 -1.5351
18328TIP3    H276400   4.390   6.619   1.799 -0.4258 -1.2851  0.7913
18329TIP3   OH276401   5.199   4.170   6.054  0.3483  0.3407  0.3397
18329TIP3    H176402   5.288   4.162   6.019  0.7557 -0.5912  1.5037
18329TIP3    H276403   5.152   4.220   5.988  1.4687 -0.0287 -0.7901
18330TIP3   OH276404   2.162   2.392  15.365  0.0534 -0.1594  0.0455
18330TIP3    H176405   2.155   2.477  15.410 -0.8837 -2.6388  5.3356
18330TIP3    H276406   2.093   2.394  15.299 -0.9134  2.6809  0.9847
18331TIP3   OH276407   6.240   0.507  11.474 -0.2300  0.1167  0.1443
18331TIP3    H176408   6.224   0.598  11.449  0.6274  0.0018 -0.8838
18331TIP3    H276409   6.233   0.507  11.569 -1.5085  0.9947  0.0730
18332TIP3   OH276410   0.824   6.625  17.391 -0.0478  0.0767 -0.1317
18332TIP3    H176411   0.890   6.581  17.444 -0.6789 -0.2691  0.3807
18332TIP3    H276412   0.805   6.706  17.439  1.2863  1.0657 -1.1938
18333TIP3   OH276413   1.228   0.269   4.877 -0.2286  0.1465 -0.3908
18333TIP3    H176414   1.268   0.240   4.959  0.7568  0.5484 -0.7225
18333TIP3    H276415   1.143   0.305   4.903 -0.7597 -1.4667  0.2307
18334TIP3   OH276416   4.391   6.328  13.567 -0.1599 -0.2815 -0.0425
18334TIP3    H176417   4.484   6.350  13.559 -0.2290  0.0511  0.0172
18334TIP3    H276418   4.347   6.390  13.509 -0.2222 -1.5048 -1.3519
18335TIP3   OH276419   1.005   4.342  14.901  0.0089  0.7861 -0.0644
18335TIP3    H176420   1.081   4.355  14.844  0.4423  0.2066  0.3638
18335TIP3    H276421   0.931   4.335  14.841  0.5486 -0.4919 -0.6245
18336TIP3   OH276422   4.330   3.585   4.873  0.2076 -0.1033  0.3029
18336TIP3    H176423   4.294   3.669   4.900  0.5353  0.5124 -1.1005
18336TIP3    H276424   4.391   3.561   4.943  1.2468  1.5754  0.0288
18337TIP3   OH276425   1.509   0.487   0.187 -0.4278  0.6344 -0.2918
18337TIP3    H176426   1.503   0.392   0.175 -0.5522  0.4880  0.8160
18337TIP3    H276427   1.601   0.507   0.172 -0.2209  0.1944  0.3215
18338TIP3   OH276428   5.988   0.616  12.591  0.1849  0.0029 -0.1183
18338TIP3    H176429   6.073   0.656  12.571 -0.5865  0.9076 -1.7031
18338TIP3    H276430   6.008   0.523  12.601  1.3641  0.1950 -0.5147
18339TIP3   OH276431   4.293   2.970   4.892  0.2736  0.4525 -0.0609
18339TIP3    H176432   4.286   3.052   4.843  0.1399  1.3708  1.4330
18339TIP3    H276433   4.363   2.985   4.954  1.6543 -1.3285 -1.0940
18340TIP3   OH276434   0.870   1.353  16.220 -0.3437 -0.5562  0.2030
18340TIP3    H176435   0.941   1.414  16.204 -0.0713 -0.8049  0.4566
18340TIP3    H276436   0.912   1.276  16.259 -0.9352 -0.1023  1.8051
18341TIP3   OH276437   1.306   6.293   1.150  0.3013  0.1333  0.1292
18341TIP3    H176438   1.372   6.247   1.202  1.1979  1.4893  0.2362
18341TIP3    H276439   1.332   6.385   1.154 -1.5872  0.7033  0.1340
18342TIP3   OH276440   1.405   3.815  16.016  0.1842 -0.8346  0.8271
18342TIP3    H176441   1.471   3.746  16.010  0.3952 -0.5833  0.1078
18342TIP3    H276442   1.420   3.869  15.938 -1.0169 -0.9112  0.5237
18343TIP3   OH276443   5.740   4.065   0.548 -0.9954 -0.0964  0.0355
18343TIP3    H176444   5.692   3.986   0.571 -0.7123 -0.1016  0.6242
18343TIP3    H276445   5.672   4.132   0.537 -1.1970 -0.2958  0.0739
18344TIP3   OH276446   3.512   2.767  14.251  0.4388 -0.7594 -0.4277
18344TIP3    H176447   3.444   2.796  14.190 -1.3293 -1.2436  1.1979
18344TIP3    H276448   3.507   2.672  14.248 -0.8978 -0.8285  1.6227
18345TIP3   OH276449   6.361   3.217  15.334 -0.0793  0.0455  0.2043
18345TIP3    H176450   6.440   3.270  15.341 -1.1017  1.8524 -0.8671
18345TIP3    H276451   6.294   3.268  15.379 -0.7491 -1.2103  0.6779
18346TIP3   OH276452   4.861   4.488   4.754 -0.1023  0.1766 -0.0732
18346TIP3    H176453   4.902   4.501   4.840 -1.3421 -1.1272  0.7555
18346TIP3    H276454   4.843   4.577   4.723  0.4459  0.6782  0.9739
18347TIP3   OH276455   6.377   2.740   4.925 -0.3099 -0.2386 -0.0723
18347TIP3    H176456   6.440   2.709   4.861 -0.3834 -0.4063 -0.0635
18347TIP3    H276457   6.425   2.743   5.008 -0.6512 -1.5766  0.1885
18348TIP3   OH276458   3.691   1.049   2.126 -0.2879  0.0386 -0.2126
18348TIP3    H176459   3.646   0.964   2.126 -1.0055  0.3299 -3.0271
18348TIP3    H276460   3.783   1.027   2.109 -0.1316 -0.2695  0.9733
18349TIP3   OH276461   0.731   2.038  13.467  0.1843  0.7142  0.3952
18349TIP3    H176462   0.668   2.089  13.518 -0.3095 -0.1949  0.7238
18349TIP3    H276463   0.683   1.959  13.442  0.9583  0.3594 -0.0204
18350TIP3   OH276464   4.812   5.196   1.008 -0.3439 -0.0181 -0.7134
18350TIP3    H176465   4.848   5.233   1.089 -0.6745  0.4121 -0.7674
18350TIP3    H276466   4.745   5.135   1.038 -1.4123  1.1390 -0.7027
18351TIP3   OH276467   3.738   4.098   1.660 -0.0807  0.5950 -0.2701
18351TIP3    H176468   3.731   4.150   1.740  2.0006 -0.6715  0.8062
18351TIP3    H276469   3.831   4.077   1.652 -0.4781 -0.7376 -2.1012
18352TIP3   OH276470   6.460   5.075   1.733 -0.1525 -0.9752  0.9935
18352TIP3    H176471   6.419   5.046   1.815  0.0406 -0.0825  1.4104
18352TIP3    H276472   6.391   5.126   1.690  0.1366 -0.4503  1.1531
18353TIP3   OH276473   5.708   0.114  14.124 -0.7572  0.2681  0.3524
18353TIP3    H176474   5.639   0.115  14.190 -1.5732  1.5867 -0.4759
18353TIP3    H276475   5.673   0.166  14.051  0.6959  0.0989 -0.5128
18354TIP3   OH276476   1.592   1.902   1.316  0.1155  0.5109  0.1558
18354TIP3    H176477   1.629   1.892   1.403 -1.4141  0.8631  0.8800
18354TIP3    H276478   1.573   1.812   1.287 -1.9429  0.4795  1.3926
18355TIP3   OH276479   1.586   1.199  12.253  0.2657  0.0452  0.3190
18355TIP3    H176480   1.657   1.162  12.200 -0.0861  1.3015 -1.1003
18355TIP3    H276481   1.599   1.294  12.247 -1.2927  0.2842  0.3346
18356TIP3   OH276482   1.895   0.732  13.719 -0.0768 -0.5996 -0.5042
18356TIP3    H176483   1.836   0.750  13.792 -1.6760  2.3044 -2.3014
18356TIP3    H276484   1.973   0.695  13.759 -0.8953  0.8035  2.6559
18357TIP3   OH276485   5.788   3.898   0.266 -0.1071  0.3674  0.2003
18357TIP3    H176486   5.814   3.991   0.269  0.1032  0.2981  0.5538
18357TIP3    H276487   5.833   3.863   0.189 -0.8047  0.7426 -0.3908
18358TIP3   OH276488   2.044   0.884  16.510  0.1849 -0.4034 -0.2131
18358TIP3    H176489   1.997   0.900  16.592  1.1619  0.9669  0.1142
18358TIP3    H276490   2.057   0.971  16.472 -1.3790 -1.0614 -2.5258
18359TIP3   OH276491   3.293   2.288   2.283 -0.3729 -0.2489 -0.5728
18359TIP3    H176492   3.210   2.273   2.327  0.2176 -0.5671  0.4743
18359TIP3    H276493   3.292   2.229   2.208 -1.4975  0.4818 -1.1659
18360TIP3   OH276494   0.603   2.843   2.972  0.1339  0.1692  0.0719
18360TIP3    H176495   0.691   2.828   3.005 -0.1579 -0.1156  0.7353
18360TIP3    H276496   0.594   2.939   2.973 -0.1324  0.1605  1.5698
18361TIP3   OH276497   3.297   2.911   3.834 -0.9707  0.2696 -0.3311
18361TIP3    H176498   3.230   2.848   3.804 -1.7403  0.6605  0.5067
18361TIP3    H276499   3.380   2.872   3.807 -1.4246 -1.1387  0.1790
18362TIP3   OH276500   3.648   6.035  11.484 -0.3669 -0.3293 -0.1453
18362TIP3    H176501   3.599   5.995  11.556  0.1866  0.7122  0.8284
18362TIP3    H276502   3.594   6.110  11.457 -0.2828 -0.3677 -0.4271
18363TIP3   OH276503   3.091   3.820   0.051 -0.3557  0.4759 -0.6123
18363TIP3    H176504   3.028   3.773  -0.004 -0.0724 -3.1483  1.8847
18363TIP3    H276505   3.048   3.827   0.136  2.1719 -1.3759  0.9329
18364TIP3   OH276506   2.427   2.868  17.294 -0.2997 -0.4234 -0.0565
18364TIP3    H176507   2.473   2.916  17.363 -1.1098 -0.2643  0.3981
18364TIP3    H276508   2.338   2.857  17.329  0.0170 -2.8258  0.1567
18365TIP3   OH276509   3.619   2.689   0.770 -0.1814 -0.1590  0.1299
18365TIP3    H176510   3.581   2.776   0.781 -1.4826 -0.5537 -1.0252
18365TIP3    H276511   3.628   2.656   0.859 -2.5470 -0.0140  0.4859
18366TIP3   OH276512   1.329   1.361   0.024 -0.4046 -0.8152 -0.5145
18366TIP3    H176513   1.368   1.274   0.009  0.3606 -0.6963  0.6585
18366TIP3    H276514   1.286   1.354   0.109  0.2384  0.1357 -0.0942
18367TIP3   OH276515   6.127   1.225   0.051  0.1418 -0.1560  0.1509
18367TIP3    H176516   6.147   1.236   0.144 -1.1565  2.3932  0.1975
18367TIP3    H276517   6.213   1.213   0.010  1.0117  1.4179  1.3952
18368TIP3   OH276518   2.950   3.950   2.972  0.1220 -0.4216  0.0278
18368TIP3    H176519   2.963   3.876   2.913 -0.2417 -0.1220 -0.4305
18368TIP3    H276520   2.856   3.966   2.969  0.2450  0.2804 -0.1408
18369TIP3   OH276521   5.770   4.680   1.639  0.5491 -0.3289  0.0061
18369TIP3    H176522   5.728   4.635   1.713  2.4287 -2.9284 -0.3940
18369TIP3    H276523   5.773   4.772   1.666 -1.7315 -0.6711  1.7183
18370TIP3   OH276524   3.399   2.522   6.362 -0.1618  0.1298  0.1554
18370TIP3    H176525   3.435   2.551   6.278  0.5861 -2.7463 -0.6285
18370TIP3    H276526   3.429   2.588   6.425 -0.1424  1.9684 -1.7013
18371TIP3   OH276527   2.696   0.834   3.913  0.3279  0.6155  0.0065
18371TIP3    H176528   2.611   0.861   3.950  0.9524  2.5947  0.1079
18371TIP3    H276529   2.738   0.916   3.888  1.8895 -0.3926 -0.8090
18372TIP3   OH276530   4.632   1.402   4.992 -0.0206  0.2582  0.3664
18372TIP3    H176531   4.698   1.375   4.928  0.3994  1.5595  0.2206
18372TIP3    H276532   4.551   1.409   4.940  0.6396  2.8877 -0.4552
18373TIP3   OH276533   4.337   4.498  17.199  1.0055 -0.3021 -0.1223
18373TIP3    H176534   4.382   4.423  17.239  0.3550  0.6501  2.6532
18373TIP3    H276535   4.246   4.469  17.190  0.6194  0.2927  1.5387
18374TIP3   OH276536   4.515   5.768   3.319  0.2101 -0.3303 -0.0072
18374TIP3    H176537   4.530   5.747   3.227  0.5042 -1.7633  0.3399
18374TIP3    H276538   4.601   5.761   3.360  0.0769  0.2707  0.3848
18375TIP3   OH276539   3.057   2.481  17.213 -0.2839  0.0689  0.0316
18375TIP3    H176540   3.013   2.555  17.256 -0.3165 -1.6780  3.2518
18375TIP3    H276541   3.119   2.522  17.153  0.5715  2.7910  2.5655
18376TIP3   OH276542   2.939   1.757   2.335  0.3384 -0.4409 -0.0624
18376TIP3    H176543   2.879   1.781   2.405 -0.4790  0.0394 -0.9189
18376TIP3    H276544   2.907   1.672   2.304 -1.0720  0.6592 -1.7667
18377TIP3   OH276545   1.592   2.702   2.952  0.8825  0.4413  0.1915
18377TIP3    H176546   1.504   2.683   2.984 -0.5545  0.1533 -3.4499
18377TIP3    H276547   1.632   2.616   2.941 -0.0093  0.2445 -2.0247
18378TIP3   OH276548   3.503   1.060   6.434 -0.3298 -0.4149 -0.5041
18378TIP3    H176549   3.460   1.134   6.475  0.4613 -0.3138  0.1704
18378TIP3    H276550   3.483   1.069   6.341  1.7849  2.0623 -0.8135
18379TIP3   OH276551   6.300   1.648   4.295 -0.7023  0.1005 -0.3519
18379TIP3    H176552   6.234   1.585   4.324  1.3633 -2.2681 -0.4889
18379TIP3    H276553   6.300   1.640   4.199  0.3565 -0.5715 -0.3079
18380TIP3   OH276554   3.186   1.592  12.432 -0.0862  0.6916 -0.1161
18380TIP3    H176555   3.218   1.660  12.373  0.1049  0.6044 -0.1131
18380TIP3    H276556   3.110   1.556  12.388  1.3695 -0.9575 -1.4246
18381TIP3   OH276557   3.563   1.172  11.578 -0.0562  0.7700  0.2338
18381TIP3    H176558   3.488   1.212  11.621 -0.2917  0.6774 -0.0825
18381TIP3    H276559   3.526   1.096  11.532  0.4284 -0.0124  1.0895
18382TIP3   OH276560   4.839   3.895  11.974 -0.0296  0.3972  0.0655
18382TIP3    H176561   4.924   3.939  11.968  0.2567 -0.2860 -1.3289
18382TIP3    H276562   4.775   3.966  11.965  0.4199  0.6129 -2.0831
18383TIP3   OH276563   5.548   4.926  13.018  0.2966  0.0139 -0.2813
18383TIP3    H176564   5.570   5.019  13.028  1.4954 -0.3358  0.5077
18383TIP3    H276565   5.472   4.914  13.075  0.5577  0.3627  0.1449
18384TIP3   OH276566   2.866   0.092   3.359  0.0641 -0.0368  0.3989
18384TIP3    H176567   2.926   0.033   3.314  2.4467  1.5522  1.3289
18384TIP3    H276568   2.803   0.034   3.401  0.8822 -1.7831 -0.6719
18385TIP3   OH276569   4.315   4.675  12.653  0.2357 -0.4299 -0.1188
18385TIP3    H176570   4.363   4.668  12.570 -0.5071 -1.3553 -0.4889
18385TIP3    H276571   4.347   4.757  12.692 -1.5648  1.6964 -2.7140
18386TIP3   OH276572   1.443   0.750  13.095 -0.0907 -0.6189 -0.3459
18386TIP3    H176573   1.427   0.680  13.032  1.1058 -1.9946  0.7986
18386TIP3    H276574   1.515   0.800  13.058 -0.8797 -0.0243 -1.1197
18387TIP3   OH276575   5.181   2.863   4.936  0.7053  0.3089  0.0956
18387TIP3    H176576   5.187   2.904   4.850 -0.0132 -0.3411 -0.2735
18387TIP3    H276577   5.267   2.879   4.976  0.8036  1.2177 -0.4598
18388TIP3   OH276578   5.853   2.032  15.472  0.1367 -0.4010  0.4473
18388TIP3    H176579   5.763   2.004  15.459 -0.0899  0.7144 -0.5946
18388TIP3    H276580   5.878   2.071  15.388  1.7960 -1.2205  0.5256
18389TIP3   OH276581   2.438   5.895   2.197  0.2940  0.0335  0.0812
18389TIP3    H176582   2.449   5.917   2.290 -1.5840 -1.8860  0.8555
18389TIP3    H276583   2.356   5.844   2.195  1.0220 -1.1597 -2.4299
18390TIP3   OH276584   5.386   2.612   0.410  0.1462  0.2648 -0.4212
18390TIP3    H176585   5.304   2.566   0.391  0.4672 -0.2958 -0.4918
18390TIP3    H276586   5.367   2.663   0.489 -0.7759  1.5096 -1.4223
18391TIP3   OH276587   2.431   5.831  14.153  0.2060 -0.0981  0.1890
18391TIP3    H176588   2.462   5.854  14.066  2.9489  2.5060  1.6731
18391TIP3    H276589   2.485   5.756  14.178  0.9710  0.5178  0.4207
18392TIP3   OH276590   5.536   4.861   4.856 -0.2288 -0.4331 -0.3547
18392TIP3    H176591   5.618   4.906   4.834  0.2939 -0.7002  0.9815
18392TIP3    H276592   5.484   4.927   4.902  0.6527 -1.2005  1.8657
18393TIP3   OH276593   1.024   1.736  17.027  0.1884 -0.0496  0.2608
18393TIP3    H176594   0.937   1.734  17.068  0.3024  1.4563  0.6258
18393TIP3    H276595   1.068   1.657  17.059 -0.4325  0.0822  1.4609
18394TIP3   OH276596   1.600   6.059   1.080  0.3124  0.7219  0.2631
18394TIP3    H176597   1.651   6.092   1.007 -0.9957 -0.5170 -1.2716
18394TIP3    H276598   1.601   6.131   1.144  0.6185  2.2418 -1.3782
18395TIP3   OH276599   1.953   3.337   1.173  0.3134  0.0580  0.0310
18395TIP3    H176600   1.963   3.421   1.219  1.7010  0.0090 -0.1358
18395TIP3    H276601   1.998   3.274   1.228  0.6216 -0.2927 -0.6155
18396TIP3   OH276602   3.778   2.842  14.268  0.6205 -0.5333  0.0302
18396TIP3    H176603   3.698   2.820  14.221  0.9647  0.2446 -0.9781
18396TIP3    H276604   3.840   2.773  14.243  0.5350 -0.6174  0.0524
18397TIP3   OH276605   5.044   1.334   0.713 -0.1950 -0.0089 -0.3315
18397TIP3    H176606   5.118   1.371   0.665  0.8703 -2.0513 -0.3877
18397TIP3    H276607   4.990   1.409   0.736  2.4376  1.7119  0.6625
18398TIP3   OH276608   2.899   4.458   5.761 -0.7259 -0.1692 -0.2089
18398TIP3    H176609   2.863   4.541   5.794  1.0612 -0.2175  2.1649
18398TIP3    H276610   2.915   4.406   5.840  0.2233 -1.9239 -1.4885
18399TIP3   OH276611   4.231   5.625   5.028 -0.0587 -0.4433 -0.1981
18399TIP3    H176612   4.265   5.571   5.098 -0.7803 -1.6767 -0.7554
18399TIP3    H276613   4.149   5.661   5.063  1.2408  1.7304  0.7880
18400TIP3   OH276614   2.978   2.831   2.700  0.3447 -0.1916  0.6774
18400TIP3    H176615   2.908   2.892   2.677  2.0914  2.0277  0.9629
18400TIP3    H276616   3.043   2.843   2.632  2.4236  1.1522  2.7826
18401TIP3   OH276617   4.029   3.498   2.681 -0.3229  0.0344  0.8101
18401TIP3    H176618   3.946   3.460   2.653  0.0266  0.5286 -1.0286
18401TIP3    H276619   4.012   3.531   2.769 -0.8572 -3.5562  2.2154
18402TIP3   OH276620   2.680   5.854   4.366  0.0019  0.2444 -0.2861
18402TIP3    H176621   2.764   5.900   4.370  0.8900 -1.2212 -1.0326
18402TIP3    H276622   2.687   5.785   4.432  0.0399 -0.8812 -1.4327
18403TIP3   OH276623   6.596   5.329   4.284 -0.3959  0.6818 -0.0526
18403TIP3    H176624   6.597   5.292   4.372 -0.4682  1.6065  0.3489
18403TIP3    H276625   6.560   5.260   4.229  0.8830 -0.4009  0.4119
18404TIP3   OH276626   5.631   3.595   1.015  0.4115  0.0696 -0.3079
18404TIP3    H176627   5.577   3.670   0.990  1.7404  0.1407 -3.3973
18404TIP3    H276628   5.585   3.519   0.980 -0.1404 -0.4603  1.4579
18405TIP3   OH276629   1.203   2.198   3.084 -0.5465 -0.2301 -0.2108
18405TIP3    H176630   1.295   2.183   3.105 -0.8455 -1.1109  0.5286
18405TIP3    H276631   1.204   2.234   2.995  0.4427 -1.4879 -0.7396
18406TIP3   OH276632   4.105   6.019  15.232  0.3776  0.0761 -0.5265
18406TIP3    H176633   4.120   5.967  15.312  0.3982  1.3654  0.3376
18406TIP3    H276634   4.180   6.079  15.228 -0.7168  1.5249 -0.2715
18407TIP3   OH276635   1.046   6.724  16.682 -0.0434  0.6162  0.0067
18407TIP3    H176636   1.092   6.802  16.651 -0.4313  1.0781  0.5425
18407TIP3    H276637   0.959   6.757  16.706 -0.2732 -0.0212  0.0605
18408TIP3   OH276638   4.259   6.238   0.289 -0.5167  0.4214  0.1605
18408TIP3    H176639   4.264   6.301   0.217  0.1070 -1.1650 -1.2423
18408TIP3    H276640   4.170   6.203   0.285 -0.7235  0.8793  0.6594
18409TIP3   OH276641   0.375   1.203  15.508 -0.1035 -0.3014 -0.7447
18409TIP3    H176642   0.440   1.183  15.575  0.0558  1.7094 -0.2417
18409TIP3    H276643   0.291   1.185  15.550  0.0084  0.6219 -0.0968
18410TIP3   OH276644   2.021   0.811   1.642  0.2816  0.0893  0.2957
18410TIP3    H176645   2.101   0.760   1.652  1.4468  1.6276 -0.5590
18410TIP3    H276646   1.982   0.813   1.729  1.9875  0.5130  1.1020
18411TIP3   OH276647   4.103   3.780  13.706  0.4165 -0.1542 -0.9200
18411TIP3    H176648   4.071   3.690  13.698  2.2231 -0.9172 -0.0397
18411TIP3    H276649   4.194   3.775  13.676  0.9755  1.0736  0.5179
18412TIP3   OH276650   1.056   4.110  12.134 -0.5409  0.2340  0.4550
18412TIP3    H176651   1.042   4.050  12.207 -1.8984  2.0050  1.7117
18412TIP3    H276652   0.983   4.092  12.074 -1.4654  1.1894  1.2586
18413TIP3   OH276653   6.750   2.693  15.816  0.3483  0.3862  0.8746
18413TIP3    H176654   6.845   2.695  15.823  0.3752 -0.6585  1.0096
18413TIP3    H276655   6.728   2.769  15.762  1.6316 -1.7142 -3.0243
18414TIP3   OH276656   1.449   0.794   1.262 -0.2307 -0.1995 -0.0513
18414TIP3    H176657   1.407   0.818   1.344  0.5323  0.3345  0.1989
18414TIP3    H276658   1.437   0.870   1.205  0.1771 -0.1296 -0.0523
18415TIP3   OH276659   6.620   0.350   4.098 -0.1183  0.5234  0.0119
18415TIP3    H176660   6.532   0.321   4.073  0.5597 -1.2356 -0.5149
18415TIP3    H276661   6.628   0.326   4.190  0.4999 -1.2735 -0.4640
18416TIP3   OH276662   0.248   1.780   5.728  0.2890  0.3152  0.1062
18416TIP3    H176663   0.250   1.858   5.783  1.4582 -0.6869  1.5604
18416TIP3    H276664   0.337   1.771   5.695 -0.4724  1.1791 -2.4950
18417TIP3   OH276665   1.917   4.297   1.880 -0.1711  0.0984  0.2850
18417TIP3    H176666   1.844   4.261   1.830 -1.0027  1.9145  0.0947
18417TIP3    H276667   1.902   4.268   1.970  0.8755 -2.4926 -0.2952
18418TIP3   OH276668   2.361   3.943  13.286 -0.3019  0.4557  0.2390
18418TIP3    H176669   2.390   4.028  13.320  2.0024  0.3862 -1.2856
18418TIP3    H276670   2.439   3.907  13.243 -1.1438 -2.5331  0.9687
18419TIP3   OH276671   1.102   4.179  12.946  0.2366 -0.4708  0.3693
18419TIP3    H176672   1.168   4.212  13.008 -0.3975  0.6916  0.4612
18419TIP3    H276673   1.119   4.228  12.865 -0.8557  0.2498  0.5632
18420TIP3   OH276674   6.341   1.566  10.999 -0.4265  0.2024  0.1945
18420TIP3    H176675   6.373   1.621  10.927  1.0543 -0.5642  0.2406
18420TIP3    H276676   6.266   1.520  10.961  0.6389 -0.5788 -1.0596
18421TIP3   OH276677   4.166   5.768   2.378 -0.2107 -0.1026  0.0970
18421TIP3    H176678   4.176   5.799   2.288  0.4405  0.3931  0.3339
18421TIP3    H276679   4.241   5.711   2.392  0.1406  0.4764  0.5925
18422TIP3   OH276680   2.283   1.532  14.715 -0.1207 -0.2912  0.7987
18422TIP3    H176681   2.361   1.583  14.735 -0.9272  1.4864 -0.2620
18422TIP3    H276682   2.227   1.542  14.793  0.7815 -1.8036  1.6754
18423TIP3   OH276683   0.423   2.505  11.920 -0.6796 -0.5345 -0.2837
18423TIP3    H176684   0.432   2.463  11.834  0.1146 -0.3086 -0.3272
18423TIP3    H276685   0.329   2.515  11.933 -0.8685 -2.0871 -0.3846
18424TIP3   OH276686   3.438   4.027   5.486  0.8419  0.1029  0.2440
18424TIP3    H176687   3.508   3.993   5.541  0.8510  1.7635  1.3212
18424TIP3    H276688   3.482   4.057   5.407  1.6342  2.4058  1.4695
18425TIP3   OH276689   5.253   0.452   1.785 -0.2101  0.3749 -0.2936
18425TIP3    H176690   5.285   0.376   1.834 -1.0786  0.3555  0.2541
18425TIP3    H276691   5.301   0.526   1.823 -1.1437  0.4112  0.8635
18426TIP3   OH276692   0.502   3.239  14.553 -0.1196  0.6509  0.0626
18426TIP3    H176693   0.572   3.178  14.575 -0.7360  0.5903  2.0638
18426TIP3    H276694   0.546   3.324  14.544  0.2698  0.5663  1.0226
18427TIP3   OH276695   1.135   4.467   1.547 -0.4713  0.2500 -0.3811
18427TIP3    H176696   1.093   4.494   1.465 -1.4669 -0.8202 -0.2424
18427TIP3    H276697   1.100   4.380   1.565 -0.0233  0.3324  1.0270
18428TIP3   OH276698   5.872   0.720  12.857 -0.2068 -0.0251 -0.0152
18428TIP3    H176699   5.938   0.660  12.821  0.5415  1.0415 -0.4832
18428TIP3    H276700   5.842   0.771  12.782 -0.3415  0.6396  0.4801
18429TIP3   OH276701   2.412   2.138  15.148  0.2497  0.3481  0.4930
18429TIP3    H176702   2.464   2.068  15.189 -0.8259 -2.0652 -1.9730
18429TIP3    H276703   2.338   2.150  15.208 -1.3426 -3.1523 -0.5142
18430TIP3   OH276704   1.729   1.154   1.177 -0.2293  0.3592  0.6788
18430TIP3    H176705   1.645   1.154   1.222 -0.4475 -1.4230  0.3629
18430TIP3    H276706   1.773   1.074   1.208  0.9264  0.7286  0.0762
18431TIP3   OH276707   1.836   1.812   4.347  0.3292 -0.2964 -0.4753
18431TIP3    H176708   1.845   1.722   4.316  2.0857  0.1776 -1.4440
18431TIP3    H276709   1.742   1.825   4.356 -0.0358 -1.7316 -1.8162
18432TIP3   OH276710   4.077   3.653  14.477 -0.0705 -1.3876 -0.0473
18432TIP3    H176711   4.116   3.677  14.560  1.1617  0.7706 -1.1692
18432TIP3    H276712   4.151   3.635  14.419 -0.7162  0.5927 -1.6072
18433TIP3   OH276713   2.728   0.482   2.630 -0.4361 -0.0354  0.6103
18433TIP3    H176714   2.768   0.569   2.622 -0.0124 -0.3278 -0.6964
18433TIP3    H276715   2.800   0.421   2.614 -0.6648 -0.6489  1.8328
18434TIP3   OH276716   2.296   0.362   3.210  0.1872  0.2543  0.2810
18434TIP3    H176717   2.268   0.343   3.300 -0.4059 -1.3367 -0.2112
18434TIP3    H276718   2.259   0.448   3.192  0.2245  0.5559  1.5182
18435TIP3   OH276719   6.636   5.082   4.758 -0.3478 -0.2450  0.2493
18435TIP3    H176720   6.684   5.158   4.792  1.1465 -0.4765 -1.1945
18435TIP3    H276721   6.644   5.016   4.827  0.6191  0.0450  0.4324
18436TIP3   OH276722   4.679   2.861   5.458  0.3069  0.3995 -0.1088
18436TIP3    H176723   4.694   2.807   5.380  0.4533  2.0703 -1.2790
18436TIP3    H276724   4.585   2.853   5.475  0.0301  1.0436 -1.2548
18437TIP3   OH276725   1.365   1.402  16.008 -1.0171  0.1801 -0.1983
18437TIP3    H176726   1.364   1.491  16.044 -1.0365  0.9277 -1.9489
18437TIP3    H276727   1.304   1.406  15.934 -1.3892 -1.4318 -0.0053
18438TIP3   OH276728   5.583   2.766   3.243  0.2795  0.5163 -0.6346
18438TIP3    H176729   5.592   2.673   3.222  1.8174  0.3711  0.4421
18438TIP3    H276730   5.667   2.805   3.218  2.3022  0.3325  4.6073
18439TIP3   OH276731   6.324   0.154  15.004  0.3594 -0.7718  0.3365
18439TIP3    H176732   6.319   0.249  14.991 -0.0137 -0.7844  0.3742
18439TIP3    H276733   6.391   0.125  14.943 -0.3773 -0.6438 -0.5543
18440TIP3   OH276734   0.602   6.616  15.225 -0.0002  0.2133  0.1309
18440TIP3    H176735   0.644   6.663  15.297 -3.0973  2.3927  0.7304
18440TIP3    H276736   0.633   6.660  15.146 -0.4585  1.2354  0.5070
18441TIP3   OH276737   6.515   5.997   1.640 -0.2435 -0.2435  0.1126
18441TIP3    H176738   6.532   5.982   1.733  3.6382  1.0565 -0.2241
18441TIP3    H276739   6.491   5.910   1.606 -1.1959 -0.8461  2.1659
18442TIP3   OH276740   0.890   4.233  11.113 -0.5768  0.1983  0.0606
18442TIP3    H176741   0.881   4.243  11.208 -0.8141 -0.8305  0.1603
18442TIP3    H276742   0.972   4.276  11.092  0.2567 -0.8859  0.9655
18443TIP3   OH276743   4.996   5.172  15.761 -0.3560 -0.0032 -0.3876
18443TIP3    H176744   4.983   5.253  15.712 -0.9342 -0.1261 -0.4447
18443TIP3    H276745   4.997   5.200  15.853 -2.6117 -0.1459 -0.2694
18444TIP3   OH276746   0.533   1.081  13.233 -0.3217 -0.4362 -0.0929
18444TIP3    H176747   0.500   1.022  13.166 -0.3838  1.2775 -1.6560
18444TIP3    H276748   0.609   1.123  13.193  0.6485 -0.5434  1.5436
18445TIP3   OH276749   2.958   6.205  13.007 -0.7556  0.2417  0.3508
18445TIP3    H176750   2.935   6.296  13.028  2.0261  1.0912  0.1951
18445TIP3    H276751   2.878   6.167  12.973 -2.3154  2.2922  1.4813
18446TIP3   OH276752   2.898   3.590  16.490 -0.1756 -0.2004 -0.3980
18446TIP3    H176753   2.939   3.582  16.576  0.1263  0.5101 -0.4701
18446TIP3    H276754   2.806   3.611  16.509 -0.1127 -0.0607 -0.2484
18447TIP3   OH276755   0.213   5.515   1.814 -1.1543 -0.6958  0.1604
18447TIP3    H176756   0.287   5.517   1.875 -2.3066  1.9226  1.6738
18447TIP3    H276757   0.163   5.437   1.838 -0.5552 -0.7498  1.2796
18448TIP3   OH276758   6.467   3.170  17.109 -0.7281  0.7935  0.3362
18448TIP3    H176759   6.464   3.260  17.076  3.2610  0.8479 -0.3634
18448TIP3    H276760   6.423   3.174  17.195 -1.4159  3.1681 -0.0648
18449TIP3   OH276761   2.170   0.304  13.824  0.3921 -0.1427  0.0453
18449TIP3    H176762   2.143   0.212  13.824 -1.1346  0.2817 -0.6024
18449TIP3    H276763   2.221   0.314  13.905  2.1079 -1.9541 -0.7411
18450TIP3   OH276764   5.076   3.725   5.721  0.0727 -0.3925  0.3120
18450TIP3    H176765   5.085   3.711   5.815  2.5711 -3.0464 -0.1831
18450TIP3    H276766   5.164   3.714   5.686 -0.9255 -0.4955 -2.4583
18451TIP3   OH276767   3.455   3.266   0.857  0.9189  0.4392  0.0219
18451TIP3    H176768   3.487   3.335   0.798  0.1580  1.5687  0.8744
18451TIP3    H276769   3.377   3.305   0.898 -0.7157 -1.6496 -0.9083
18452TIP3   OH276770   5.987   1.297   4.937  0.8680  0.2804 -0.1410
18452TIP3    H176771   6.047   1.222   4.941 -0.2541 -0.6072  0.5578
18452TIP3    H276772   5.981   1.327   5.028 -1.2095 -0.8503  0.1363
18453TIP3   OH276773   2.669   2.512   2.033  0.1899  0.3580 -0.4068
18453TIP3    H176774   2.595   2.467   1.993  0.6020 -0.0963 -0.6810
18453TIP3    H276775   2.746   2.476   1.987  0.5728  0.8495 -0.1611
18454TIP3   OH276776   3.520   2.046   4.117 -0.4881 -0.4365 -0.0142
18454TIP3    H176777   3.577   2.112   4.077  0.8313 -1.9635 -0.8211
18454TIP3    H276778   3.437   2.054   4.071  0.1973 -0.4329 -1.3106
18455TIP3   OH276779   0.407   0.185  15.731 -0.8488 -0.3188 -0.3900
18455TIP3    H176780   0.359   0.148  15.657 -1.2063  0.5945 -0.6256
18455TIP3    H276781   0.403   0.117  15.798 -4.7183  0.5986  0.5751
18456TIP3   OH276782   2.721   5.685   0.222  0.6087 -0.1806 -0.3374
18456TIP3    H176783   2.707   5.761   0.166 -0.2094 -0.1228 -0.0677
18456TIP3    H276784   2.805   5.649   0.194  0.2280 -0.1322 -1.5746
18457TIP3   OH276785   3.888   5.398  13.873  0.0221  0.1728  0.7715
18457TIP3    H176786   3.846   5.312  13.867 -1.0072  0.4690  2.9408
18457TIP3    H276787   3.945   5.392  13.949  1.5936  0.8014 -0.2964
18458TIP3   OH276788   1.613   4.263   1.982 -0.1259  0.8958 -0.0830
18458TIP3    H176789   1.624   4.336   2.043 -1.1628  1.1811 -0.2087
18458TIP3    H276790   1.581   4.304   1.901 -0.9219  0.2991 -0.0876
18459TIP3   OH276791   4.018   6.380  15.890  0.0758  0.0498 -0.3304
18459TIP3    H176792   4.060   6.445  15.947 -0.0190  0.7161 -1.0095
18459TIP3    H276793   4.023   6.418  15.802  0.0768 -0.8904 -0.7524
18460TIP3   OH276794   2.151   2.889   0.263 -0.3881 -0.5704 -0.0070
18460TIP3    H176795   2.209   2.949   0.217 -3.1186  0.6083 -2.1750
18460TIP3    H276796   2.190   2.881   0.350  1.4126  2.4374 -0.3877
18461TIP3   OH276797   1.227   3.398   3.382  0.9110 -0.1031 -0.2491
18461TIP3    H176798   1.198   3.353   3.302 -2.1313  1.0644  0.0693
18461TIP3    H276799   1.270   3.477   3.350 -2.4644  1.6501 -0.9138
18462TIP3   OH276800   2.435   0.593  13.091  0.2363 -0.3212  0.1613
18462TIP3    H176801   2.340   0.579  13.096  0.0123 -0.4290 -2.5550
18462TIP3    H276802   2.444   0.685  13.066  1.0420  0.4035  2.7793
18463TIP3   OH276803   2.451   0.407  10.311  0.3067 -0.1190  0.1185
18463TIP3    H176804   2.483   0.365  10.231  0.3524 -3.3201  1.6189
18463TIP3    H276805   2.526   0.457  10.344  0.9129 -0.3720 -0.8483
18464TIP3   OH276806   0.152   2.729  12.981 -0.7250 -0.1179 -0.8610
18464TIP3    H176807   0.235   2.717  13.026 -1.1008  1.3761  0.3296
18464TIP3    H276808   0.089   2.680  13.034 -0.8376  0.0064 -0.8775
18465TIP3   OH276809   3.925   4.707   0.847 -0.1912  0.1779  0.2290
18465TIP3    H176810   3.871   4.757   0.908 -1.0401  0.6485 -0.8648
18465TIP3    H276811   3.990   4.770   0.816  2.3942 -0.8793  3.0439
18466TIP3   OH276812   0.524   5.355  11.623 -0.7518  0.3335 -0.5490
18466TIP3    H176813   0.588   5.304  11.574 -1.2434 -0.7134 -0.1162
18466TIP3    H276814   0.572   5.387  11.699 -1.0964 -1.7303  0.5905
18467TIP3   OH276815   1.376   0.739  12.641  0.2990  0.0958 -0.3759
18467TIP3    H176816   1.288   0.764  12.614 -0.6281 -1.0063  1.4192
18467TIP3    H276817   1.432   0.760  12.566 -1.6065  0.0573 -1.8688
18468TIP3   OH276818   3.272   2.188  14.722  0.5143 -0.4763  0.2637
18468TIP3    H176819   3.283   2.093  14.727  0.7299 -0.4196  1.0613
18468TIP3    H276820   3.286   2.218  14.812 -2.0271  0.0629  0.5450
18469TIP3   OH276821   3.625   4.591   3.071  0.0279 -0.3621  0.0670
18469TIP3    H176822   3.534   4.621   3.064  0.2100  0.1222 -0.2983
18469TIP3    H276823   3.632   4.520   3.007  0.4876  1.0913 -1.5951
18470TIP3   OH276824   4.530   6.176  12.456 -0.0576 -0.3425 -0.3497
18470TIP3    H176825   4.565   6.145  12.539 -1.5365 -0.3907  0.2891
18470TIP3    H276826   4.498   6.264  12.475  1.2888  0.3984 -1.3668
18471TIP3   OH276827   5.326   0.329   0.207 -0.1993 -0.4179  0.6277
18471TIP3    H176828   5.346   0.368   0.292 -2.2428  0.5806  0.7116
18471TIP3    H276829   5.276   0.250   0.228 -0.4285 -0.3415  0.3870
18472TIP3   OH276830   1.034   1.615  15.352 -0.7653  0.0968 -0.3389
18472TIP3    H176831   0.945   1.649  15.349 -1.6290 -1.8719  1.0290
18472TIP3    H276832   1.024   1.520  15.350  1.3820 -0.1727 -1.3370
18473TIP3   OH276833   1.561   6.628   2.894  0.5557 -0.0842  0.4479
18473TIP3    H176834   1.555   6.706   2.949  1.5818 -0.5934  1.3175
18473TIP3    H276835   1.532   6.556   2.951 -1.1708 -0.2633 -0.5887
18474TIP3   OH276836   5.034   3.327  13.571  0.1630  0.6851  0.2176
18474TIP3    H176837   5.011   3.249  13.520 -1.2821  1.9935 -1.2452
18474TIP3    H276838   5.057   3.293  13.657  2.8324 -1.6470 -1.2529
18475TIP3   OH276839   3.033   0.104   3.873 -0.0650 -0.3535  0.2526
18475TIP3    H176840   3.073   0.082   3.789  1.4940  3.4018 -0.1958
18475TIP3    H276841   2.955   0.154   3.851  1.0384  1.7922  0.8653
18476TIP3   OH276842   4.905   2.094  11.173  0.2222  0.0126  0.2351
18476TIP3    H176843   4.834   2.062  11.117 -1.1480  1.3828  1.1003
18476TIP3    H276844   4.873   2.080  11.262  0.7475  1.2341  0.6380
18477TIP3   OH276845   1.127   2.133   4.287 -0.8378 -0.2123 -0.0722
18477TIP3    H176846   1.081   2.217   4.281 -0.9188 -0.3040 -0.8190
18477TIP3    H276847   1.129   2.114   4.381 -1.6918  0.1421  0.0304
18478TIP3   OH276848   4.293   3.312   2.762  0.1074 -0.2900 -0.0146
18478TIP3    H176849   4.383   3.284   2.745  0.4459  0.2115  0.9519
18478TIP3    H276850   4.295   3.353   2.848 -0.0873  3.9603 -1.8199
18479TIP3   OH276851   3.463   5.368   0.409  0.5730 -0.1439 -0.4846
18479TIP3    H176852   3.444   5.318   0.329 -0.2631  0.8037 -0.8952
18479TIP3    H276853   3.425   5.316   0.480  0.7021 -0.6377 -0.7679
18480TIP3   OH276854   2.290   2.164   1.375 -0.1320 -0.1456  0.0160
18480TIP3    H176855   2.195   2.170   1.361 -0.1288 -1.1652 -0.5001
18480TIP3    H276856   2.328   2.199   1.294 -0.1007 -2.4011 -1.0049
18481TIP3   OH276857   2.409   5.989   3.616 -0.0042  0.1557 -0.0565
18481TIP3    H176858   2.485   5.948   3.576 -0.3568  0.4554 -1.0562
18481TIP3    H276859   2.394   5.939   3.696  0.5865 -0.5948 -0.4086
18482TIP3   OH276860   5.744   0.332  14.507  0.4281 -0.6414 -0.2384
18482TIP3    H176861   5.740   0.349  14.602 -0.3318 -0.3658 -0.3128
18482TIP3    H276862   5.801   0.401  14.473  0.5374 -0.6172 -0.0091
18483TIP3   OH276863   5.243   5.089  13.950  0.0390  0.4722  0.3439
18483TIP3    H176864   5.250   5.040  14.032 -1.3032  0.3190  0.3842
18483TIP3    H276865   5.282   5.174  13.969  1.1068 -0.0799  0.6874
18484TIP3   OH276866   2.192   6.191   3.121 -0.2608  0.1217 -0.4142
18484TIP3    H176867   2.107   6.146   3.115 -0.6673  0.3670  2.2990
18484TIP3    H276868   2.246   6.133   3.175  0.4763  1.1314 -0.0493
18485TIP3   OH276869   4.744   4.048  12.487 -0.1012  0.3865  1.1058
18485TIP3    H176870   4.798   4.000  12.550 -0.8873 -1.2036  0.6154
18485TIP3    H276871   4.669   3.991  12.471 -1.8478  2.3836  1.5597
18486TIP3   OH276872   6.723   3.138  11.023  0.6016  0.1508 -0.1775
18486TIP3    H176873   6.802   3.170  10.981  0.9654 -1.5301 -0.8465
18486TIP3    H276874   6.660   3.126  10.952  0.5394 -0.7691  0.0178
18487TIP3   OH276875   1.751   5.340  15.896  0.0874  0.0261  0.2845
18487TIP3    H176876   1.696   5.335  15.975 -0.8420  0.9241 -0.2710
18487TIP3    H276877   1.812   5.412  15.915  0.0708  0.0318  0.3181
18488TIP3   OH276878   1.766   4.512   0.693 -0.1567  0.0181  0.2437
18488TIP3    H176879   1.848   4.468   0.716  0.4009 -0.0192 -1.6284
18488TIP3    H276880   1.703   4.440   0.681 -0.0122 -0.0757  0.0402
18489TIP3   OH276881   0.806   4.028   1.846  0.5440 -0.4050  0.0968
18489TIP3    H176882   0.809   4.109   1.897 -0.6821 -1.1087  1.3614
18489TIP3    H276883   0.756   4.051   1.768  0.2906  0.0959  0.3974
18490TIP3   OH276884   3.367   0.440   3.451 -0.5773 -0.1627 -0.2103
18490TIP3    H176885   3.337   0.390   3.526  0.4228  0.3988  0.5859
18490TIP3    H276886   3.309   0.413   3.379  0.2175 -2.8048  0.0355
18491TIP3   OH276887   5.117   4.535  13.276  0.3965 -0.2146  0.2914
18491TIP3    H176888   5.078   4.498  13.197 -0.3401  0.9602  0.0878
18491TIP3    H276889   5.211   4.521  13.265  0.1461 -2.3295  0.4002
18492TIP3   OH276890   4.320   2.144   3.041  0.0125 -0.2049 -0.7081
18492TIP3    H176891   4.261   2.070   3.028  0.8363 -1.1364  0.6816
18492TIP3    H276892   4.339   2.144   3.135  0.9603  1.0589 -0.8738
18493TIP3   OH276893   5.297   3.678  12.830 -0.0972 -0.7672 -0.0957
18493TIP3    H176894   5.244   3.730  12.769  1.1853  1.1830  0.3438
18493TIP3    H276895   5.347   3.744  12.880  0.9573 -2.4181  1.1206
18494TIP3   OH276896   5.368   3.443  16.741 -0.2468  0.4652  0.6679
18494TIP3    H176897   5.441   3.474  16.795 -1.2526  1.1925  1.6555
18494TIP3    H276898   5.389   3.475  16.653  0.1358  1.5587  1.1300
18495TIP3   OH276899   5.117   0.071   0.876 -0.9119 -0.3169  0.0827
18495TIP3    H176900   5.054   0.117   0.820 -2.0134 -1.7221  0.1085
18495TIP3    H276901   5.105   0.110   0.962  0.6380  1.7082 -0.5377
18496TIP3   OH276902   2.078   6.641   4.341 -0.0347 -0.1778 -0.1371
18496TIP3    H176903   2.032   6.560   4.317 -0.9208  0.1130  0.5459
18496TIP3    H276904   2.036   6.709   4.288  0.0961 -0.0231 -0.0430
18497TIP3   OH276905   5.911   2.879   2.836  0.4111  1.1918 -0.5994
18497TIP3    H176906   5.865   2.796   2.845 -0.1005  1.2498 -2.3418
18497TIP3    H276907   5.844   2.946   2.849  0.1170  1.2800 -2.3446
18498TIP3   OH276908   1.523   5.925   2.878 -0.2325  0.7139 -0.2996
18498TIP3    H176909   1.562   5.949   2.794  0.7600 -1.4570 -0.5444
18498TIP3    H276910   1.451   5.867   2.855 -1.0510  1.4621  0.3180
18499TIP3   OH276911   4.875   5.933   2.639  0.1393  0.1329 -0.5227
18499TIP3    H176912   4.867   5.864   2.706  0.3650 -0.1269 -0.7585
18499TIP3    H276913   4.787   5.968   2.630  0.7367  3.0737  2.9226
18500TIP3   OH276914   4.672   3.348  13.624 -0.5133 -0.6151 -0.3310
18500TIP3    H176915   4.695   3.281  13.560  0.6858  1.2998 -2.0698
18500TIP3    H276916   4.588   3.383  13.594 -1.0914 -1.2333  0.5155
18501TIP3   OH276917   3.852   5.901   5.853  0.1002  0.5807 -0.4352
18501TIP3    H176918   3.806   5.892   5.936  0.2635 -1.7077 -0.5491
18501TIP3    H276919   3.782   5.914   5.788 -0.0488  1.9243 -0.0418
18502TIP3   OH276920   2.034   0.052  14.133  0.5200  0.2108  0.3852
18502TIP3    H176921   1.946   0.084  14.150  0.1903 -1.0293  1.1837
18502TIP3    H276922   2.021  -0.029  14.083  0.9822 -1.7416  3.2272
18503TIP3   OH276923   5.415   3.001  14.174  0.3952 -0.4925  0.5094
18503TIP3    H176924   5.429   3.004  14.269  0.6786  1.4124  0.4622
18503TIP3    H276925   5.483   3.058  14.139 -1.2254  0.8976 -0.5888
18504TIP3   OH276926   2.779   5.899   1.370 -0.0555 -0.5651  0.3132
18504TIP3    H176927   2.817   5.977   1.410 -0.7715 -0.4818  0.8483
18504TIP3    H276928   2.831   5.885   1.291  1.8816 -1.1838  1.6362
18505TIP3   OH276929   2.108   5.231   4.489 -0.1786  0.8451  0.0350
18505TIP3    H176930   2.027   5.277   4.470 -0.6157 -0.0327 -0.2661
18505TIP3    H276931   2.116   5.165   4.420  2.0889  2.5148 -1.4461
18506TIP3   OH276932   4.181   0.078   4.013 -0.1082  0.5402  0.0070
18506TIP3    H176933   4.183   0.058   4.107  1.5811  0.0682 -0.0974
18506TIP3    H276934   4.088   0.089   3.993 -0.4802  1.1327  1.8302
18507TIP3   OH276935   4.906   6.131  14.352  0.5105  0.2024 -0.2772
18507TIP3    H176936   4.915   6.064  14.285 -1.4461 -0.3912 -0.0129
18507TIP3    H276937   4.991   6.133  14.396  0.6530 -2.0415 -0.3474
18508TIP3   OH276938   2.591   1.638   0.524 -0.1495 -0.5384  0.3601
18508TIP3    H176939   2.508   1.595   0.543 -0.0522 -0.5614  0.7364
18508TIP3    H276940   2.656   1.584   0.569  0.0812 -0.5796 -0.0150
18509TIP3   OH276941   4.051   5.589   1.155  0.0144 -0.1060  0.3850
18509TIP3    H176942   4.080   5.675   1.122  0.4070 -0.8068 -1.1898
18509TIP3    H276943   4.032   5.604   1.247  1.2512  1.4019  0.4316
18510TIP3   OH276944   1.486   5.208   0.912 -0.2164  0.0190  0.2476
18510TIP3    H176945   1.552   5.228   0.846  0.6791 -1.9288  0.4665
18510TIP3    H276946   1.531   5.220   0.996 -0.7412  0.5789  0.4516
18511TIP3   OH276947   6.182   2.593  16.143 -0.5128  0.0024 -0.6419
18511TIP3    H176948   6.173   2.503  16.111 -0.3665 -1.3009  2.5818
18511TIP3    H276949   6.092   2.626  16.147 -0.9068 -1.1324  0.8664
18512TIP3   OH276950   6.640   0.963   4.056  0.1113  0.0594  0.1444
18512TIP3    H176951   6.731   0.953   4.029  1.2696  3.3133  2.3106
18512TIP3    H276952   6.639   0.938   4.148 -1.3899 -0.6278 -0.0283
18513TIP3   OH276953   1.928   2.224   5.693  0.2627  0.0702  0.3989
18513TIP3    H176954   1.890   2.226   5.605 -0.2301  1.0246  0.6262
18513TIP3    H276955   2.021   2.239   5.679  0.1369  0.5561  0.0632
18514TIP3   OH276956   5.006   3.596  15.597 -0.3830 -0.5935  0.3767
18514TIP3    H176957   5.087   3.545  15.594  0.4247  0.6785 -0.3602
18514TIP3    H276958   5.023   3.663  15.664 -0.9528 -0.5124  0.4398
18515TIP3   OH276959   4.557   0.311   5.457 -0.7481  0.6365  0.3762
18515TIP3    H176960   4.526   0.263   5.534 -1.0799  0.5883  0.2143
18515TIP3    H276961   4.642   0.346   5.484 -0.0766 -0.7883  0.1883
18516TIP3   OH276962   4.601   1.554  15.515 -0.2092  0.3836 -0.2040
18516TIP3    H176963   4.565   1.568  15.427  1.5275  0.9272 -0.8559
18516TIP3    H276964   4.605   1.641  15.554 -2.1083  0.0278  0.9340
18517TIP3   OH276965   5.914   5.869  13.939  0.3746  0.2836  0.2737
18517TIP3    H176966   5.901   5.905  14.026  1.0076 -1.5101  1.1668
18517TIP3    H276967   5.898   5.942  13.879  0.9416  1.8081  1.9233
18518TIP3   OH276968   6.591   1.935  13.785  0.0036 -0.7616 -0.3960
18518TIP3    H176969   6.497   1.916  13.781  0.1428 -1.7260  0.5148
18518TIP3    H276970   6.619   1.900  13.870  1.1746 -0.4147 -0.6209
18519TIP3   OH276971   1.974   6.192   5.996 -0.4623 -0.0521 -0.2680
18519TIP3    H176972   2.039   6.125   6.013 -1.1109 -0.8701 -0.9463
18519TIP3    H276973   2.021   6.259   5.946 -0.0890 -0.5232 -0.5495
18520TIP3   OH276974   4.711   5.837  14.486  0.1856 -0.1544  0.1500
18520TIP3    H176975   4.621   5.838  14.453  0.6553  0.1221 -1.1458
18520TIP3    H276976   4.766   5.829  14.408  1.4392  2.8434  0.5875
18521TIP3   OH276977   2.613   5.877   3.794  0.0426  0.1069 -0.0941
18521TIP3    H176978   2.566   5.851   3.874  1.1197  0.9392  0.8546
18521TIP3    H276979   2.589   5.811   3.729  0.8775 -1.9430  1.5531
18522TIP3   OH276980   0.509   0.865  11.398  0.3639 -0.4226  0.4987
18522TIP3    H176981   0.501   0.815  11.479  0.2992  0.5498  1.1104
18522TIP3    H276982   0.462   0.813  11.333  2.0625 -2.1927  0.6104
18523TIP3   OH276983   3.327   6.386  15.856  0.0801  0.0398  0.0008
18523TIP3    H176984   3.365   6.455  15.911  0.5634  0.6186 -1.0425
18523TIP3    H276985   3.273   6.335  15.917 -0.2691  1.3140  0.8119
18524TIP3   OH276986   1.486   0.196  17.002  0.1905 -0.1169  0.0689
18524TIP3    H176987   1.494   0.158  16.915  2.0728  1.0717 -0.3376
18524TIP3    H276988   1.576   0.205  17.033 -0.4308 -0.6714  2.2418
18525TIP3   OH276989   1.479   0.383   2.971  0.1537 -0.4708 -0.1064
18525TIP3    H176990   1.439   0.390   3.057 -1.6142 -1.0278 -0.8402
18525TIP3    H276991   1.423   0.436   2.914 -1.1910 -3.3431 -1.6766
18526TIP3   OH276992   3.965   5.361  14.641 -0.2983  0.0979 -0.4594
18526TIP3    H176993   3.982   5.440  14.590  0.9093  1.1561  1.4996
18526TIP3    H276994   3.914   5.305  14.581 -2.7472  2.9997 -1.3294
18527TIP3   OH276995   1.436   2.376  15.865 -0.4365  0.1613 -0.3554
18527TIP3    H176996   1.372   2.405  15.930 -1.7993 -0.7044 -1.2541
18527TIP3    H276997   1.383   2.339  15.794  1.0917 -2.1688 -0.3774
18528TIP3   OH276998   2.649   0.940   0.656 -0.6598  0.0775  0.4618
18528TIP3    H176999   2.598   1.021   0.653 -0.8164 -0.0291  0.2063
18528TIP3    H277000   2.584   0.871   0.645 -0.4345 -0.0508 -0.0686
18529TIP3   OH277001   6.741   3.400  11.928 -0.4868 -0.1330  0.1148
18529TIP3    H177002   6.767   3.441  11.845 -1.7887 -0.9488 -0.7327
18529TIP3    H277003   6.823   3.377  11.970  0.2166  0.9824 -0.5928
18530TIP3   OH277004   3.383   0.312   4.579 -0.5451  0.1985  0.0538
18530TIP3    H177005   3.378   0.362   4.498  0.4501  0.2795  0.0285
18530TIP3    H277006   3.462   0.346   4.623 -0.1370 -0.9892  0.2729
18531TIP3   OH277007   0.531   1.778   1.731  0.1445 -0.2832  0.0059
18531TIP3    H177008   0.562   1.694   1.698  0.8862  0.3675 -1.0300
18531TIP3    H277009   0.436   1.768   1.738  0.3641 -1.7007  1.4292
18532TIP3   OH277010   6.454   2.026   5.008  0.1172 -0.6073 -0.3139
18532TIP3    H177011   6.544   1.997   5.022  0.8815  0.8674 -1.8496
18532TIP3    H277012   6.463   2.108   4.960 -2.0791 -1.1652 -1.7973
18533TIP3   OH277013   0.498   1.170  16.996  0.3898 -0.5700  0.3201
18533TIP3    H177014   0.508   1.245  16.937  1.4865 -1.3828 -0.5924
18533TIP3    H277015   0.485   1.095  16.938 -0.4224 -1.1366  1.1990
18534TIP3   OH277016   1.654   2.860  13.871  0.0917  0.5817 -0.3789
18534TIP3    H177017   1.712   2.815  13.933  0.4227  0.2232 -0.9384
18534TIP3    H277018   1.650   2.950  13.902  0.7059  0.5369 -0.1611
18535TIP3   OH277019   5.763   2.124   0.411  0.5399  0.2930 -0.1341
18535TIP3    H177020   5.724   2.202   0.452 -0.4232  0.0347 -0.5359
18535TIP3    H277021   5.833   2.158   0.356 -2.0823  1.3198 -3.1225
18536TIP3   OH277022   4.107   6.015  13.527 -0.5561  0.6557  0.0389
18536TIP3    H177023   4.085   5.971  13.445 -0.1611  0.8663 -0.1830
18536TIP3    H277024   4.201   6.031  13.521 -0.7481  1.7928 -0.0115
18537TIP3   OH277025   5.209   2.581  13.348 -0.3550 -0.0597 -0.2900
18537TIP3    H177026   5.294   2.589  13.306  0.4905  0.8274  1.5096
18537TIP3    H277027   5.189   2.668  13.382 -2.8928  0.2463 -2.2388
18538TIP3   OH277028   6.513   4.877   5.654 -0.2628  0.3665 -0.1467
18538TIP3    H177029   6.544   4.966   5.640 -0.8988  0.6044 -0.0754
18538TIP3    H277030   6.522   4.835   5.568  1.1588  0.1314  0.0924
18539TIP3   OH277031   3.102   5.852   5.822  0.6164 -0.2320 -0.4735
18539TIP3    H177032   3.136   5.872   5.910 -1.8637  0.8025  0.3399
18539TIP3    H277033   3.064   5.765   5.830  0.4338 -0.1582 -0.5450
18540TIP3   OH277034   6.101   6.465   2.473  0.1478 -0.3298  0.2927
18540TIP3    H177035   6.020   6.422   2.445 -0.0837 -0.3157  0.9331
18540TIP3    H277036   6.096   6.467   2.568  0.5672  0.3209  0.3120
18541TIP3   OH277037   2.215   4.640  11.535 -0.6348 -0.0720 -0.0309
18541TIP3    H177038   2.196   4.728  11.568  2.1822  0.7588 -0.3417
18541TIP3    H277039   2.224   4.651  11.441  0.3013 -0.5622 -0.0084
18542TIP3   OH277040   2.242   0.651  12.599  0.0787 -0.9130  0.4428
18542TIP3    H177041   2.253   0.734  12.553 -0.3438 -0.5006  1.0783
18542TIP3    H277042   2.331   0.623  12.620  0.1658  0.9380  2.9682
18543TIP3   OH277043   6.149   4.713   2.692 -0.4786 -0.0757  0.1903
18543TIP3    H177044   6.206   4.739   2.620  0.0920  0.7267  0.8988
18543TIP3    H277045   6.147   4.790   2.750 -0.7028 -0.7750  1.1461
18544TIP3   OH277046   0.596   0.571   5.553  0.4693 -0.3936  0.5511
18544TIP3    H177047   0.549   0.611   5.480  0.2024 -0.0501  0.9024
18544TIP3    H277048   0.600   0.640   5.620  0.5023 -0.7733  0.9492
18545TIP3   OH277049   6.164   4.081   0.972 -0.2940 -0.0963 -0.1226
18545TIP3    H177050   6.205   4.000   0.942  1.9058  1.0230 -0.4263
18545TIP3    H277051   6.173   4.141   0.897  0.1351  1.0518  0.8181
18546TIP3   OH277052   5.331   2.397   3.169  0.6844 -0.2239  0.5599
18546TIP3    H177053   5.388   2.346   3.111  0.4763  0.2334 -0.0509
18546TIP3    H277054   5.328   2.484   3.130  1.1241  0.3042  1.6552
18547TIP3   OH277055   1.193   1.634   2.138  0.1463  0.5241 -0.2990
18547TIP3    H177056   1.229   1.563   2.085  0.5282 -0.5301  1.3039
18547TIP3    H277057   1.104   1.647   2.104  0.1151 -0.6386 -0.6970
18548TIP3   OH277058   3.697   2.505  13.495 -0.5820  0.2383 -0.7307
18548TIP3    H177059   3.635   2.469  13.433 -0.7241 -1.1993  0.1994
18548TIP3    H277060   3.763   2.549  13.441 -1.7988  0.8505 -1.7657
18549TIP3   OH277061   3.192   2.653   0.134  0.6106 -0.3906  0.4571
18549TIP3    H177062   3.201   2.746   0.155  1.4093 -0.1502 -0.8021
18549TIP3    H277063   3.280   2.625   0.112  0.0135 -0.7327 -1.8143
18550TIP3   OH277064   6.203   3.661   0.259 -0.3962  0.0617  0.2656
18550TIP3    H177065   6.192   3.638   0.167  0.9789  1.4831 -0.2851
18550TIP3    H277066   6.278   3.609   0.288  0.8841  1.5835 -0.1933
18551TIP3   OH277067   4.866   5.283   6.069  0.5903 -0.6618 -0.1091
18551TIP3    H177068   4.815   5.214   6.027 -0.2803  0.0287 -0.2179
18551TIP3    H277069   4.865   5.355   6.005  0.5498 -0.1597  0.4520
18552TIP3   OH277070   2.205   6.230   1.648  0.8704 -0.2227 -0.6089
18552TIP3    H177071   2.165   6.143   1.638  1.4764 -0.4442 -1.2416
18552TIP3    H277072   2.188   6.255   1.738  1.0324 -1.1842 -0.3027
18553TIP3   OH277073   5.467   3.051   0.356 -0.3134  0.1114  0.2961
18553TIP3    H177074   5.551   3.091   0.334 -0.5997  0.8439  0.4958
18553TIP3    H277075   5.403   3.122   0.346 -0.9710 -0.5362 -0.2504
18554TIP3   OH277076   5.218   6.520  15.986 -0.2199  0.2610  0.2019
18554TIP3    H177077   5.132   6.524  16.029 -1.0970  0.6769 -1.4746
18554TIP3    H277078   5.222   6.601  15.935  1.7612  0.8693  1.2563
18555TIP3   OH277079   2.255   5.958  16.845 -0.0142 -0.2680  0.2791
18555TIP3    H177080   2.252   5.888  16.780  0.0459 -0.4407  0.4606
18555TIP3    H277081   2.349   5.973  16.858 -0.0234  0.4612 -0.4126
18556TIP3   OH277082   2.342   5.719   2.487 -0.1358  0.0366  0.5489
18556TIP3    H177083   2.305   5.805   2.465 -0.3049  0.4159  2.2388
18556TIP3    H277084   2.312   5.662   2.416 -0.6676  1.1890 -0.1904
18557TIP3   OH277085   3.494   3.846   2.525 -0.3988  0.4681 -0.3804
18557TIP3    H177086   3.563   3.856   2.459 -1.7130  2.2909 -1.5406
18557TIP3    H277087   3.540   3.852   2.609  1.3573 -2.2184 -1.0029
18558TIP3   OH277088   1.294   0.314   5.900  0.4024  0.4187  0.0826
18558TIP3    H177089   1.230   0.276   5.960 -1.2454  0.1940 -1.7105
18558TIP3    H277090   1.346   0.239   5.871 -0.1145  0.1851 -0.2677
18559TIP3   OH277091   3.432   5.380   1.761  0.0554 -0.2607 -0.0317
18559TIP3    H177092   3.403   5.314   1.698 -0.2615  0.3181 -0.5081
18559TIP3    H277093   3.506   5.423   1.717  1.1093 -1.1589  0.8188
18560TIP3   OH277094   1.620   6.669  14.438 -0.0437  0.0067 -0.0344
18560TIP3    H177095   1.632   6.755  14.477 -1.0122 -0.0327  0.3835
18560TIP3    H277096   1.704   6.650  14.395 -0.0102  1.3897 -0.6245
18561TIP3   OH277097   3.625   1.834  15.265  0.1066 -0.3405 -0.7173
18561TIP3    H177098   3.677   1.814  15.343 -0.9136 -0.1846  0.0322
18561TIP3    H277099   3.587   1.920  15.283 -1.9903 -1.2810 -0.3224
18562TIP3   OH277100   3.005   4.014  16.771 -0.2323  0.0009  0.5328
18562TIP3    H177101   2.924   4.060  16.751  0.0780 -0.2059 -1.4207
18562TIP3    H277102   2.981   3.921  16.764 -0.1803 -0.0999  1.5557
18563TIP3   OH277103   3.497   1.617   5.429 -0.2292 -0.2270  0.1891
18563TIP3    H177104   3.534   1.642   5.344  0.7988 -0.1995  0.6226
18563TIP3    H277105   3.403   1.609   5.413 -0.1787  0.7308 -0.7189
18564TIP3   OH277106   5.004   6.410   1.564 -0.4560  0.3410  0.1696
18564TIP3    H177107   4.911   6.434   1.561 -0.2807  0.9703 -0.5451
18564TIP3    H277108   5.050   6.493   1.571  0.0121 -0.0369  2.8909
18565TIP3   OH277109   5.829   0.084   1.443  0.7944  0.2444  0.9491
18565TIP3    H177110   5.864   0.052   1.527  0.0446 -0.4275  1.0208
18565TIP3    H277111   5.843   0.011   1.382  0.3679  0.3137  0.7610
18566TIP3   OH277112   6.365   0.734  14.665 -0.0994  0.0340  0.2838
18566TIP3    H177113   6.452   0.754  14.631 -0.6942  0.5079 -1.0299
18566TIP3    H277114   6.337   0.657  14.616  0.1550 -1.0513  1.7712
18567TIP3   OH277115   4.886   4.620   4.108  0.2793  0.0033  1.0835
18567TIP3    H177116   4.888   4.569   4.189  0.1386 -1.1955  0.3502
18567TIP3    H277117   4.976   4.651   4.097  0.3574 -0.0516  1.5504
18568TIP3   OH277118   0.121   4.468  14.136  0.3739  0.3128 -0.4384
18568TIP3    H177119   0.036   4.511  14.133  1.3164  2.4378  0.6905
18568TIP3    H277120   0.101   4.376  14.150 -1.7355  0.5643 -1.4129
18569TIP3   OH277121   3.770   2.549   6.200  0.1088 -0.6494 -0.5470
18569TIP3    H177122   3.776   2.455   6.216  2.1977 -0.4138  0.3303
18569TIP3    H277123   3.766   2.588   6.287 -1.3923  0.0709 -0.9164
18570TIP3   OH277124   5.468   1.896   4.411  0.1390  0.1370  0.0066
18570TIP3    H177125   5.387   1.865   4.451 -0.7094  1.2842 -0.7563
18570TIP3    H277126   5.483   1.837   4.337  1.8895 -2.2005  2.0406
18571TIP3   OH277127   0.093   1.357   3.959 -0.0260 -0.7653 -0.3215
18571TIP3    H177128   0.005   1.340   3.926 -0.3648  2.7215 -1.5506
18571TIP3    H277129   0.089   1.329   4.051 -2.1764 -1.3573 -0.5337
18572TIP3   OH277130   5.132   0.415   2.371  0.0271 -0.0965 -0.2436
18572TIP3    H177131   5.132   0.393   2.278  1.6902  1.7055 -0.7511
18572TIP3    H277132   5.224   0.434   2.391 -0.3054 -0.3864  1.7692
18573TIP3   OH277133   1.876   6.422   4.501  0.2829 -0.7644 -0.0556
18573TIP3    H177134   1.855   6.478   4.426 -1.1077 -1.9246 -0.5911
18573TIP3    H277135   1.862   6.333   4.468 -1.6385 -1.2731  1.9266
18574TIP3   OH277136   3.448   2.192   1.570  0.6069  0.4461  0.1494
18574TIP3    H177137   3.444   2.126   1.639 -2.6906  0.0521 -0.2497
18574TIP3    H277138   3.496   2.151   1.499  0.2171 -0.8305  0.6022
18575TIP3   OH277139   1.636   0.235  14.423 -0.5444  0.0520  0.3372
18575TIP3    H177140   1.692   0.244  14.501 -1.8017 -0.4777  1.3380
18575TIP3    H277141   1.587   0.317  14.421 -0.5451  0.0450  0.1165
18576TIP3   OH277142   4.270   0.715   4.248 -0.3616 -0.2195 -0.3995
18576TIP3    H177143   4.176   0.730   4.258 -0.3734  1.0124 -1.9485
18576TIP3    H277144   4.311   0.788   4.293 -0.0246 -1.8114  2.0459
18577TIP3   OH277145   3.826   3.881  16.834 -0.0786  0.6177 -0.5124
18577TIP3    H177146   3.771   3.902  16.759 -2.7107 -0.3260  1.0405
18577TIP3    H277147   3.783   3.923  16.908  0.5466 -1.2036  0.9653
18578TIP3   OH277148   3.428   6.376  16.220 -0.3321 -0.0201 -0.0685
18578TIP3    H177149   3.373   6.426  16.160  0.4630 -1.6048 -2.2505
18578TIP3    H277150   3.382   6.292  16.229  0.7293 -0.6527 -0.3801
18579TIP3   OH277151   2.354   6.188  17.060  0.0604  0.2281 -0.2309
18579TIP3    H177152   2.293   6.115  17.055 -1.1049  1.1983 -0.6566
18579TIP3    H277153   2.379   6.192  17.152  0.7420 -1.1457 -0.3205
18580TIP3   OH277154   3.003   3.340  13.161  0.5131  0.8510  0.4577
18580TIP3    H177155   2.988   3.285  13.084  0.2203 -1.3740  2.0056
18580TIP3    H277156   2.937   3.312  13.224  2.0700  1.0942  2.2817
18581TIP3   OH277157   0.919   0.087  16.973  0.1347  0.7366  0.2689
18581TIP3    H177158   0.863   0.031  17.026  1.5425 -3.5892 -2.3541
18581TIP3    H277159   1.008   0.064  16.998  0.8929 -1.6966 -3.7483
18582TIP3   OH277160   0.117   6.340   5.390 -0.2883 -0.6311  0.1398
18582TIP3    H177161   0.030   6.328   5.428 -0.1121 -1.4384  0.3009
18582TIP3    H277162   0.150   6.251   5.375  1.6806 -0.4790  2.7617
18583TIP3   OH277163   0.881   1.990   0.828  0.2792  0.3930  0.6151
18583TIP3    H177164   0.914   1.998   0.917 -0.4833  0.3101  0.9123
18583TIP3    H277165   0.887   2.079   0.792 -0.4519  0.6696  1.1364
18584TIP3   OH277166   5.065   2.636  13.126 -0.4767  0.2058  0.1650
18584TIP3    H177167   5.127   2.692  13.080 -1.1866  0.6561 -0.2582
18584TIP3    H277168   5.118   2.590  13.191  0.1311  1.3346  0.4933
18585TIP3   OH277169   1.025   1.757  15.642 -0.1154  0.0237 -0.3632
18585TIP3    H177170   1.072   1.820  15.697  0.7887  0.6147 -1.7411
18585TIP3    H277171   0.948   1.804  15.611 -0.9547 -0.5070  0.8207
18586TIP3   OH277172   4.804   2.143   3.947 -0.7512  0.5873 -0.0858
18586TIP3    H177173   4.815   2.117   4.038  1.0367  2.4123  0.2830
18586TIP3    H277174   4.731   2.205   3.949 -0.5854  0.7760  0.1294
18587TIP3   OH277175   2.145   5.842  14.165  0.3329 -0.3661 -0.2787
18587TIP3    H177176   2.123   5.925  14.122 -0.0560  1.4584  3.0413
18587TIP3    H277177   2.240   5.834  14.155  0.4282  0.6902 -0.3953
18588TIP3   OH277178   2.525   5.594   1.903  0.0115  0.2050  0.6455
18588TIP3    H177179   2.581   5.653   1.954 -0.5989  1.4710 -0.1072
18588TIP3    H277180   2.437   5.629   1.914 -0.1750  0.3272 -1.0225
18589TIP3   OH277181   4.515   3.859  17.124 -0.2996 -0.3491  0.1615
18589TIP3    H177182   4.601   3.818  17.116  0.4190  0.9644  0.7880
18589TIP3    H277183   4.459   3.809  17.065  0.9212 -1.1401 -0.3707
18590TIP3   OH277184   0.324   5.512  11.527  0.1487 -0.0899 -0.5978
18590TIP3    H177185   0.290   5.449  11.463 -0.0270 -0.3290 -0.2740
18590TIP3    H277186   0.398   5.467  11.567  0.5135  0.2195 -0.9213
18591TIP3   OH277187   6.758   0.717   3.463  0.0252  0.9597  0.4814
18591TIP3    H177188   6.768   0.646   3.527 -0.2199 -0.2547 -0.7888
18591TIP3    H277189   6.836   0.771   3.476  0.0225  0.6979  1.7461
18592TIP3   OH277190   2.207   6.688   0.815  0.0604 -0.0990  0.5571
18592TIP3    H177191   2.197   6.598   0.783 -0.4739 -0.3099  1.2761
18592TIP3    H277192   2.193   6.681   0.910 -0.2567  0.7808  0.5845
18593TIP3   OH277193   5.563   2.161  17.382 -0.3473  0.8332  0.5583
18593TIP3    H177194   5.477   2.126  17.406  0.1085  0.1618  1.2522
18593TIP3    H277195   5.625   2.107  17.431  0.5416  0.3544 -1.0340
18594TIP3   OH277196   5.039   2.148  15.807  0.1407 -0.1026  0.1811
18594TIP3    H177197   4.990   2.138  15.889  2.3455  0.6761  1.7079
18594TIP3    H277198   5.016   2.235  15.776 -1.0692 -0.5830 -0.3255
18595TIP3   OH277199   6.692   4.278   3.602 -0.1697 -0.5821 -0.3572
18595TIP3    H177200   6.707   4.212   3.669 -0.6643 -1.2080 -0.8416
18595TIP3    H277201   6.701   4.362   3.647  1.3157 -0.9596  0.0866
18596TIP3   OH277202   6.579   1.153   1.388 -0.3437 -0.0884 -0.7603
18596TIP3    H177203   6.585   1.241   1.351 -1.4133 -0.0414 -0.8373
18596TIP3    H277204   6.491   1.122   1.365 -0.3045 -0.8324  0.0272
18597TIP3   OH277205   5.675   5.113  15.681 -0.7035  0.0453 -0.1343
18597TIP3    H177206   5.718   5.056  15.616  0.0194  0.7564 -0.2966
18597TIP3    H277207   5.605   5.059  15.717 -0.0516 -0.9413 -0.3024
18598TIP3   OH277208   5.631   2.541  12.451 -0.3148  0.5198 -0.7002
18598TIP3    H177209   5.582   2.577  12.525 -0.7525  1.6266 -1.4991
18598TIP3    H277210   5.663   2.456  12.482 -2.6746 -0.2146 -0.1126
18599TIP3   OH277211   0.428   2.860  13.387 -0.1810  0.2063  0.2971
18599TIP3    H177212   0.413   2.878  13.480 -3.5469 -1.9659  0.3429
18599TIP3    H277213   0.350   2.895  13.343  1.0394  0.6034 -1.6654
18600TIP3   OH277214   0.164   0.320   1.787 -0.0943 -0.1394  0.0626
18600TIP3    H177215   0.245   0.363   1.759  1.4891 -1.4712  2.2266
18600TIP3    H277216   0.162   0.238   1.739 -0.1323 -0.1156  0.0240
18601TIP3   OH277217   0.765   1.908   3.760 -0.4075  0.0825 -0.8275
18601TIP3    H177218   0.811   1.883   3.680 -2.2798  1.0921 -2.3096
18601TIP3    H277219   0.704   1.836   3.776 -1.1129  0.5838 -1.2189
18602TIP3   OH277220   1.660   2.527  15.812 -0.5474 -0.4603 -0.2717
18602TIP3    H177221   1.621   2.612  15.792 -2.4189 -0.9993  0.9154
18602TIP3    H277222   1.589   2.475  15.847  0.9340 -1.9876  0.6246
18603TIP3   OH277223   3.776   1.437  16.077 -0.1729  0.3392  0.4482
18603TIP3    H177224   3.696   1.410  16.033 -0.0731  0.1896  0.3585
18603TIP3    H277225   3.817   1.355  16.105  1.1488  0.2330 -1.5823
18604TIP3   OH277226   5.133   1.630   6.195  0.0779 -0.0845 -0.4825
18604TIP3    H177227   5.161   1.608   6.283 -1.9212 -2.1064 -0.2456
18604TIP3    H277228   5.103   1.721   6.200  0.9566  0.1547  0.6354
18605TIP3   OH277229   0.641   3.215   5.318 -0.1614 -0.3157 -0.6535
18605TIP3    H177230   0.692   3.286   5.279  0.6344 -0.4157  0.1896
18605TIP3    H277231   0.696   3.138   5.309 -0.5515 -0.6131 -0.5520
18606TIP3   OH277232   0.634   0.085  14.621  0.0699  0.0648  0.4266
18606TIP3    H177233   0.560   0.060  14.678 -0.1668  1.0357  0.5628
18606TIP3    H277234   0.603   0.163  14.576  0.5592 -0.2431 -0.4623
18607TIP3   OH277235   6.434   3.152  11.899  0.7441  0.2366  0.5662
18607TIP3    H177236   6.528   3.137  11.886  0.4807  0.0513 -1.3129
18607TIP3    H277237   6.431   3.225  11.962  2.1825  1.0713 -0.2610
18608TIP3   OH277238   0.355   4.928  11.817  0.2710 -0.4349  0.2574
18608TIP3    H177239   0.323   4.841  11.792  0.4635 -0.4109 -0.0898
18608TIP3    H277240   0.306   4.989  11.762 -0.4923 -0.2564  1.1236
18609TIP3   OH277241   6.265   6.503  13.744  0.2177  0.0780 -0.0030
18609TIP3    H177242   6.274   6.562  13.819  1.2697  0.9798 -0.8058
18609TIP3    H277243   6.173   6.511  13.717 -0.1471 -0.1910  1.1120
18610TIP3   OH277244   4.563   5.632   6.514 -0.0294 -0.1456  0.0586
18610TIP3    H177245   4.539   5.601   6.601 -1.0693  0.8611  0.1586
18610TIP3    H277246   4.519   5.717   6.506  0.6194  0.0971 -1.1791
18611TIP3   OH277247   3.408   2.680   2.189  0.2796  0.1033  0.3707
18611TIP3    H177248   3.497   2.705   2.214  0.7804 -1.2837  0.0876
18611TIP3    H277249   3.363   2.668   2.273  0.1491  1.4143  0.5153
18612TIP3   OH277250   4.342   5.961  14.714  0.4589 -0.6124  0.2340
18612TIP3    H177251   4.426   6.007  14.707  0.1001  0.1553  0.8232
18612TIP3    H277252   4.279   6.030  14.734 -0.1830 -1.2972  0.5993
18613TIP3   OH277253   4.400   6.182   6.250 -0.1300 -0.2953  0.2772
18613TIP3    H177254   4.343   6.134   6.310 -1.3622 -0.2841 -0.8507
18613TIP3    H277255   4.363   6.270   6.245  0.3990 -0.0773  0.0628
18614TIP3   OH277256   2.728   1.708  11.704 -0.0614  0.2281 -0.2698
18614TIP3    H177257   2.704   1.791  11.744  1.5291  0.5431  0.0930
18614TIP3    H277258   2.790   1.668  11.765  0.2046 -0.6230 -1.0585
18615TIP3   OH277259   1.584   3.903  15.789 -0.1554 -0.1421  0.0129
18615TIP3    H177260   1.666   3.951  15.777  0.6045 -1.6607 -1.2960
18615TIP3    H277261   1.611   3.815  15.817 -1.2315 -1.0066 -1.4893
18616TIP3   OH277262   1.991   0.070  14.495  0.2182  0.3083 -0.5686
18616TIP3    H177263   2.057   0.027  14.550 -0.2120  0.8010  0.3401
18616TIP3    H277264   2.027   0.063  14.406  0.5109 -1.2661 -0.3570
18617TIP3   OH277265   5.073   2.419  15.679 -0.8184 -0.0824  0.2041
18617TIP3    H177266   5.083   2.408  15.584 -1.8317 -0.2525  0.1115
18617TIP3    H277267   5.149   2.471  15.704 -1.4872  1.5407 -0.9805
18618TIP3   OH277268   5.640   5.222   6.318 -0.0452 -0.3578 -0.1236
18618TIP3    H177269   5.604   5.158   6.379 -2.0361 -0.2089 -1.0515
18618TIP3    H277270   5.724   5.247   6.356  0.0025 -2.2373  1.1358
18619TIP3   OH277271   5.561   5.754  11.855 -0.2767 -0.6010  0.3550
18619TIP3    H177272   5.636   5.713  11.812 -0.9981  0.3777 -2.0538
18619TIP3    H277273   5.586   5.845  11.866 -0.9466 -0.3351 -0.1895
18620TIP3   OH277274   6.333   1.216  12.716 -0.0695 -0.0986 -0.0781
18620TIP3    H177275   6.411   1.174  12.682 -0.2370 -0.6649  0.2151
18620TIP3    H277276   6.351   1.309  12.712  0.9384 -0.2465  0.7300
18621TIP3   OH277277   2.902   4.056   4.795  0.0596  0.1774 -0.4319
18621TIP3    H177278   2.818   4.023   4.828 -0.8671  2.6489 -0.1386
18621TIP3    H277279   2.966   3.992   4.827 -1.7622 -2.6801 -2.0023
18622TIP3   OH277280   0.579   1.212   6.546 -0.5924  0.2330  1.2252
18622TIP3    H177281   0.662   1.226   6.500 -0.8256  0.2145  0.7929
18622TIP3    H277282   0.515   1.196   6.476 -0.9361  0.1234  1.5606
18623TIP3   OH277283   5.617   4.669   6.034  0.2725 -0.1712  0.3750
18623TIP3    H177284   5.622   4.761   6.058  1.7802 -0.2411  0.4239
18623TIP3    H277285   5.684   4.626   6.087 -0.9031 -1.4449  0.9220
18624TIP3   OH277286   6.639   3.236   3.554  0.5125  0.0711 -0.1838
18624TIP3    H177287   6.613   3.227   3.462  1.5940  0.3091 -0.5284
18624TIP3    H277288   6.607   3.323   3.580  0.5911  0.1887 -0.4761
18625TIP3   OH277289   6.023   6.562   1.794  0.1165  0.0006 -0.3605
18625TIP3    H177290   6.086   6.606   1.850 -1.2154 -0.3127  1.4841
18625TIP3    H277291   6.036   6.469   1.810  0.3873 -0.1527 -1.3736
18626TIP3   OH277292   2.353   4.125  12.194  0.0163 -0.2903  0.3213
18626TIP3    H177293   2.307   4.201  12.159 -1.7551 -1.8265 -0.9199
18626TIP3    H277294   2.445   4.143  12.176 -0.4666  0.9401 -1.2646
18627TIP3   OH277295   3.031   2.427   4.176 -0.1598 -0.4929 -0.3011
18627TIP3    H177296   3.052   2.453   4.266  1.2880 -1.6982 -0.2453
18627TIP3    H277297   3.009   2.509   4.132  2.0720  0.5556  0.3987
18628TIP3   OH277298   4.965   5.490   3.510  0.1180  0.1762  0.0820
18628TIP3    H177299   5.049   5.532   3.492  0.3787 -0.3121  0.1542
18628TIP3    H277300   4.966   5.473   3.604 -0.7314  1.6089  0.3747
18629TIP3   OH277301   5.218   2.115   1.081  0.1486  0.0168 -0.6932
18629TIP3    H177302   5.157   2.045   1.061 -0.7606 -0.0828  2.0506
18629TIP3    H277303   5.297   2.093   1.031 -0.5689 -2.2300 -0.9437
18630TIP3   OH277304   6.119   0.082   4.521 -0.7557  0.0751 -0.2655
18630TIP3    H177305   6.214   0.093   4.520 -0.6675 -0.4557  0.7236
18630TIP3    H277306   6.098   0.065   4.613 -1.7581 -0.2403 -0.5389
18631TIP3   OH277307   1.037   0.075   0.117  0.1846 -0.6104  0.3645
18631TIP3    H177308   1.039   0.024   0.037 -0.8655  0.7985 -0.6201
18631TIP3    H277309   1.122   0.118   0.121 -0.2578  0.4417 -0.8136
18632TIP3   OH277310   3.326   1.135  14.117  0.0045 -0.1909  0.0975
18632TIP3    H177311   3.293   1.054  14.155  0.2222 -0.6041 -0.5818
18632TIP3    H277312   3.379   1.175  14.187 -0.0357 -0.6703  0.4022
18633TIP3   OH277313   1.763   3.477  16.891 -0.7345 -0.5702 -0.3080
18633TIP3    H177314   1.705   3.541  16.933 -0.5543 -0.6799  0.1148
18633TIP3    H277315   1.851   3.505  16.917 -0.6552 -0.9758 -0.1443
18634TIP3   OH277316   1.280   5.113   4.589 -0.3016 -0.3447 -0.5906
18634TIP3    H177317   1.375   5.126   4.600 -0.5294  1.1752 -0.2495
18634TIP3    H277318   1.259   5.163   4.510 -0.7100 -1.2800 -1.0800
18635TIP3   OH277319   3.687   5.551   4.002 -0.1926  0.1782 -0.1257
18635TIP3    H177320   3.683   5.646   3.996 -0.3329  0.0922 -2.5353
18635TIP3    H277321   3.750   5.525   3.934 -1.2187 -1.4953 -0.5196
18636TIP3   OH277322   6.310   1.036   0.532  0.1279  0.1522  0.4610
18636TIP3    H177323   6.405   1.023   0.536  0.4258  1.6841 -1.0036
18636TIP3    H277324   6.283   0.988   0.454 -0.1377  0.6095  0.2712
18637TIP3   OH277325   6.073   4.685  13.997 -0.1587  0.3632  0.3010
18637TIP3    H177326   6.164   4.657  13.983 -0.5280 -0.6244 -0.2458
18637TIP3    H277327   6.073   4.778  13.974  0.8428  0.5263  0.9101
18638TIP3   OH277328   2.192   5.857  12.375 -0.4280  0.7216 -0.4864
18638TIP3    H177329   2.142   5.866  12.457 -0.3114 -1.1593 -0.1739
18638TIP3    H277330   2.255   5.788  12.392  1.7984  2.4579 -1.1662
18639TIP3   OH277331   1.689   0.629   2.962  0.1148  0.0088 -0.1593
18639TIP3    H177332   1.652   0.620   3.050 -1.0658 -0.1500 -0.6545
18639TIP3    H277333   1.770   0.679   2.975 -1.2644  2.1563  0.7477
18640TIP3   OH277334   0.774   1.584   2.971 -0.3223 -0.3548 -0.5272
18640TIP3    H177335   0.808   1.670   2.996 -0.3018  0.2781 -2.5174
18640TIP3    H277336   0.852   1.528   2.964  0.3918  0.8063 -3.9967
18641TIP3   OH277337   4.232   0.636   1.774  0.3938  0.2967  0.2577
18641TIP3    H177338   4.286   0.709   1.743 -1.3081  1.0403 -1.1099
18641TIP3    H277339   4.243   0.568   1.708  0.6957 -0.0641  0.6749
18642TIP3   OH277340   3.537   4.031  12.973 -0.2787  0.6745  0.2720
18642TIP3    H177341   3.591   4.108  12.957 -0.2981  0.5804 -0.2940
18642TIP3    H277342   3.460   4.064  13.018  0.4697  0.7414  1.5665
18643TIP3   OH277343   2.852   3.932   1.981 -0.0215  0.0641 -0.3052
18643TIP3    H177344   2.859   3.963   2.072 -1.7774 -1.9419  0.6278
18643TIP3    H277345   2.775   3.875   1.982  0.7550 -1.1605 -2.7452
18644TIP3   OH277346   6.259   6.701  14.764  0.4918 -0.1935 -0.0942
18644TIP3    H177347   6.196   6.673  14.698  1.9860 -0.5834 -1.4210
18644TIP3    H277348   6.243   6.795  14.774  0.0679 -0.1817 -0.8176
18645TIP3   OH277349   3.600   4.028   4.048 -0.2566  0.4633  0.0243
18645TIP3    H177350   3.658   3.967   4.003 -0.9347  0.1031 -0.3809
18645TIP3    H277351   3.512   3.997   4.027 -0.6204  1.6802 -0.3051
18646TIP3   OH277352   0.120   6.034  11.461  0.6215 -0.5516 -0.7357
18646TIP3    H177353   0.199   6.075  11.427  1.4373 -2.0544 -0.7039
18646TIP3    H277354   0.090   5.977  11.391 -0.2013 -0.3271 -0.5829
18647TIP3   OH277355   1.672   6.729   6.001 -0.2236  0.6361 -0.0573
18647TIP3    H177356   1.657   6.725   6.095 -0.5100  0.9014 -0.0885
18647TIP3    H277357   1.646   6.818   5.976 -0.0625  0.5981 -0.3701
18648TIP3   OH277358   0.966   5.995  15.831  0.2083 -0.0776 -0.2255
18648TIP3    H177359   0.910   6.021  15.904 -0.9770 -1.8695 -0.4170
18648TIP3    H277360   1.050   6.037  15.848 -0.3592  0.4108  1.5946
18649TIP3   OH277361   1.122   0.937  11.564  0.0587 -0.0584  0.3343
18649TIP3    H177362   1.105   0.956  11.656  0.8619 -1.3185  0.7694
18649TIP3    H277363   1.039   0.902  11.530 -0.1557  0.1415  0.6545
18650TIP3   OH277364   4.367   1.870  16.051  0.0504  0.0794 -0.4826
18650TIP3    H177365   4.380   1.783  16.012 -0.2154  0.4168 -1.3452
18650TIP3    H277366   4.310   1.855  16.126 -0.9119 -0.3463 -1.2870
18651TIP3   OH277367   4.575   0.793  16.714 -0.4489  0.0667  0.6383
18651TIP3    H177368   4.534   0.708  16.729  0.4955 -0.9284 -1.9443
18651TIP3    H277369   4.509   0.843  16.666  0.4372 -0.7446 -1.5303
18652TIP3   OH277370   3.663   2.620   1.926  0.7124 -0.1093 -0.3654
18652TIP3    H177371   3.684   2.540   1.879 -0.5352 -0.0503 -1.0609
18652TIP3    H277372   3.614   2.590   2.002  1.3941 -0.0860  0.0964
18653TIP3   OH277373   0.818   1.981  15.993  0.5252  0.4370 -0.0773
18653TIP3    H177374   0.902   2.013  15.958  0.4873  1.2717  0.5527
18653TIP3    H277375   0.782   1.926  15.924  1.6399 -0.0042 -0.3202
18654TIP3   OH277376   5.317   4.781   4.346  0.3276 -0.4633  0.4432
18654TIP3    H177377   5.397   4.813   4.389 -0.1601 -0.2299  1.1926
18654TIP3    H277378   5.347   4.748   4.261  1.4815 -1.9270  1.3701
18655TIP3   OH277379   3.208   3.227   1.758 -0.2209  0.3653  0.1182
18655TIP3    H177380   3.128   3.266   1.722 -0.0008 -0.8231 -1.7941
18655TIP3    H277381   3.189   3.216   1.852 -2.6585 -0.6874 -0.4122
18656TIP3   OH277382   1.162   0.278   5.245 -0.3264 -0.3133 -0.0837
18656TIP3    H177383   1.080   0.233   5.223 -0.7042  0.7367 -0.9338
18656TIP3    H277384   1.229   0.211   5.233 -0.9331 -0.8337 -0.7097
18657TIP3   OH277385   1.800   4.874   6.652  0.0340  0.0150  0.5262
18657TIP3    H177386   1.879   4.839   6.694 -0.1305 -1.2192 -0.1558
18657TIP3    H277387   1.743   4.899   6.725  1.2042  1.3565  1.0378
18658TIP3   OH277388   5.390   0.439  15.180 -0.1412 -0.1255  0.4285
18658TIP3    H177389   5.318   0.442  15.117 -1.3928 -0.9276  1.7589
18658TIP3    H277390   5.425   0.351  15.172  1.3660  0.5585 -0.8919
18659TIP3   OH277391   1.041   0.524   3.922 -0.6868 -0.4304 -0.0061
18659TIP3    H177392   1.121   0.560   3.884 -1.9626  2.2171 -0.4262
18659TIP3    H277393   1.050   0.429   3.912  2.0640 -0.1913 -0.6291
18660TIP3   OH277394   0.800   3.668  12.203  0.4657  0.7808 -0.7003
18660TIP3    H177395   0.716   3.673  12.249  1.4523  0.0898  1.3389
18660TIP3    H277396   0.806   3.576  12.176  1.1805  0.4355  0.5299
18661TIP3   OH277397   4.023   2.441  17.241  0.1242  0.6849  0.4852
18661TIP3    H177398   3.994   2.522  17.198 -0.2695  0.3462  0.1071
18661TIP3    H277399   3.966   2.373  17.206 -2.0246  0.7650  3.4972
18662TIP3   OH277400   6.428   4.054   0.559  0.1709  0.3912  0.0055
18662TIP3    H177401   6.446   4.009   0.641  0.3826  0.6474  0.1027
18662TIP3    H277402   6.372   3.995   0.510  1.5123 -0.5671 -0.4269
18663TIP3   OH277403   5.574   2.150   1.311  0.1215 -0.0395 -0.6297
18663TIP3    H177404   5.653   2.142   1.365 -0.9713  1.7438  1.3491
18663TIP3    H277405   5.519   2.214   1.357 -2.1487 -0.6113 -2.3647
18664TIP3   OH277406   6.209   3.002   3.212 -0.0237 -0.1152 -0.2160
18664TIP3    H177407   6.300   2.976   3.225  0.8231  1.0113 -3.1647
18664TIP3    H277408   6.189   2.978   3.122 -1.9880  1.5140 -0.2944
18665TIP3   OH277409   3.872   5.205  11.667 -0.4820  0.1980  0.2174
18665TIP3    H177410   3.793   5.198  11.721 -1.0150 -0.0265 -0.5860
18665TIP3    H277411   3.913   5.287  11.696  0.2815 -0.8323  2.3203
18666TIP3   OH277412   4.618   3.337  11.626  0.0223 -0.1461  0.2097
18666TIP3    H177413   4.657   3.423  11.612  0.5008  0.0441  2.3802
18666TIP3    H277414   4.594   3.337  11.719  0.2962 -2.4579  0.3246
18667TIP3   OH277415   0.931   3.720  13.475 -0.3288 -0.5763 -0.0442
18667TIP3    H177416   0.977   3.638  13.459 -0.0383 -0.5124  0.4489
18667TIP3    H277417   0.936   3.767  13.391  1.9040  0.1218  0.4030
18668TIP3   OH277418   2.432   4.461  11.612 -0.1795 -0.0001 -0.1132
18668TIP3    H177419   2.351   4.506  11.586  0.5483  1.3719 -0.1120
18668TIP3    H277420   2.428   4.461  11.708  0.9231  2.2968 -0.0025
18669TIP3   OH277421   3.207   2.656  14.421  0.1757  0.0406  0.4024
18669TIP3    H177422   3.295   2.622  14.437  0.1114  0.9893  3.2515
18669TIP3    H277423   3.154   2.579  14.403  1.4656 -0.5796 -0.9630
18670TIP3   OH277424   1.626   4.380  11.698 -0.2586  0.1287  0.0859
18670TIP3    H177425   1.704   4.434  11.684 -1.2345  1.6176  0.1501
18670TIP3    H277426   1.649   4.324  11.772  0.6349  0.8189  0.3588
18671TIP3   OH277427   0.423   3.849  14.591  0.2206 -0.0299  0.0082
18671TIP3    H177428   0.327   3.850  14.592  0.0881 -2.4703 -1.4690
18671TIP3    H277429   0.445   3.838  14.499  1.8715 -0.6174  0.4473
18672TIP3   OH277430   6.721   0.632   5.316  0.2479  0.6956  0.1847
18672TIP3    H177431   6.804   0.584   5.310  0.0939  0.0368  2.5045
18672TIP3    H277432   6.745   0.716   5.355  0.2473  1.8975 -2.2118
18673TIP3   OH277433   5.985   6.164   2.896  0.3092  0.8627  0.5734
18673TIP3    H177434   6.018   6.093   2.842 -3.0569  1.9111 -3.2734
18673TIP3    H277435   5.908   6.128   2.940 -1.7772  2.0241 -1.8596
18674TIP3   OH277436   5.397   2.088   3.065 -0.0316  0.2971 -0.7620
18674TIP3    H177437   5.415   2.015   3.006  0.6142 -1.2861  1.2779
18674TIP3    H277438   5.303   2.083   3.081  0.0008 -0.0544 -0.6798
18675TIP3   OH277439   2.720   6.706  17.201  0.1748 -0.6857  0.0723
18675TIP3    H177440   2.626   6.712  17.219  0.4310 -1.5623  1.9776
18675TIP3    H277441   2.733   6.615  17.172  0.9072 -1.9808  3.8236
18676TIP3   OH277442   3.245   0.929   2.837 -0.3993  0.0400  0.0978
18676TIP3    H177443   3.197   1.012   2.832 -3.1403 -1.5137 -1.8742
18676TIP3    H277444   3.282   0.918   2.750  1.3528 -0.1029  0.8263
18677TIP3   OH277445   0.125   2.717  10.889  0.5979  0.1456 -0.3085
18677TIP3    H177446   0.127   2.764  10.806  0.1272 -0.1313 -0.4848
18677TIP3    H277447   0.051   2.755  10.936 -1.2994 -1.9591 -1.4124
18678TIP3   OH277448   5.240   5.412   3.799  0.1188  0.0729  0.1426
18678TIP3    H177449   5.280   5.481   3.746  2.8571 -1.6926 -0.3223
18678TIP3    H277450   5.149   5.408   3.769  0.5177  1.8322 -1.5124
18679TIP3   OH277451   5.207   2.057   4.862  0.0802  0.0585  0.8207
18679TIP3    H177452   5.279   2.024   4.809  0.2325 -0.5500  1.3897
18679TIP3    H277453   5.239   2.139   4.899  0.7876 -0.5948  1.7025
18680TIP3   OH277454   5.090   6.731   4.116 -0.2851 -0.1711  0.1373
18680TIP3    H177455   5.136   6.663   4.165  0.0358 -0.2639 -0.2859
18680TIP3    H277456   5.137   6.737   4.033 -1.0584 -0.3009 -0.3293
18681TIP3   OH277457   0.273   5.832   2.907  0.5428 -0.4070  0.0085
18681TIP3    H177458   0.179   5.837   2.890  0.3182  2.4140  1.5316
18681TIP3    H277459   0.314   5.850   2.823 -0.3031 -0.0177 -0.3318
18682TIP3   OH277460   0.205   4.215   3.592  0.1182  0.0320 -0.2509
18682TIP3    H177461   0.138   4.226   3.660 -0.7313 -2.3867 -0.6238
18682TIP3    H277462   0.287   4.232   3.638 -0.6269  2.5219  0.3430
18683TIP3   OH277463   1.865   5.735  12.011  0.0368 -0.2198 -0.1428
18683TIP3    H177464   1.807   5.794  12.059  0.2706 -0.2495  0.1797
18683TIP3    H277465   1.892   5.670  12.076  1.0899  0.2728 -0.0729
18684TIP3   OH277466   3.655   0.445   4.765 -0.2832  0.2134  0.0822
18684TIP3    H177467   3.700   0.361   4.777 -0.4239  0.1729  0.3128
18684TIP3    H277468   3.657   0.459   4.670 -1.6192 -0.7945 -0.1191
18685TIP3   OH277469   1.520   6.532   4.560 -0.0504 -0.1571  0.1469
18685TIP3    H177470   1.447   6.546   4.620 -0.1058  2.1494 -0.3646
18685TIP3    H277471   1.591   6.586   4.594  0.0570  0.8602 -1.5693
18686TIP3   OH277472   4.253   0.253   4.702  0.0627 -0.2086  0.1642
18686TIP3    H177473   4.169   0.226   4.665  0.5475 -0.2383 -0.9323
18686TIP3    H277474   4.285   0.174   4.747  1.3554 -1.5181 -2.8145
18687TIP3   OH277475   1.835   6.122  13.598  0.5347  0.1980 -0.0327
18687TIP3    H177476   1.886   6.063  13.655  1.1052  0.0310 -0.7047
18687TIP3    H277477   1.891   6.134  13.521 -2.0608 -3.3975 -2.8502
18688TIP3   OH277478   6.582   6.224   0.820  0.0992 -0.0986  0.0493
18688TIP3    H177479   6.652   6.235   0.885  0.0997 -0.7570  0.1760
18688TIP3    H277480   6.629   6.210   0.737  0.1018  0.4380 -0.0429
18689TIP3   OH277481   4.401   0.432   4.011 -0.7104 -0.1437  0.1085
18689TIP3    H177482   4.445   0.348   3.996 -0.0479  0.2871 -0.3920
18689TIP3    H277483   4.457   0.479   4.072 -0.9607  0.0336  0.2061
18690TIP3   OH277484   1.646   4.427  15.240 -0.1043 -0.1794  0.5639
18690TIP3    H177485   1.668   4.518  15.261  0.0925 -0.1210  0.1123
18690TIP3    H277486   1.709   4.375  15.291  0.8998 -0.0208 -0.4679
18691TIP3   OH277487   4.058   4.735  16.022  0.4103 -0.4305  0.1684
18691TIP3    H177488   4.042   4.829  16.023 -2.3307 -0.8119  2.0853
18691TIP3    H277489   4.093   4.715  16.109  2.0718 -1.0873 -0.6055
18692TIP3   OH277490   0.396   6.318   1.713  0.2522 -0.0415 -0.1973
18692TIP3    H177491   0.488   6.334   1.690  0.0268  1.8354  0.0862
18692TIP3    H277492   0.362   6.404   1.738 -1.7017 -0.6384 -0.6629
18693TIP3   OH277493   1.060   0.695  11.873 -0.3385 -0.1545  0.2798
18693TIP3    H177494   0.993   0.660  11.932 -0.5561  0.9977  0.7479
18693TIP3    H277495   1.014   0.715  11.792 -0.6616  0.9833  0.7266
18694TIP3   OH277496   2.068   0.314  15.087  0.4652 -0.4949 -0.8088
18694TIP3    H177497   2.037   0.340  15.000  0.3172 -1.5155 -1.0688
18694TIP3    H277498   2.017   0.369  15.147  0.7753  0.4223 -1.3615
18695TIP3   OH277499   2.463   4.859  12.335 -0.3199  0.4538  0.1779
18695TIP3    H177500   2.557   4.874  12.325 -0.2011 -0.4580 -0.0818
18695TIP3    H277501   2.423   4.938  12.297  0.3183  0.5896 -0.2398
18696TIP3   OH277502   1.916   5.417  12.007 -0.0959 -0.5124 -0.3002
18696TIP3    H177503   1.883   5.408  12.096  1.1016 -1.4160  0.0848
18696TIP3    H277504   1.844   5.458  11.959 -0.2881  1.2155  1.3504
18697TIP3   OH277505   3.081   0.040  14.442  0.4548  0.6184  0.1901
18697TIP3    H177506   3.137   0.045  14.364  1.7543  1.2942  1.1252
18697TIP3    H277507   3.002  -0.004  14.412  1.5209 -0.4552 -1.1696
18698TIP3   OH277508   1.169   5.763  15.889  0.2563  0.4573  0.1906
18698TIP3    H177509   1.103   5.832  15.898  0.1007  0.2389  0.7492
18698TIP3    H277510   1.248   5.809  15.862  0.5688  1.0721  2.0216
18699TIP3   OH277511   3.603   5.809  12.652 -0.0729 -0.0527 -0.4421
18699TIP3    H177512   3.520   5.810  12.700 -0.9256 -2.0137 -1.7663
18699TIP3    H277513   3.641   5.896  12.669 -2.2231  0.7858  0.4595
18700TIP3   OH277514   3.266   6.090   5.684  0.2146 -0.2395  0.0531
18700TIP3    H177515   3.290   6.007   5.643 -2.0615  0.4935 -3.1906
18700TIP3    H277516   3.334   6.151   5.656 -0.0395 -0.2604 -0.6183
18701TIP3   OH277517   5.992   3.748   0.558  0.2269  0.0323 -0.3226
18701TIP3    H177518   6.018   3.727   0.647 -0.8085 -3.2515 -0.6604
18701TIP3    H277519   5.916   3.805   0.567  0.7553  0.5881  0.8200
18702TIP3   OH277520   2.314   3.918   3.251 -0.6898 -0.2681 -0.2759
18702TIP3    H177521   2.389   3.892   3.304  0.9605  2.5605 -1.0207
18702TIP3    H277522   2.238   3.893   3.302  0.7410 -1.9845  1.1516
18703TIP3   OH277523   1.696   1.667  15.169  0.3331 -0.2077  0.3318
18703TIP3    H177524   1.609   1.706  15.159 -0.1180 -1.4264 -0.7947
18703TIP3    H277525   1.753   1.741  15.189 -0.2999  1.2421 -2.7386
18704TIP3   OH277526   3.072   6.629   2.014  0.3914  0.4926  0.4454
18704TIP3    H177527   3.064   6.569   1.940  1.9643  1.7636 -0.8332
18704TIP3    H277528   2.990   6.620   2.062 -0.2533 -1.1005 -0.8846
18705TIP3   OH277529   3.971   3.691  12.196 -0.4245 -0.5011  0.6783
18705TIP3    H177530   3.883   3.653  12.194 -0.3361 -0.6800 -0.5637
18705TIP3    H277531   3.978   3.740  12.115 -0.0429  1.1120  1.6555
18706TIP3   OH277532   4.605   0.778   4.537  0.2736 -0.0734 -0.3920
18706TIP3    H177533   4.700   0.781   4.522  1.0817 -0.1769  3.4937
18706TIP3    H277534   4.597   0.774   4.632 -3.6651 -1.0874 -0.6102
18707TIP3   OH277535   1.219   5.814  14.844 -0.5294  0.1910 -0.4398
18707TIP3    H177536   1.213   5.757  14.921  0.8362 -0.1297 -0.5450
18707TIP3    H277537   1.268   5.762  14.781 -0.4332  0.9958 -1.0272
18708TIP3   OH277538   2.396   5.587  14.762  0.1197 -0.3482 -0.2098
18708TIP3    H177539   2.428   5.653  14.700 -0.1489 -0.2862 -0.2864
18708TIP3    H277540   2.302   5.580  14.743  0.3658 -1.6473 -1.0284
18709TIP3   OH277541   6.420   0.915  14.859  0.4900 -0.5334 -0.8192
18709TIP3    H177542   6.371   0.832  14.855 -1.4279  0.5917 -2.6512
18709TIP3    H277543   6.507   0.893  14.824  0.0675 -1.8194 -1.1235
18710TIP3   OH277544   1.680   4.205  15.507 -0.9561 -0.5557 -0.2439
18710TIP3    H177545   1.767   4.201  15.466 -0.9013 -0.1066 -0.1736
18710TIP3    H277546   1.691   4.160  15.590 -0.5924  0.1780  0.1099
18711TIP3   OH277547   2.181   0.274   6.046  0.6170 -0.6445 -0.5175
18711TIP3    H177548   2.165   0.368   6.033  1.6492 -0.7494 -3.3159
18711TIP3    H277549   2.266   0.258   6.005  1.7530 -2.3990  2.2597
18712TIP3   OH277550   3.807   4.198   0.964 -0.2362  0.0918  0.4251
18712TIP3    H177551   3.864   4.129   0.928 -1.1355 -0.9869  1.0057
18712TIP3    H277552   3.827   4.275   0.912 -0.2805 -0.9881 -1.2779
18713TIP3   OH277553   3.828   6.115   4.068  1.3516  0.1186  1.1307
18713TIP3    H177554   3.848   6.086   3.980 -1.8653  2.1219 -0.4577
18713TIP3    H277555   3.909   6.155   4.100  3.2638 -2.6826  0.0802
18714TIP3   OH277556   4.445   0.368  14.375  0.1724 -0.1786 -0.1932
18714TIP3    H177557   4.463   0.430  14.445  1.8337  1.0701 -1.6286
18714TIP3    H277558   4.531   0.331  14.353 -0.6418 -2.3594 -0.0083
18715TIP3   OH277559   3.279   5.480   1.330 -0.1493 -0.5644  0.0631
18715TIP3    H177560   3.293   5.398   1.282  0.6391  0.2018 -1.0789
18715TIP3    H277561   3.185   5.481   1.347 -0.1998 -1.6207 -0.0470
18716TIP3   OH277562   3.230   0.752   5.108  0.0660  0.0064 -0.1395
18716TIP3    H177563   3.136   0.770   5.117  0.5665  2.5733  0.7791
18716TIP3    H277564   3.263   0.753   5.198  0.9814 -0.9492 -0.4503
18717TIP3   OH277565   0.770   2.592  17.114  0.0826 -0.1824  0.0783
18717TIP3    H177566   0.832   2.523  17.090  0.3644  0.2338 -0.3937
18717TIP3    H277567   0.738   2.566  17.201  2.3577  0.5566  1.2139
18718TIP3   OH277568   4.795   0.998   2.323  0.3375 -0.0450  0.5108
18718TIP3    H177569   4.759   1.082   2.351 -0.5007 -0.5120  0.8954
18718TIP3    H277570   4.768   0.989   2.232  2.7430  1.3050 -0.4007
18719TIP3   OH277571   4.814   6.654   2.710 -0.1113 -0.4252  0.0995
18719TIP3    H177572   4.775   6.700   2.784  0.5921  0.2663  0.0512
18719TIP3    H277573   4.876   6.593   2.750  0.6777  0.3398  0.0741
18720TIP3   OH277574   2.235   2.722  13.332  0.7712 -0.0220  0.2471
18720TIP3    H177575   2.285   2.642  13.321 -0.6531 -0.9267  0.0823
18720TIP3    H277576   2.237   2.765  13.246  1.8800  0.3450  0.4468
18721TIP3   OH277577   4.324   0.308   0.584  0.4973 -0.2965  0.6218
18721TIP3    H177578   4.237   0.282   0.616 -0.3175  0.9869 -0.4374
18721TIP3    H277579   4.327   0.403   0.598  1.4545 -0.2253  0.0242
18722TIP3   OH277580   1.928   5.332   4.291 -0.0391  0.4268 -0.3106
18722TIP3    H177581   1.967   5.396   4.231 -0.1781  0.1275 -0.7264
18722TIP3    H277582   1.873   5.277   4.235 -1.7456  1.3525  0.3833
18723TIP3   OH277583   4.049   3.713  12.986  0.1150  0.6445  0.2337
18723TIP3    H177584   4.005   3.733  12.904 -1.2273 -2.1186  0.1658
18723TIP3    H277585   4.136   3.683  12.960 -0.0258  0.5316 -0.1097
18724TIP3   OH277586   0.779   2.355   3.785  0.1611 -0.8178 -0.1082
18724TIP3    H177587   0.812   2.425   3.841 -2.2100  0.8758 -0.6634
18724TIP3    H277588   0.790   2.276   3.837  1.4819  0.1667  1.1913
18725TIP3   OH277589   2.033   1.221   4.940  0.2712 -0.2650 -0.6820
18725TIP3    H177590   1.993   1.272   5.011 -0.1039 -0.8364 -0.4732
18725TIP3    H277591   1.964   1.162   4.911  0.6878 -0.6343 -0.9382
18726TIP3   OH277592   4.436   2.976   6.082  0.3775  0.3225 -0.1086
18726TIP3    H177593   4.351   2.954   6.044  0.6807  0.4132 -0.8752
18726TIP3    H277594   4.479   3.028   6.014  0.9493  0.4822  0.3702
18727TIP3   OH277595   0.202   2.031  11.055  0.0250 -0.2232 -0.0273
18727TIP3    H177596   0.156   1.976  10.992 -0.7330 -0.9782  1.1589
18727TIP3    H277597   0.293   2.002  11.049 -0.1649 -0.7901 -0.2574
18728TIP3   OH277598   6.003   2.256  12.865  0.7279  0.4672 -0.2218
18728TIP3    H177599   6.036   2.337  12.902  0.8174  0.1524  0.4027
18728TIP3    H277600   6.076   2.221  12.814  1.2530 -0.0252  0.8282
18729TIP3   OH277601   5.550   5.791   5.741  0.0983  0.3028 -0.2559
18729TIP3    H177602   5.557   5.749   5.655 -0.9165  2.6002 -1.5479
18729TIP3    H277603   5.528   5.882   5.722  0.5406  1.0767  2.4440
18730TIP3   OH277604   2.891   5.417  14.965 -0.2415 -0.3822 -0.4702
18730TIP3    H177605   2.873   5.357  14.892 -0.8506 -0.1445 -0.5145
18730TIP3    H277606   2.805   5.446  14.995  0.0349  0.1854 -0.2084
18731TIP3   OH277607   5.586   3.402  14.006 -0.1395  0.1748 -0.2124
18731TIP3    H177608   5.626   3.417  13.920 -0.8021 -1.5901 -0.8807
18731TIP3    H277609   5.570   3.490  14.040  1.2086  0.9216 -1.3705
18732TIP3   OH277610   2.591   6.167  13.624 -0.2423  0.3799 -0.0276
18732TIP3    H177611   2.571   6.228  13.553 -1.3813 -0.4767 -0.4706
18732TIP3    H277612   2.667   6.205  13.668 -0.5045  1.7492 -0.7170
18733TIP3   OH277613   0.617   1.727   6.862 -0.3880 -0.5587 -0.1887
18733TIP3    H177614   0.625   1.784   6.785  2.0267 -0.1059  0.3309
18733TIP3    H277615   0.534   1.753   6.902 -0.9420  0.2624 -1.7715
18734TIP3   OH277616   1.517   2.748   0.070  0.3985 -0.3061 -0.1805
18734TIP3    H177617   1.428   2.768   0.096  0.3166 -0.5896 -0.2454
18734TIP3    H277618   1.508   2.700  -0.013  0.6701  1.1170 -1.0838
18735TIP3   OH277619   1.669   0.627  10.620  0.3524 -0.0906 -0.3096
18735TIP3    H177620   1.662   0.544  10.572  3.1762 -0.4371 -0.3171
18735TIP3    H277621   1.756   0.623  10.660  0.1800  2.4961  0.4525
18736TIP3   OH277622   5.727   6.540   4.385  0.6871 -0.2573  0.2293
18736TIP3    H177623   5.706   6.502   4.300  1.5065  0.0046 -0.0975
18736TIP3    H277624   5.683   6.483   4.448  1.6132 -1.5514 -0.2660
18737TIP3   OH277625   1.348   5.130  13.125  0.2832 -0.1559 -0.5866
18737TIP3    H177626   1.349   5.073  13.048  1.0713  0.4540 -1.0342
18737TIP3    H277627   1.392   5.079  13.193  3.7317  0.9620 -1.7885
18738TIP3   OH277628   3.902   0.286  13.939  0.0652 -0.3330  0.3883
18738TIP3    H177629   3.816   0.246  13.929  0.4110 -0.7639 -1.1208
18738TIP3    H277630   3.889   0.354  14.005 -0.9679 -1.6526  1.6222
18739TIP3   OH277631   5.494   3.325  13.478  0.5788 -0.2614 -0.1365
18739TIP3    H177632   5.451   3.410  13.472 -2.0119 -1.3829  1.2232
18739TIP3    H277633   5.462   3.275  13.404  1.0146 -0.5221 -0.1582
18740TIP3   OH277634   2.988   3.809   6.033 -0.3900  0.0900 -0.3124
18740TIP3    H177635   2.941   3.877   6.082 -0.2750  0.7599 -1.1123
18740TIP3    H277636   2.951   3.727   6.066  0.4994  0.4418  1.7272
18741TIP3   OH277637   6.206   4.751  16.918  0.0395 -0.2698 -0.2847
18741TIP3    H177638   6.237   4.700  16.843 -1.3531 -1.8810  0.1789
18741TIP3    H277639   6.133   4.802  16.883 -0.9918 -1.4626  0.0581
18742TIP3   OH277640   4.702   3.995  11.193  0.2684  0.0375  0.3453
18742TIP3    H177641   4.662   3.989  11.106 -0.0794 -3.0111  0.6050
18742TIP3    H277642   4.796   4.008  11.175  0.2656 -1.0365 -0.5224
18743TIP3   OH277643   0.634   1.970  14.445 -0.2810 -0.2458 -0.5408
18743TIP3    H177644   0.704   1.939  14.503 -2.8120 -0.7284  2.5722
18743TIP3    H277645   0.622   1.899  14.382  0.5811 -1.1423  0.2546
18744TIP3   OH277646   2.837   3.086   5.492 -0.2673  0.1816 -0.3143
18744TIP3    H177647   2.863   3.091   5.400  2.6912 -0.6729  0.3617
18744TIP3    H277648   2.855   3.173   5.528  3.7443 -0.7856  0.5072
18745TIP3   OH277649   2.572   2.708  12.772  0.5790  0.0471 -0.1505
18745TIP3    H177650   2.497   2.650  12.765  1.6206 -1.1642 -2.2994
18745TIP3    H277651   2.566   2.765  12.695  0.0238  2.3148  1.4862
18746TIP3   OH277652   5.281   0.945   1.089  0.0339 -0.7471 -0.8732
18746TIP3    H177653   5.272   0.969   1.182  1.4391 -1.5067 -0.5124
18746TIP3    H277654   5.201   0.897   1.069 -1.2700  1.2261 -0.6719
18747TIP3   OH277655   3.755   3.586   4.717  0.0618  0.2457 -0.0641
18747TIP3    H177656   3.838   3.625   4.688  1.2780 -1.5130  0.8603
18747TIP3    H277657   3.758   3.592   4.812 -0.2299 -1.0224  0.0428
18748TIP3   OH277658   2.842   1.309  12.048 -0.3787  0.2032  0.2320
18748TIP3    H177659   2.913   1.269  11.998 -0.3975 -0.3622  0.6422
18748TIP3    H277660   2.887   1.366  12.110 -0.4019  1.7599 -1.1281
18749TIP3   OH277661   3.125   4.301   4.860  0.1189 -0.1988 -0.6779
18749TIP3    H177662   3.152   4.393   4.861  0.0996 -0.1890 -1.0360
18749TIP3    H277663   3.073   4.291   4.940 -1.3187  0.5364 -1.4703
18750TIP3   OH277664   1.097   1.415  12.769 -0.0770 -0.5382  0.2509
18750TIP3    H177665   1.108   1.326  12.801  0.7000 -0.5947 -0.1581
18750TIP3    H277666   1.150   1.468  12.828 -0.2639 -0.3861  0.2847
18751TIP3   OH277667   6.354   4.311   1.394 -0.3829 -0.4433 -0.2871
18751TIP3    H177668   6.410   4.246   1.437 -0.9675 -0.7180  0.0797
18751TIP3    H277669   6.371   4.300   1.301  0.3679 -0.3425 -0.1671
18752TIP3   OH277670   5.678   5.960  12.041 -0.0107  0.1307  0.1480
18752TIP3    H177671   5.633   6.043  12.026 -0.1695 -0.0994 -0.7331
18752TIP3    H277672   5.607   5.898  12.059  0.1309  0.2482  1.2004
18753TIP3   OH277673   2.359   2.776   5.399 -0.4873 -0.0293  0.1430
18753TIP3    H177674   2.396   2.859   5.426 -0.1215 -0.2434  0.3111
18753TIP3    H277675   2.423   2.710   5.428 -0.1322 -0.2758 -1.1463
18754TIP3   OH277676   2.292   0.354  16.640 -0.0322 -0.1150 -0.3128
18754TIP3    H177677   2.296   0.444  16.607 -1.2166  0.0617 -0.0262
18754TIP3    H277678   2.291   0.363  16.735 -0.7602 -0.3873 -0.2857
18755TIP3   OH277679   4.275   5.787   1.631  0.5875 -0.0490 -0.1398
18755TIP3    H177680   4.198   5.786   1.688 -0.9900  3.9153 -1.8461
18755TIP3    H277681   4.331   5.856   1.666  1.9952 -0.8996 -0.6243
18756TIP3   OH277682   3.328   6.048   3.205 -0.3992 -0.1580 -0.3917
18756TIP3    H177683   3.387   6.124   3.201  0.1901 -0.6133 -3.5361
18756TIP3    H277684   3.246   6.084   3.237  0.5736  1.2696  0.6238
18757TIP3   OH277685   0.547   0.153   6.061  0.9210 -0.3424  0.4189
18757TIP3    H177686   0.544   0.060   6.083  0.6144 -0.4662 -0.1065
18757TIP3    H277687   0.518   0.198   6.140 -1.3294 -0.8228 -0.0462
18758TIP3   OH277688   1.764   3.517  14.684  0.4229  0.3484 -0.0235
18758TIP3    H177689   1.826   3.559  14.744 -1.2542  1.7072  0.8575
18758TIP3    H277690   1.692   3.488  14.740  0.4974 -1.7802 -0.9308
18759TIP3   OH277691   4.534   5.345  17.117  0.2949 -0.5538 -0.4437
18759TIP3    H177692   4.464   5.296  17.074 -0.7660 -0.4381  1.0611
18759TIP3    H277693   4.612   5.324  17.066 -0.7085 -1.1918 -1.7980
18760TIP3   OH277694   2.607   6.120   2.211 -0.0460  0.4074  0.3698
18760TIP3    H177695   2.579   6.043   2.161  1.7449  0.4672 -0.7956
18760TIP3    H277696   2.527   6.149   2.256 -1.5170 -0.2162 -1.6831
18761TIP3   OH277697   2.042   0.850   5.286  0.6377  0.0692  0.6827
18761TIP3    H177698   2.083   0.930   5.318  0.1847  0.5561  0.0705
18761TIP3    H277699   1.948   0.866   5.293  0.5384 -0.1337 -0.0743
18762TIP3   OH277700   0.206   4.626  15.732  0.5660 -0.3013 -0.3943
18762TIP3    H177701   0.196   4.654  15.823  1.8425 -0.4591 -0.1830
18762TIP3    H277702   0.140   4.675  15.684  0.5309  0.5325  0.4758
18763TIP3   OH277703   6.172   4.839  14.628  0.2885  0.2171 -0.0653
18763TIP3    H177704   6.173   4.875  14.716 -1.2794  2.3821 -0.8431
18763TIP3    H277705   6.217   4.905  14.575 -2.0053  0.7960 -1.4267
18764TIP3   OH277706   6.654   3.426  15.925 -0.1505 -0.5013 -0.2958
18764TIP3    H177707   6.572   3.378  15.929 -1.0686  1.0625  2.8780
18764TIP3    H277708   6.722   3.358  15.927 -1.3483 -1.7657 -0.9306
18765TIP3   OH277709   3.576   4.274   4.177  0.3908  0.1793  0.4946
18765TIP3    H177710   3.511   4.284   4.108 -1.4839 -0.6152  2.0753
18765TIP3    H277711   3.621   4.191   4.156  0.5493  0.4678 -0.3148
18766TIP3   OH277712   5.608   0.503   0.428  0.3039 -0.0455  0.1883
18766TIP3    H177713   5.554   0.515   0.507 -0.1588 -0.0371 -0.1279
18766TIP3    H277714   5.629   0.592   0.400 -0.1457 -0.0373 -0.1190
18767TIP3   OH277715   2.188   0.700   1.887  0.2958 -0.8677 -0.4173
18767TIP3    H177716   2.101   0.736   1.902  0.8208  0.7546 -1.1295
18767TIP3    H277717   2.186   0.668   1.797  0.9840  0.9350 -1.1153
18768TIP3   OH277718   1.268   2.691  15.364 -0.6268 -0.0500 -0.2640
18768TIP3    H177719   1.191   2.638  15.342  0.0460 -1.8193  1.3034
18768TIP3    H277720   1.342   2.639  15.333  0.0701 -0.2076  1.5370
18769TIP3   OH277721   4.894   6.075  14.705  0.0762  0.8275 -0.1804
18769TIP3    H177722   4.984   6.043  14.711  0.3711  1.7407  0.4407
18769TIP3    H277723   4.859   6.035  14.625  0.1851 -1.6039  0.8999
18770TIP3   OH277724   2.516   1.351   3.216  0.2082 -0.3391 -0.1726
18770TIP3    H177725   2.593   1.368   3.270 -0.0199 -1.1237  0.4167
18770TIP3    H277726   2.462   1.429   3.226 -0.7281 -1.2091  2.3258
18771TIP3   OH277727   1.986   6.512   1.033  0.1895 -0.5720 -0.3963
18771TIP3    H177728   2.028   6.465   0.961  0.7419 -0.7882  0.0587
18771TIP3    H277729   1.895   6.522   1.006  0.5892  0.1469 -1.5273
18772TIP3   OH277730   3.527   1.676   0.799 -0.2227  0.0653  0.0700
18772TIP3    H177731   3.568   1.596   0.833  0.1603  0.0681 -0.3648
18772TIP3    H277732   3.456   1.694   0.860 -1.4766 -1.6323 -0.8034
18773TIP3   OH277733   2.864   5.830   4.000  0.1378  0.4523 -0.2034
18773TIP3    H177734   2.803   5.824   4.074  0.7980  1.8246  0.5012
18773TIP3    H277735   2.840   5.912   3.956  1.1468  0.7518 -0.2156
18774TIP3   OH277736   3.946   2.451  14.765 -0.2641 -0.2440 -0.3100
18774TIP3    H177737   3.960   2.366  14.724 -1.7374 -0.5728 -0.1720
18774TIP3    H277738   4.033   2.493  14.764  0.2265 -1.2466 -1.4692
18775TIP3   OH277739   5.069   5.863  14.780 -0.3088 -0.3991  0.1527
18775TIP3    H177740   5.130   5.796  14.811 -0.8517 -0.5458  0.9522
18775TIP3    H277741   5.115   5.946  14.792  0.0103 -0.5623  0.0584
18776TIP3   OH277742   5.321   0.429  13.072 -0.0490 -0.2464 -0.0401
18776TIP3    H177743   5.385   0.399  13.008  0.2212  0.6864 -0.2099
18776TIP3    H277744   5.368   0.428  13.155 -0.8891 -3.1821  0.5145
18777TIP3   OH277745   6.176   1.810   3.515  0.2162  0.1208  0.3117
18777TIP3    H177746   6.097   1.815   3.460  0.4220  0.1940  0.0187
18777TIP3    H277747   6.244   1.778   3.455  0.1919 -0.8671  0.7871
18778TIP3   OH277748   4.495   3.008   2.670  0.8044  0.1995 -0.5421
18778TIP3    H177749   4.403   3.000   2.695  0.0438  0.9664 -2.8941
18778TIP3    H277750   4.519   3.097   2.695  1.0001 -0.0757  0.2811
18779TIP3   OH277751   4.802   5.646   4.470 -0.0617  0.3570 -0.2975
18779TIP3    H177752   4.877   5.699   4.442  0.5222 -2.3225 -4.6831
18779TIP3    H277753   4.840   5.580   4.528  0.1303  1.4476  0.8719
18780TIP3   OH277754   6.009   0.001  12.673  0.0076 -0.1404  0.6535
18780TIP3    H177755   6.104   0.011  12.669 -0.0658  0.8388  0.9579
18780TIP3    H277756   5.975   0.071  12.617 -0.5226 -1.0498 -0.1799
18781TIP3   OH277757   3.934   3.452  11.874 -0.4895  0.2055  0.2094
18781TIP3    H177758   4.007   3.418  11.822 -0.7392 -1.2911  0.7864
18781TIP3    H277759   3.964   3.537  11.905  0.5721  0.1010 -0.4791
18782TIP3   OH277760   5.280   5.669  13.879 -0.0646 -0.0792 -0.1159
18782TIP3    H177761   5.349   5.659  13.944  2.1465  3.2215 -1.6878
18782TIP3    H277762   5.299   5.602  13.813  1.0623  0.1576 -0.0457
18783TIP3   OH277763   4.301   6.224  15.219 -0.1530 -0.0846  0.0191
18783TIP3    H177764   4.366   6.193  15.156 -0.0114  2.6760 -1.3406
18783TIP3    H277765   4.352   6.270  15.286 -0.4828 -1.0199  0.9357
18784TIP3   OH277766   1.338   2.940  10.827  0.1023 -0.4190 -0.2038
18784TIP3    H177767   1.260   2.965  10.877 -0.3563 -0.6085 -0.8161
18784TIP3    H277768   1.374   2.865  10.874  1.4683  1.2423  1.6443
18785TIP3   OH277769   0.140   1.194   6.395  0.2932  0.4893 -0.1324
18785TIP3    H177770   0.136   1.218   6.302  0.5622 -0.3216 -0.3658
18785TIP3    H277771   0.106   1.271   6.441 -0.3138  0.7151 -0.9252
18786TIP3   OH277772   0.188   3.144  14.113 -0.3497 -0.0437 -0.7205
18786TIP3    H177773   0.135   3.223  14.108 -1.5170 -0.6464  0.9016
18786TIP3    H277774   0.212   3.137  14.206  1.6515 -0.4090 -1.2191
18787TIP3   OH277775   4.744   1.162   3.440  0.1476  0.2670  0.4336
18787TIP3    H177776   4.834   1.132   3.440  0.5402  1.0321 -2.7970
18787TIP3    H277777   4.700   1.107   3.375 -1.4332  0.6400  1.1381
18788TIP3   OH277778   5.118   1.950  13.153 -0.2636 -0.0663 -0.3301
18788TIP3    H177779   5.099   2.014  13.221  1.2244 -0.0243  0.0781
18788TIP3    H277780   5.183   1.992  13.097  0.2160 -0.9505 -0.4597
18789TIP3   OH277781   0.585   4.742   2.120  0.0031  0.3771 -0.1231
18789TIP3    H177782   0.652   4.680   2.093 -0.5195 -0.7594  1.0353
18789TIP3    H277783   0.528   4.751   2.044  1.3887  1.3124 -1.1004
18790TIP3   OH277784   4.042   0.585  11.521 -0.1584 -0.2846 -0.2149
18790TIP3    H177785   4.060   0.628  11.437 -2.7840 -0.1928 -0.7984
18790TIP3    H277786   3.947   0.574  11.524 -0.2005 -0.1376  2.8348
18791TIP3   OH277787   5.295   3.370  12.645  0.0666  0.4394  0.7297
18791TIP3    H177788   5.305   3.310  12.718  1.8064 -0.2245  0.0066
18791TIP3    H277789   5.381   3.412  12.636 -0.5217  1.5299 -0.0617
18792TIP3   OH277790   5.502   2.208   0.663 -0.6216 -0.0905 -0.3086
18792TIP3    H177791   5.438   2.170   0.724 -1.3925  0.7271 -0.5851
18792TIP3    H277792   5.451   2.230   0.585  0.0915  0.1393 -0.7187
18793TIP3   OH277793   2.466   0.705   4.807 -0.4035 -0.1009  0.0768
18793TIP3    H177794   2.537   0.761   4.776  0.8376 -1.5118  0.2652
18793TIP3    H277795   2.429   0.751   4.882 -0.2428  1.0432 -0.5361
18794TIP3   OH277796   0.520   5.834   2.109 -0.1609  0.2561  0.1054
18794TIP3    H177797   0.508   5.833   2.014 -0.7084  0.7207  0.1606
18794TIP3    H277798   0.606   5.796   2.123  0.7334  1.8505 -0.7162
18795TIP3   OH277799   1.154   4.985  11.738 -0.6150  0.0529  0.5157
18795TIP3    H177800   1.068   4.951  11.764 -0.7575 -0.0714 -0.0972
18795TIP3    H277801   1.146   5.000  11.644  0.1708 -0.3607  0.3740
18796TIP3   OH277802   1.524   0.453   5.018 -0.5782  0.2538 -0.2507
18796TIP3    H177803   1.446   0.481   4.969 -0.4090  0.6059 -0.3177
18796TIP3    H277804   1.590   0.519   4.999 -0.2405 -0.0743 -0.2394
18797TIP3   OH277805   0.094   0.581   1.490  0.2056 -0.3096 -0.2929
18797TIP3    H177806   0.042   0.503   1.511 -0.2039 -0.1127 -0.5579
18797TIP3    H277807   0.182   0.547   1.473 -0.5508 -1.0894 -3.1753
18798TIP3   OH277808   0.809   0.213   3.294  0.2592 -0.6333  0.3399
18798TIP3    H177809   0.799   0.133   3.243 -4.3824 -0.9228  1.2480
18798TIP3    H277810   0.751   0.276   3.252 -0.3293  0.4799  2.6460
18799TIP3   OH277811   1.825   4.026   6.143 -0.5153  0.1751  0.4825
18799TIP3    H177812   1.738   3.996   6.170 -1.5021  1.4592 -1.1296
18799TIP3    H277813   1.838   3.989   6.056  0.1243  0.7968  0.3025
18800TIP3   OH277814   6.112   0.670   3.189 -0.0234  0.1540 -0.1893
18800TIP3    H177815   6.189   0.638   3.142  0.9557  0.7653  0.9485
18800TIP3    H277816   6.129   0.763   3.203 -0.9061  0.2678  0.2260
18801TIP3   OH277817   5.066   1.790   0.570 -0.0398 -0.3618  0.2697
18801TIP3    H177818   5.030   1.772   0.483 -0.8168 -1.1972  0.7545
18801TIP3    H277819   5.004   1.850   0.610 -0.9465 -1.7832  1.0956
18802TIP3   OH277820   1.153   5.652  14.125  0.1429  0.0828  0.6801
18802TIP3    H177821   1.083   5.713  14.147 -0.2173 -0.4172  0.9428
18802TIP3    H277822   1.160   5.595  14.201 -0.4803 -1.0805 -0.1006
18803TIP3   OH277823   6.233   0.710  12.523  0.0430 -0.0717  0.3921
18803TIP3    H177824   6.301   0.663  12.474 -0.1595 -1.1203  1.0704
18803TIP3    H277825   6.278   0.741  12.602  0.0067  0.2450  0.2871
18804TIP3   OH277826   3.045   3.749   3.784 -0.5710 -0.3994  0.3982
18804TIP3    H177827   3.027   3.837   3.815  0.3979 -0.5457  1.4577
18804TIP3    H277828   3.093   3.761   3.702  0.1656  0.0839  0.8911
18805TIP3   OH277829   2.418   4.495  11.223  0.3275  0.6566 -0.0011
18805TIP3    H177830   2.407   4.438  11.299 -2.1457  1.7484  0.5460
18805TIP3    H277831   2.425   4.435  11.149 -0.0161 -0.3918  0.7856
18806TIP3   OH277832   6.731   3.000   3.670 -0.0275 -0.1960 -0.7620
18806TIP3    H177833   6.722   3.087   3.631  1.9929 -0.0518 -1.0007
18806TIP3    H277834   6.822   2.995   3.697 -0.9468 -0.8354  2.6957
18807TIP3   OH277835   2.214   1.198   2.731 -0.4217  0.3526  0.6539
18807TIP3    H177836   2.172   1.281   2.708 -0.1636  0.4000  0.3501
18807TIP3    H277837   2.253   1.214   2.817 -1.7048  0.0595  1.3209
18808TIP3   OH277838   2.786   2.504  16.485 -1.0295  0.4284  0.5953
18808TIP3    H177839   2.819   2.460  16.563 -0.3616  0.3671  0.2834
18808TIP3    H277840   2.777   2.596  16.511  1.2947  0.8484  0.1333
18809TIP3   OH277841   6.267   2.951   2.531 -0.7675  0.4285  1.0151
18809TIP3    H177842   6.266   2.858   2.555 -0.1472  0.4687  1.2081
18809TIP3    H277843   6.333   2.990   2.588 -0.4401  0.8324  0.3719
18810TIP3   OH277844   5.619   3.273  16.392 -0.0965 -0.7406  0.5674
18810TIP3    H177845   5.681   3.345  16.392 -1.2384  0.2685  1.1006
18810TIP3    H277846   5.656   3.209  16.331  1.2869 -0.0321  0.6315
18811TIP3   OH277847   5.436   6.555   6.107 -0.4545  0.3311  0.1016
18811TIP3    H177848   5.508   6.583   6.164  0.3056 -0.5157 -0.4045
18811TIP3    H277849   5.431   6.460   6.120 -0.8083  0.2442 -0.6332
18812TIP3   OH277850   3.941   4.873   5.882 -0.1652 -0.2852  0.5832
18812TIP3    H177851   3.901   4.955   5.853  2.8651 -0.0534 -3.7797
18812TIP3    H277852   3.868   4.811   5.886 -1.7795  1.3077 -1.6024
18813TIP3   OH277853   6.512   3.497  12.398 -0.5657  0.2225  0.1075
18813TIP3    H177854   6.579   3.544  12.348  0.0966 -1.9155 -1.1123
18813TIP3    H277855   6.456   3.458  12.331  0.0829 -2.3493  0.9511
18814TIP3   OH277856   0.468   4.346   1.640 -0.2292  0.7626  0.0830
18814TIP3    H177857   0.523   4.379   1.711  1.3799 -1.1862 -0.1615
18814TIP3    H277858   0.530   4.307   1.579 -1.7738  0.2191 -1.1879
18815TIP3   OH277859   2.914   3.306   2.339  0.1212  0.4094  0.3642
18815TIP3    H177860   2.925   3.373   2.406 -2.3187  1.7358 -0.4192
18815TIP3    H277861   2.921   3.223   2.386  2.0186  1.1884  1.5748
18816TIP3   OH277862   1.157   3.080   1.407 -0.3313 -0.3942 -0.3844
18816TIP3    H177863   1.133   3.033   1.486 -0.8452 -0.8582 -0.8179
18816TIP3    H277864   1.146   3.173   1.430  3.4760 -0.1836  1.4543
18817TIP3   OH277865   6.732   1.617  15.017  0.1245  0.0145  0.0511
18817TIP3    H177866   6.675   1.642  15.089  0.3472  0.8035 -0.0327
18817TIP3    H277867   6.679   1.558  14.963 -0.2197 -0.1600  0.5800
18818TIP3   OH277868   2.860   5.030  17.037 -0.5380  0.6013  0.4511
18818TIP3    H177869   2.786   5.057  17.091 -1.8026  1.6914 -1.6778
18818TIP3    H277870   2.837   4.943  17.006  0.0772  0.0742  1.4355
18819TIP3   OH277871   5.981   0.651   3.953 -0.0357 -0.5039 -0.0394
18819TIP3    H177872   5.993   0.559   3.978  1.0653 -0.1331  0.8781
18819TIP3    H277873   5.930   0.689   4.025 -1.1875 -0.5449 -0.7930
18820TIP3   OH277874   6.454   5.537  11.559  0.6059 -0.5976 -0.2896
18820TIP3    H177875   6.438   5.446  11.532  2.9216 -1.1246 -0.0607
18820TIP3    H277876   6.467   5.584  11.477  1.8420 -1.0090 -0.3538
18821TIP3   OH277877   5.999   4.056  17.175 -0.2684  0.2481 -0.1658
18821TIP3    H177878   6.006   3.976  17.122 -1.1280  0.4047 -0.5327
18821TIP3    H277879   6.057   4.041  17.249  0.0609 -0.4608 -0.5607
18822TIP3   OH277880   1.483   4.606   4.672  0.0729  0.3256  0.1926
18822TIP3    H177881   1.458   4.514   4.671  0.5056  0.2096 -0.2407
18822TIP3    H277882   1.406   4.651   4.707  1.0036 -0.5322  3.6526
18823TIP3   OH277883   0.299   2.476   4.450  0.1625 -0.1922 -0.4875
18823TIP3    H177884   0.282   2.407   4.386 -0.0180 -1.1366  0.5488
18823TIP3    H277885   0.220   2.530   4.448 -0.1469 -0.6433 -0.5412
18824TIP3   OH277886   0.551   5.889   3.572  0.5811 -0.1932 -0.3987
18824TIP3    H177887   0.636   5.919   3.606  0.3854  0.3150 -0.3525
18824TIP3    H277888   0.531   5.949   3.500  0.7655 -0.9733 -1.1208
18825TIP3   OH277889   4.877   4.767  12.796  0.4279 -0.9835  0.5456
18825TIP3    H177890   4.845   4.832  12.733  3.4831  1.8943  1.7033
18825TIP3    H277891   4.804   4.756  12.858 -0.5565  0.5626 -0.2763
18826TIP3   OH277892   4.986   6.608   0.222  0.5943 -0.3228 -0.6969
18826TIP3    H177893   4.935   6.634   0.146  0.6593  1.5705 -0.1572
18826TIP3    H277894   5.076   6.631   0.199  0.6261  0.1756 -0.1095
18827TIP3   OH277895   6.623   4.582  10.856  0.3711 -0.3949  0.0307
18827TIP3    H177896   6.552   4.535  10.813 -0.5688  0.4449  0.6248
18827TIP3    H277897   6.606   4.571  10.950 -0.0896  1.3945  0.1953
18828TIP3   OH277898   1.982   2.008   0.857  0.3975  0.1607 -0.2293
18828TIP3    H177899   1.980   2.043   0.946  1.7094 -0.5342  0.0953
18828TIP3    H277900   1.931   2.070   0.806  0.4241  1.0889  0.8354
18829TIP3   OH277901   6.359   1.524   1.542 -0.3172 -0.5805 -0.2832
18829TIP3    H177902   6.327   1.447   1.589 -0.5287 -0.9146 -0.9575
18829TIP3    H277903   6.446   1.498   1.512  0.2563  0.0120  0.8033
18830TIP3   OH277904   2.353   4.976  17.235  0.3092  0.2338  0.5047
18830TIP3    H177905   2.413   5.031  17.286 -0.7357  0.1239  1.9129
18830TIP3    H277906   2.266   4.999  17.268 -0.1972 -1.8955  0.7870
18831TIP3   OH277907   6.078   5.501   1.277 -0.3164 -0.4006 -0.0446
18831TIP3    H177908   6.056   5.434   1.341  2.5097 -1.2717  0.1757
18831TIP3    H277909   6.059   5.460   1.192 -1.9627 -0.0754  0.1338
18832TIP3   OH277910   3.819   2.335   3.598  0.1249 -0.0224 -0.0252
18832TIP3    H177911   3.762   2.299   3.530  1.0792 -0.7007 -0.4885
18832TIP3    H277912   3.898   2.360   3.552  0.7006 -0.2761  0.8073
18833TIP3   OH277913   2.569   5.250  13.432 -0.2283  0.3061 -0.1186
18833TIP3    H177914   2.617   5.171  13.407 -0.2240  0.3197 -0.1549
18833TIP3    H277915   2.599   5.270  13.520  1.8966  1.8630 -1.1208
18834TIP3   OH277916   1.339   6.201  12.098  0.1341  0.3364 -0.5893
18834TIP3    H177917   1.342   6.279  12.043  1.5799  0.6681 -0.0772
18834TIP3    H277918   1.258   6.210  12.148  0.0284  1.2516 -0.9080
18835TIP3   OH277919   2.894   2.529  15.845 -0.3566  0.4356 -0.0777
18835TIP3    H177920   2.810   2.575  15.849 -1.0150 -0.7773  2.4289
18835TIP3    H277921   2.938   2.553  15.927 -0.1440 -2.1836  0.6548
18836TIP3   OH277922   0.575   5.388   3.445  0.4410 -0.5177 -0.4106
18836TIP3    H177923   0.518   5.464   3.440  2.7129  1.3170 -0.2207
18836TIP3    H277924   0.569   5.359   3.536  0.4931  0.2338 -0.1636
18837TIP3   OH277925   4.981   2.131  13.352 -0.0837 -0.7973  0.2626
18837TIP3    H177926   4.921   2.074  13.400 -1.3150  1.2948  1.3585
18837TIP3    H277927   5.045   2.159  13.417 -0.2853  0.0929  0.0952
18838TIP3   OH277928   2.139   1.373  14.248 -0.1599 -0.6812 -0.3661
18838TIP3    H177929   2.208   1.331  14.197  0.0346 -0.9436  0.1087
18838TIP3    H277930   2.172   1.373  14.338  0.5964  1.9863 -0.5606
18839TIP3   OH277931   4.951   2.007   2.416 -0.3863 -0.0652  0.1982
18839TIP3    H177932   5.038   1.980   2.386 -0.8555 -1.1986 -0.2080
18839TIP3    H277933   4.903   2.027   2.335 -1.7501 -3.4048  0.0385
18840TIP3   OH277934   3.677   6.270   4.823 -0.0026 -0.1103 -0.4040
18840TIP3    H177935   3.722   6.351   4.798  0.3495  0.0120  0.5690
18840TIP3    H277936   3.592   6.299   4.856  0.7929  0.0895  1.6627
18841TIP3   OH277937   5.176   3.445  12.938 -0.0555 -0.4988  0.4052
18841TIP3    H177938   5.114   3.465  12.869  1.8229 -0.5175 -1.3921
18841TIP3    H277939   5.236   3.519  12.939  1.1552 -1.4425  0.5770
18842TIP3   OH277940   2.397   6.121  10.728 -0.0738  0.3255  0.3008
18842TIP3    H177941   2.395   6.207  10.687 -2.1794  0.1647 -0.0471
18842TIP3    H277942   2.308   6.108  10.761  0.5534 -1.1773  1.5005
18843TIP3   OH277943   1.116   2.574  14.670 -0.7630 -0.0610 -0.5095
18843TIP3    H177944   1.195   2.543  14.715 -0.4092  1.7405  0.1787
18843TIP3    H277945   1.150   2.617  14.591 -1.1602 -0.2593 -0.7935
18844TIP3   OH277946   5.744   6.436   5.532  0.4171 -0.1615  0.2701
18844TIP3    H177947   5.743   6.422   5.627 -0.3911  1.4344  0.5294
18844TIP3    H277948   5.655   6.415   5.503  0.8208 -1.2400 -0.2595
18845TIP3   OH277949   4.658   5.436   5.463  0.5241  1.0245 -0.3869
18845TIP3    H177950   4.582   5.476   5.421 -0.6854 -0.5860  0.1718
18845TIP3    H277951   4.641   5.444   5.557  0.7735  0.2021 -0.2611
18846TIP3   OH277952   3.844   0.620  16.484 -0.0357  0.7280  0.3202
18846TIP3    H177953   3.888   0.565  16.418  0.5732  1.9723 -0.3386
18846TIP3    H277954   3.855   0.571  16.566 -0.2768 -0.5512 -0.3821
18847TIP3   OH277955   3.284   5.253  13.621  0.6997  0.1497 -0.1799
18847TIP3    H177956   3.255   5.219  13.706  0.8569 -3.0218 -1.2633
18847TIP3    H277957   3.373   5.285  13.637  0.5216  0.1181  0.9534
18848TIP3   OH277958   6.486   1.534   2.477 -0.3632  0.0365 -0.3310
18848TIP3    H177959   6.459   1.456   2.429 -0.0266  0.8011 -1.8192
18848TIP3    H277960   6.405   1.571   2.511 -0.5432 -0.8501  0.2248
18849TIP3   OH277961   2.141   1.355  15.929 -0.4940 -0.2875  0.6908
18849TIP3    H177962   2.189   1.324  15.851 -1.1367 -0.2163  0.2604
18849TIP3    H277963   2.176   1.442  15.946 -1.2269  0.2100 -0.2798
18850TIP3   OH277964   5.775   2.896   0.361  0.0299 -0.0440  0.2502
18850TIP3    H177965   5.699   2.838   0.349  1.0327 -1.2078 -0.6634
18850TIP3    H277966   5.798   2.923   0.272  1.4180 -0.6895  0.3892
18851TIP3   OH277967   0.510   1.645   5.024  0.1457 -0.0131 -0.0346
18851TIP3    H177968   0.550   1.713   4.970 -0.6554 -0.0437 -0.6871
18851TIP3    H277969   0.451   1.693   5.082 -1.8968 -0.2269 -1.7846
18852TIP3   OH277970   6.249   0.196  14.701  0.5876  0.0555  0.1832
18852TIP3    H177971   6.212   0.283  14.687 -1.2361 -0.6509  0.3041
18852TIP3    H277972   6.336   0.200  14.662 -0.2910  1.2769 -1.8189
18853TIP3   OH277973   1.940   2.398  13.690 -0.1852  0.2048 -0.2079
18853TIP3    H177974   1.999   2.463  13.650  0.2631 -0.6836 -1.0424
18853TIP3    H277975   1.884   2.369  13.618  1.4816 -2.3682 -0.5810
18854TIP3   OH277976   6.520   3.369  13.804  0.3367 -0.1572  0.1304
18854TIP3    H177977   6.518   3.284  13.761  0.9906 -0.4163  0.6239
18854TIP3    H277978   6.556   3.428  13.737 -0.2014 -0.2329 -0.2420
18855TIP3   OH277979   4.692   6.278   0.731  0.2201  0.0646 -0.1580
18855TIP3    H177980   4.758   6.222   0.773  2.7978  2.1414 -1.1675
18855TIP3    H277981   4.707   6.265   0.637 -1.7803 -0.4140 -0.4497
18856TIP3   OH277982   4.918   4.852  16.882 -0.1367 -0.4570 -0.2498
18856TIP3    H177983   4.853   4.783  16.869  1.1513 -1.4873 -1.7318
18856TIP3    H277984   4.947   4.842  16.973 -0.3820 -1.5359 -0.2743
18857TIP3   OH277985   1.663   0.912  16.684 -0.1981  0.1594  0.0627
18857TIP3    H177986   1.645   0.900  16.777 -0.1786 -2.1155 -0.1618
18857TIP3    H277987   1.729   0.981  16.680  0.4904 -0.3601  1.8068
18858TIP3   OH277988   2.053   3.889  13.696 -0.1568 -0.1184 -0.2541
18858TIP3    H177989   2.006   3.843  13.765  2.0386 -2.7273 -0.3378
18858TIP3    H277990   2.055   3.828  13.623  0.2757  1.3455 -1.5147
18859TIP3   OH277991   6.340   2.028  11.053  0.6032  0.6106 -0.0340
18859TIP3    H177992   6.405   1.983  10.999  0.0840 -0.4787  0.2277
18859TIP3    H277993   6.296   2.088  10.992  1.0994  0.5507 -0.4584
18860TIP3   OH277994   5.570   6.236  15.850 -0.5915  0.0134 -0.0588
18860TIP3    H177995   5.487   6.284  15.847 -0.0243  1.0471  0.2917
18860TIP3    H277996   5.600   6.234  15.759 -1.4863 -1.2723 -0.3466
18861TIP3   OH277997   4.376   4.176   1.782  0.2142  0.1542  0.6016
18861TIP3    H177998   4.409   4.126   1.706  1.4786 -0.5224  1.5551
18861TIP3    H277999   4.382   4.267   1.755  0.2819 -0.0969 -0.2629
18862TIP3   OH278000   6.011   0.312  16.829  0.2751  0.2436 -0.0921
18862TIP3    H178001   5.935   0.257  16.812 -0.0861  0.3041  1.1855
18862TIP3    H278002   6.068   0.257  16.883  0.4900  0.6725  0.1233
18863TIP3   OH278003   1.625   3.580   0.773 -0.5041 -0.7885  0.0619
18863TIP3    H178004   1.691   3.527   0.727 -1.4736 -0.9607 -1.1785
18863TIP3    H278005   1.649   3.670   0.751 -2.0091 -0.8921 -2.4295
18864TIP3   OH278006   3.013   5.178  11.673  0.0033 -0.7678  0.5886
18864TIP3    H178007   3.004   5.090  11.637  0.5256 -0.5686 -0.0492
18864TIP3    H278008   2.936   5.225  11.640  0.3794 -0.6390 -0.1261
18865TIP3   OH278009   1.668   1.849  15.907 -0.5347 -0.1648 -0.0430
18865TIP3    H178010   1.693   1.933  15.868  3.2081 -0.2712  1.6626
18865TIP3    H278011   1.617   1.805  15.840 -0.1680  2.3367 -2.0951
18866TIP3   OH278012   1.964   0.576  16.620  0.4930 -0.6677 -0.0209
18866TIP3    H178013   2.056   0.602  16.609  0.8286 -0.5013  2.4629
18866TIP3    H278014   1.957   0.492  16.576  2.1705 -1.2094  0.6498
18867TIP3   OH278015   3.123   6.444  12.824  0.1927 -0.7552  0.1480
18867TIP3    H178016   3.125   6.351  12.844 -0.6336 -1.3236 -2.1096
18867TIP3    H278017   3.142   6.449  12.730  0.6206  1.3858  0.2937
18868TIP3   OH278018   6.159   2.360   4.090 -0.2319 -0.0535  0.1947
18868TIP3    H178019   6.144   2.314   4.173  1.7216 -0.8324  0.1693
18868TIP3    H278020   6.253   2.354   4.076 -0.5402 -0.2297 -2.2486
18869TIP3   OH278021   4.519   1.061  15.948 -0.2997 -0.0550 -0.1010
18869TIP3    H178022   4.573   0.994  15.906  0.1011  0.3687 -0.2642
18869TIP3    H278023   4.579   1.109  16.004 -0.6285  0.0412  0.1739
18870TIP3   OH278024   2.813   5.295  10.856  0.3051  1.0481  0.4959
18870TIP3    H178025   2.837   5.335  10.939 -0.3444  0.8786  0.7735
18870TIP3    H278026   2.717   5.293  10.857  0.2912 -1.1473  0.8141
18871TIP3   OH278027   1.063   1.158   1.897 -0.1001 -0.3575 -0.5949
18871TIP3    H178028   1.003   1.097   1.942  1.1670 -1.4338 -0.3063
18871TIP3    H278029   1.096   1.214   1.966 -0.6192  0.1263 -0.7287
18872TIP3   OH278030   1.201   6.670  12.876 -0.3249 -0.3043 -0.6942
18872TIP3    H178031   1.210   6.593  12.820 -0.1047 -1.9920  1.5175
18872TIP3    H278032   1.252   6.649  12.954 -0.4863  1.9944  0.1075
18873TIP3   OH278033   1.593   4.099  14.310  0.2572 -0.4686  0.5087
18873TIP3    H178034   1.550   4.040  14.248 -0.5874 -1.5376  2.0473
18873TIP3    H278035   1.682   4.064  14.318  0.1682 -0.7288  0.3972
18874TIP3   OH278036   3.049   1.864  11.510 -0.3617 -0.2915  0.3651
18874TIP3    H178037   2.993   1.942  11.508 -0.4797 -0.3819  0.0187
18874TIP3    H278038   3.015   1.809  11.440  1.1455  0.3451 -0.9327
18875TIP3   OH278039   4.439   2.418   3.302  0.3306  0.0533 -0.0602
18875TIP3    H178040   4.464   2.326   3.312  0.3416  0.1145  0.5277
18875TIP3    H278041   4.454   2.437   3.209 -2.1706 -1.2513 -0.8214
18876TIP3   OH278042   1.252   2.114  15.204 -0.1004  0.0788 -0.5265
18876TIP3    H178043   1.259   2.029  15.248 -0.8031 -0.6121 -1.6984
18876TIP3    H278044   1.230   2.093  15.114  1.0012  1.4705 -1.1622
18877TIP3   OH278045   2.733   3.638  11.259 -0.5350  0.1736 -0.0606
18877TIP3    H178046   2.662   3.579  11.282  0.8953 -1.3822  0.5639
18877TIP3    H278047   2.735   3.636  11.163 -0.8505 -0.3779 -0.0622
18878TIP3   OH278048   5.176   4.182  12.197 -0.1715 -0.3104  0.3522
18878TIP3    H178049   5.086   4.208  12.215  0.1586  2.5158 -1.5405
18878TIP3    H278050   5.190   4.105  12.253 -2.6777  1.0882  3.1729
18879TIP3   OH278051   1.770   5.182   2.574 -0.1060  0.0396 -0.1644
18879TIP3    H178052   1.830   5.255   2.560  0.8264 -0.6251  0.2322
18879TIP3    H278053   1.795   5.118   2.508  0.1257 -0.5405  0.4755
18880TIP3   OH278054   6.129   4.030   3.796 -0.0309 -0.0063 -0.7506
18880TIP3    H178055   6.121   4.117   3.756  1.7601  1.1081  1.1102
18880TIP3    H278056   6.189   3.983   3.738  2.9642  1.7638  0.6959
18881TIP3   OH278057   1.334   4.929   4.098  0.4518 -0.2070  0.0964
18881TIP3    H178058   1.330   4.999   4.163 -0.5042 -0.9724  0.9010
18881TIP3    H278059   1.248   4.887   4.103  0.1266  0.0866 -2.1017
18882TIP3   OH278060   1.011   1.330  12.320  0.0921 -0.1887 -0.2342
18882TIP3    H178061   0.992   1.241  12.349 -1.2713  0.2113  0.1674
18882TIP3    H278062   1.064   1.368  12.390 -0.8789 -0.1105  0.4796
18883TIP3   OH278063   3.688   1.154  14.978  0.3027  0.2684 -0.6638
18883TIP3    H178064   3.649   1.219  15.036 -0.3679 -0.4718 -0.2583
18883TIP3    H278065   3.699   1.077  15.033  0.9512 -0.0131 -1.1705
18884TIP3   OH278066   6.077   0.783  16.706 -0.7919  0.3008  0.6735
18884TIP3    H178067   6.030   0.708  16.742 -0.0151  0.2096  1.5744
18884TIP3    H278068   6.096   0.838  16.783  2.1219 -0.5551  0.7001
18885TIP3   OH278069   5.344   0.386  11.228 -0.7233  0.1523 -0.1528
18885TIP3    H178070   5.349   0.379  11.132 -2.4050  1.1933 -0.3566
18885TIP3    H278071   5.430   0.421  11.253 -0.8273  1.4708 -1.4766
18886TIP3   OH278072   1.521   1.461   2.752 -0.3688 -0.5390  0.1470
18886TIP3    H178073   1.440   1.440   2.705 -0.8690 -0.0347  0.7503
18886TIP3    H278074   1.588   1.406   2.712 -0.9129 -0.6027 -0.7004
18887TIP3   OH278075   1.918   5.253   4.820 -0.1364 -0.5346 -0.2099
18887TIP3    H178076   2.013   5.262   4.807  0.1684 -0.5556  1.6898
18887TIP3    H278077   1.907   5.162   4.846 -0.3784 -0.0378  1.5552
18888TIP3   OH278078   5.850   6.339   5.780 -0.0510 -0.3841  0.8015
18888TIP3    H178079   5.931   6.295   5.807  1.1896  0.5029 -1.1807
18888TIP3    H278080   5.801   6.271   5.734  0.5047 -0.4735  0.3131
18889TIP3   OH278081   3.112   2.299  16.406 -0.1805 -0.3832  0.3479
18889TIP3    H178082   3.024   2.293  16.443 -0.8569  1.2942 -0.8547
18889TIP3    H278083   3.100   2.346  16.324  1.7634 -0.7601 -0.2014
18890TIP3   OH278084   2.653   3.770  11.648  0.0594  0.1249  0.5917
18890TIP3    H178085   2.628   3.712  11.720 -0.8361 -0.3244 -0.0622
18890TIP3    H278086   2.570   3.802  11.612  0.4921  0.3728 -0.2117
18891TIP3   OH278087   4.820   4.899   6.631  0.5295  0.2348 -0.0939
18891TIP3    H178088   4.862   4.948   6.701  1.1518  1.2525 -1.1326
18891TIP3    H278089   4.726   4.914   6.642  0.6778  1.1167  0.0019
18892TIP3   OH278090   6.061   0.347  12.258 -0.0679 -0.3436 -0.0841
18892TIP3    H178091   6.075   0.267  12.209 -1.3100 -0.3389 -0.5010
18892TIP3    H278092   6.051   0.415  12.191 -1.2403 -0.2448  0.1559
18893TIP3   OH278093   5.291   2.642   6.587  0.2286  0.1220  0.5620
18893TIP3    H178094   5.244   2.590   6.521 -0.6803  0.4668  0.9218
18893TIP3    H278095   5.297   2.584   6.662  0.5805 -0.0013  0.4385
18894TIP3   OH278096   5.030   4.527   4.970 -0.0768 -0.2391 -0.5395
18894TIP3    H178097   5.000   4.534   5.061  1.3420 -2.0769  0.1409
18894TIP3    H278098   5.047   4.618   4.944 -0.2346  0.3149  1.1310
18895TIP3   OH278099   2.057   0.716  14.444 -0.4084  0.2010  0.0950
18895TIP3    H178100   1.977   0.713  14.496 -0.5397  0.7699 -0.0608
18895TIP3    H278101   2.128   0.720  14.508 -0.4695 -0.7968  0.2385
18896TIP3   OH278102   0.940   5.989   2.143  0.4174  0.0631 -0.6852
18896TIP3    H178103   1.001   5.981   2.216  0.2092 -1.9741 -0.6872
18896TIP3    H278104   0.879   5.916   2.154  0.3049 -0.2399 -2.8185
18897TIP3   OH278105   4.758   1.646  14.891 -0.0695  0.3917 -0.7399
18897TIP3    H178106   4.732   1.730  14.929 -0.6728 -1.0843  2.4506
18897TIP3    H278107   4.688   1.624  14.830 -0.7746  1.4322 -0.3279
18898TIP3   OH278108   4.148   0.632  13.741 -0.7316  0.7887  0.0259
18898TIP3    H178109   4.059   0.635  13.775 -0.6426 -2.5759  0.8906
18898TIP3    H278110   4.140   0.590  13.656  0.0315  0.1680  0.2488
18899TIP3   OH278111   0.720   0.234  11.503  0.0979 -0.6583  0.0682
18899TIP3    H178112   0.792   0.192  11.551  0.0575 -1.4178 -0.5285
18899TIP3    H278113   0.697   0.172  11.434 -1.1114 -0.4143  0.2198
18900TIP3   OH278114   5.825   4.327   2.263  0.0753  0.2979  0.3332
18900TIP3    H178115   5.862   4.292   2.344 -0.5278 -0.2340  0.3844
18900TIP3    H278116   5.730   4.322   2.275 -0.0571 -1.0697 -0.9316
18901TIP3   OH278117   6.674   3.815   3.247  0.3060 -0.6447  0.1676
18901TIP3    H178118   6.720   3.752   3.302  1.1004 -1.4412 -1.3322
18901TIP3    H278119   6.654   3.767   3.166 -1.1319  0.3660 -0.1331
18902TIP3   OH278120   0.204   5.739   4.261 -0.2139  0.5421  0.3312
18902TIP3    H178121   0.291   5.777   4.255 -0.8434  2.0322  0.3454
18902TIP3    H278122   0.173   5.733   4.171 -0.1010 -0.0179  0.3228
18903TIP3   OH278123   0.612   1.116  16.144  0.0809  0.2033 -0.6036
18903TIP3    H178124   0.670   1.170  16.090  0.0966  1.2299  0.3830
18903TIP3    H278125   0.540   1.175  16.166 -0.9480 -0.8137 -1.1609
18904TIP3   OH278126   6.355   3.978   1.928  0.4267  0.4345  0.0727
18904TIP3    H178127   6.439   4.019   1.948  0.0123  1.5786 -0.5010
18904TIP3    H278128   6.302   4.047   1.890 -0.8358 -0.2385  0.5365
18905TIP3   OH278129   5.537   1.683  16.682 -0.2792  0.4664 -0.2887
18905TIP3    H178130   5.568   1.690  16.772  0.5237  0.1030 -0.5172
18905TIP3    H278131   5.463   1.622  16.686 -0.5166  0.7883  0.1827
18906TIP3   OH278132   4.100   4.013  12.344  0.4316  0.3328  0.2788
18906TIP3    H178133   4.138   3.990  12.429  2.0670 -1.2318 -0.7891
18906TIP3    H278134   4.137   4.099  12.324  0.3530  0.5308  0.9778
18907TIP3   OH278135   1.924   3.661  13.318 -0.1048 -0.2027  0.9031
18907TIP3    H178136   1.857   3.596  13.301  0.5155 -0.5646 -0.2272
18907TIP3    H278137   1.956   3.687  13.232 -1.3346  2.6994  1.1871
18908TIP3   OH278138   5.776   4.427  17.324 -0.8395  0.3043  0.0327
18908TIP3    H178139   5.798   4.491  17.256  0.5573 -1.8135 -1.6538
18908TIP3    H278140   5.716   4.366  17.281 -2.1269  0.4180  1.5929
18909TIP3   OH278141   6.586   2.998  15.489  0.0037 -0.2755 -0.2403
18909TIP3    H178142   6.666   2.946  15.480 -0.3661 -1.0990  0.9227
18909TIP3    H278143   6.616   3.089  15.492  0.7009 -0.4075 -1.8616
18910TIP3   OH278144   1.808   6.059  16.488  0.0167  0.0885  0.4534
18910TIP3    H178145   1.728   6.008  16.505 -0.8863  2.2550  3.7308
18910TIP3    H278146   1.879   5.999  16.509 -0.6943 -1.5171 -1.3897
18911TIP3   OH278147   5.039   4.664  13.832 -0.1003 -0.2424  0.6073
18911TIP3    H178148   5.042   4.662  13.737  1.6550 -0.7605  0.6321
18911TIP3    H278149   5.039   4.757  13.854 -1.8186 -0.0883  0.1287
18912TIP3   OH278150   4.489   2.810  14.218 -0.3937 -0.4493 -0.2355
18912TIP3    H178151   4.548   2.737  14.202  0.3992  0.3683 -1.2089
18912TIP3    H278152   4.450   2.791  14.303  0.2234 -1.7098 -0.2117
18913TIP3   OH278153   2.536   4.159   5.374 -0.3721 -0.5523 -0.5005
18913TIP3    H178154   2.520   4.190   5.285 -0.7363  2.9347  0.6303
18913TIP3    H278155   2.458   4.108   5.396 -1.9308  1.4916 -1.0457
18914TIP3   OH278156   2.889   2.246  15.888  0.2158 -0.0239 -0.2972
18914TIP3    H178157   2.843   2.221  15.968  1.3724  1.3806  0.8629
18914TIP3    H278158   2.868   2.338  15.876  0.9011  0.0489 -1.0280
18915TIP3   OH278159   4.601   4.235  11.289  0.2583  0.6571  0.0402
18915TIP3    H178160   4.640   4.148  11.288 -1.1158 -0.0199  1.1785
18915TIP3    H278161   4.632   4.276  11.208 -0.4524 -1.5315 -1.4420
18916TIP3   OH278162   3.845   1.289   5.475 -0.4455 -0.2716 -0.1106
18916TIP3    H178163   3.794   1.326   5.547 -1.4881 -0.3976 -0.7643
18916TIP3    H278164   3.802   1.321   5.396 -1.8780 -3.3608 -0.7427
18917TIP3   OH278165   1.042   5.619   2.160 -0.1259  0.1778 -0.3175
18917TIP3    H178166   1.103   5.548   2.139 -1.0218 -0.6352 -0.1914
18917TIP3    H278167   0.975   5.578   2.214 -0.3173  1.2617  0.2941
18918TIP3   OH278168   5.179   1.225  11.649  0.2158 -0.6664 -0.0632
18918TIP3    H178169   5.176   1.289  11.578 -1.4233 -0.3511  0.2411
18918TIP3    H278170   5.116   1.258  11.714 -0.0637 -2.1475  0.4669
18919TIP3   OH278171   1.524   1.752   4.031  0.2971 -0.5844 -0.4521
18919TIP3    H178172   1.512   1.844   4.007  0.8482 -1.1212 -3.1039
18919TIP3    H278173   1.603   1.725   3.985  1.8394 -1.7097  2.5606
18920TIP3   OH278174   3.194   4.111  12.824  0.3834  0.2179  0.1495
18920TIP3    H178175   3.211   4.086  12.915  0.4367 -1.2638 -0.2460
18920TIP3    H278176   3.258   4.180  12.806 -0.0085  0.9483  1.3991
18921TIP3   OH278177   0.962   1.949   1.645  0.2028 -0.2784 -0.8543
18921TIP3    H178178   0.993   1.872   1.693  0.0601 -0.8224 -1.6122
18921TIP3    H278179   0.993   2.023   1.695  0.3881 -0.8360 -0.1330
18922TIP3   OH278180   6.590   3.886   3.765 -0.2438  0.2738 -0.4611
18922TIP3    H178181   6.538   3.857   3.840 -1.7046  0.3529 -1.4038
18922TIP3    H278182   6.568   3.824   3.695  0.2906  0.8114 -1.1194
18923TIP3   OH278183   1.561   1.041   5.424  0.3115  0.3478 -0.3831
18923TIP3    H178184   1.490   0.977   5.414  0.2977 -0.0590  1.7216
18923TIP3    H278185   1.517   1.120   5.455  0.7832 -0.1934  1.8881
18924TIP3   OH278186   4.683   5.752  12.127 -0.5321 -0.0395  0.1035
18924TIP3    H178187   4.625   5.797  12.189  1.4801  1.1889  1.2049
18924TIP3    H278188   4.692   5.813  12.054 -1.1765 -0.5426 -0.4041
18925TIP3   OH278189   0.741   5.968  14.203 -0.1587  0.2049 -0.1311
18925TIP3    H178190   0.675   5.941  14.267 -1.2661  0.4613 -1.1363
18925TIP3    H278191   0.785   6.042  14.244  0.5609 -0.9048  1.1848
18926TIP3   OH278192   4.102   0.415   5.898  0.9769  0.3634  0.1918
18926TIP3    H178193   4.048   0.415   5.977  1.3492 -1.7334  0.5060
18926TIP3    H278194   4.081   0.498   5.854 -0.7229  0.6612  1.4626
18927TIP3   OH278195   2.629   5.148  15.711  0.1333 -0.1009  0.2159
18927TIP3    H178196   2.603   5.204  15.784  2.5389  0.3449  0.7982
18927TIP3    H278197   2.668   5.207  15.647 -0.4729 -0.6972 -0.7450
18928TIP3   OH278198   5.332   0.804   5.878  0.4314  0.4529 -0.0190
18928TIP3    H178199   5.294   0.784   5.964  1.2049  0.1621  0.2734
18928TIP3    H278200   5.287   0.746   5.817 -1.7677  2.2411 -0.2307
18929TIP3   OH278201   0.890   0.707  11.640  0.0651  0.0779  0.5674
18929TIP3    H178202   0.852   0.619  11.640  0.5640 -0.1603 -0.6870
18929TIP3    H278203   0.821   0.763  11.676  0.0255 -0.9127  2.1549
18930TIP3   OH278204   1.123   4.745  15.713 -0.3749  0.0263  0.3050
18930TIP3    H178205   1.074   4.759  15.794  1.4197  0.8908  1.2914
18930TIP3    H278206   1.112   4.651  15.695 -1.4519 -0.0197  1.0798
18931TIP3   OH278207   5.548   4.465   0.185 -0.1877  0.5326  0.3880
18931TIP3    H178208   5.583   4.443   0.099  3.8232  1.4748  1.6103
18931TIP3    H278209   5.543   4.381   0.230  1.4720  0.4408  0.4533
18932TIP3   OH278210   5.726   4.994   2.830 -0.4801  0.2485  0.5465
18932TIP3    H178211   5.668   4.954   2.765  0.0690 -0.0326  0.2182
18932TIP3    H278212   5.682   5.075   2.856 -0.3056  0.8055 -0.8101
18933TIP3   OH278213   3.547   0.704   0.310  0.1624  0.1244 -0.0607
18933TIP3    H178214   3.613   0.743   0.253  0.7403 -0.0121  0.4982
18933TIP3    H278215   3.596   0.674   0.387 -0.4758 -0.4275  0.1480
18934TIP3   OH278216   2.271   3.231   4.342 -0.0619  0.0412 -0.2910
18934TIP3    H178217   2.295   3.144   4.374 -1.8154 -0.2648  0.2747
18934TIP3    H278218   2.355   3.275   4.328  0.8508 -1.6607 -0.4061
18935TIP3   OH278219   5.123   0.469  15.941 -0.2764 -0.0130 -0.7481
18935TIP3    H178220   5.029   0.488  15.930 -0.7035 -0.5248  1.5581
18935TIP3    H278221   5.143   0.499  16.030  1.4916 -0.9386 -0.8037
18936TIP3   OH278222   2.025   3.915  12.160  0.1458 -0.4017  0.3181
18936TIP3    H178223   1.962   3.968  12.210  0.0502 -0.6834  0.4975
18936TIP3    H278224   2.085   3.881  12.227  2.8617  2.9404 -0.1320
18937TIP3   OH278225   5.914   0.318  16.237  0.0195  0.2386 -0.2803
18937TIP3    H178226   5.846   0.381  16.257 -0.7108 -0.4706 -0.4999
18937TIP3    H278227   5.996   0.365  16.253 -0.5001  0.3069  2.4932
18938TIP3   OH278228   3.221   0.215  12.987  0.4247  0.3678 -0.1609
18938TIP3    H178229   3.316   0.221  12.998  0.5845 -0.9808 -0.6834
18938TIP3    H278230   3.199   0.292  12.934  1.7713 -1.1045 -3.0628
18939TIP3   OH278231   6.659   5.655  16.317  0.4969 -0.1193  0.0410
18939TIP3    H178232   6.589   5.637  16.380  0.7244 -0.1511  0.2881
18939TIP3    H278233   6.692   5.569  16.292  1.7606 -0.0814  1.4196
18940TIP3   OH278234   5.914   6.415   0.647  0.0125  0.5121 -0.3801
18940TIP3    H178235   5.998   6.441   0.609  0.0982 -0.2671 -0.7572
18940TIP3    H278236   5.908   6.464   0.729 -0.5193  2.8262 -1.7066
18941TIP3   OH278237   2.766   6.398  16.420 -0.3760 -0.2230 -0.0345
18941TIP3    H178238   2.792   6.316  16.462 -0.7711  1.8797  4.9419
18941TIP3    H278239   2.677   6.414  16.451 -0.5723  1.7995 -1.4590
18942TIP3   OH278240   5.846   1.808   2.781 -0.0358  0.1523 -0.0525
18942TIP3    H178241   5.854   1.789   2.875  0.5569 -0.7228 -0.2711
18942TIP3    H278242   5.837   1.722   2.740 -2.7329  0.5953 -0.6094
18943TIP3   OH278243   3.708   5.704   5.399 -0.7665 -0.1831  0.2051
18943TIP3    H178244   3.666   5.650   5.332 -0.8315 -0.7071  0.6612
18943TIP3    H278245   3.638   5.721   5.463 -0.9153  0.9821 -0.2536
18944TIP3   OH278246   3.637   0.067  15.251 -0.2323 -0.5127  0.1816
18944TIP3    H178247   3.559   0.122  15.245 -0.8672 -1.4221  0.0163
18944TIP3    H278248   3.605  -0.018  15.280  0.9630 -0.3358  2.1758
18945TIP3   OH278249   0.210   0.203  11.661  0.0135 -0.6100 -0.1697
18945TIP3    H178250   0.177   0.267  11.598  0.1359 -0.3239  0.0578
18945TIP3    H278251   0.136   0.188  11.721  0.9888  1.8415  1.8078
18946TIP3   OH278252   0.695   2.993  13.662 -0.6008  0.9042  0.6078
18946TIP3    H178253   0.674   3.079  13.697  1.2368  1.6665 -0.0576
18946TIP3    H278254   0.761   2.958  13.722 -1.0262  0.1217  0.6367
18947TIP3   OH278255   6.355   0.358   3.966 -0.2873 -0.1475 -0.1537
18947TIP3    H178256   6.285   0.314   3.918  0.6819 -0.3374 -1.4386
18947TIP3    H278257   6.309   0.414   4.030 -1.6223  0.2656 -1.4293
18948TIP3   OH278258   6.750   0.565  16.610 -0.3386  0.1639 -0.3303
18948TIP3    H178259   6.758   0.469  16.614 -0.9682  0.0307 -1.7472
18948TIP3    H278260   6.820   0.592  16.550 -0.8565  0.4838 -0.7885
18949TIP3   OH278261   6.312   0.308  16.153 -0.2210  0.0154 -0.1813
18949TIP3    H178262   6.267   0.362  16.218  0.7413 -0.4740  0.9319
18949TIP3    H278263   6.314   0.362  16.074  0.1700  1.3824  0.7151
18950TIP3   OH278264   4.074   3.010  13.755  0.4828  0.2199 -0.2941
18950TIP3    H178265   4.155   2.971  13.789 -0.2589  0.6514  2.1929
18950TIP3    H278266   4.004   2.963  13.801 -0.6549  0.7089 -1.4659
18951TIP3   OH278267   2.664   2.785   1.506  0.1463  0.0413  0.0749
18951TIP3    H178268   2.623   2.836   1.576  0.8267 -2.1204  2.2030
18951TIP3    H278269   2.604   2.712   1.492  0.5915 -0.1679 -0.7888
18952TIP3   OH278270   4.324   0.333   1.301  0.1779  0.2122  0.1181
18952TIP3    H178271   4.388   0.322   1.230  0.4854  0.1222  0.4074
18952TIP3    H278272   4.248   0.373   1.258  0.4359  0.3437 -0.2252
18953TIP3   OH278273   5.571   1.995   3.298  0.0918  0.3909  0.1277
18953TIP3    H178274   5.625   1.924   3.263 -0.1502  0.5891 -0.6593
18953TIP3    H278275   5.512   2.018   3.226  0.5470  1.7784  0.1754
18954TIP3   OH278276   5.066   0.892   2.395 -0.4536  0.6313 -0.0349
18954TIP3    H178277   4.992   0.907   2.336 -0.6042  1.1987  0.2941
18954TIP3    H278278   5.030   0.906   2.482 -0.1963 -0.0625  0.1886
18955TIP3   OH278279   0.084   2.499   2.008  0.1622 -0.0997  0.2963
18955TIP3    H178280   0.106   2.414   2.046  1.5492 -0.4562 -1.1711
18955TIP3    H278281   0.168   2.544   2.000 -0.4892  1.1974  0.5192
18956TIP3   OH278282   2.543   3.056   3.965 -0.7536 -0.2572 -0.4116
18956TIP3    H178283   2.612   3.001   3.929  0.3535  1.8361 -1.6768
18956TIP3    H278284   2.563   3.062   4.059 -0.5725 -1.4744 -0.3550
18957TIP3   OH278285   1.615   2.060  16.383  0.3126 -0.1404 -0.3545
18957TIP3    H178286   1.708   2.081  16.368  0.2192 -0.8745 -2.2701
18957TIP3    H278287   1.583   2.131  16.439  1.7060  0.8651 -0.7669
18958TIP3   OH278288   3.593   0.597   5.433 -0.2487 -0.0018  0.3671
18958TIP3    H178289   3.633   0.513   5.455  0.9519  0.5917  0.4934
18958TIP3    H278290   3.647   0.662   5.477 -1.4171  0.8232  0.6152
18959TIP3   OH278291   3.322   5.696   1.925 -0.0935  0.3438  0.7277
18959TIP3    H178292   3.261   5.623   1.930  1.5931 -1.1305  1.0625
18959TIP3    H278293   3.399   5.666   1.974  0.8759  2.1314  0.3926
18960TIP3   OH278294   6.619   1.361   2.747 -0.0701  0.3589  0.2083
18960TIP3    H178295   6.568   1.350   2.828  0.3888  0.3510  0.5031
18960TIP3    H278296   6.630   1.456   2.739 -0.9064  0.4127 -0.3506
18961TIP3   OH278297   6.041   2.960   6.642 -0.0584  0.3114  0.3411
18961TIP3    H178298   5.974   2.892   6.634  0.3714 -0.1757  0.7835
18961TIP3    H278299   5.993   3.037   6.673 -0.5742  0.2626 -0.3108
18962TIP3   OH278300   0.955   4.234   2.603 -0.1546 -0.7659  0.0415
18962TIP3    H178301   0.992   4.184   2.676  1.3854 -1.7227 -1.3257
18962TIP3    H278302   0.872   4.191   2.584 -1.2149  0.2625  1.9598
18963TIP3   OH278303   3.701   4.226  12.876  0.2525 -0.1234 -0.0487
18963TIP3    H178304   3.777   4.174  12.903 -1.0145 -1.9940  0.1259
18963TIP3    H278305   3.707   4.306  12.928  1.2462 -0.9286  1.1390
18964TIP3   OH278306   3.925   3.792  12.746 -0.1940 -0.1987 -0.0317
18964TIP3    H178307   3.994   3.797  12.680 -0.8335 -0.3883 -0.7321
18964TIP3    H278308   3.859   3.735  12.707 -1.7181  1.6363 -0.2821
18965TIP3   OH278309   5.701   1.784   4.977  0.0585  0.2180 -0.0689
18965TIP3    H178310   5.653   1.861   5.008  0.0570 -0.5550  2.0550
18965TIP3    H278311   5.788   1.792   5.017 -0.1297 -1.1184  0.6879
18966TIP3   OH278312   6.644   0.040   2.108  0.1706  0.0565  0.7520
18966TIP3    H178313   6.594  -0.041   2.114 -0.1719  0.2461  0.4277
18966TIP3    H278314   6.598   0.102   2.165  0.3269  0.0783  0.8564
18967TIP3   OH278315   5.451   4.101   5.339  0.1792  0.1823 -0.1703
18967TIP3    H178316   5.523   4.043   5.313 -1.8941 -2.3884 -0.5642
18967TIP3    H278317   5.425   4.144   5.257  0.5240  0.2740 -0.2365
18968TIP3   OH278318   3.310   2.572   5.824  0.2754  0.0248  0.6365
18968TIP3    H178319   3.349   2.655   5.799 -1.7648  0.1588 -2.6191
18968TIP3    H278320   3.241   2.595   5.885  1.2815  0.3883  1.6802
18969TIP3   OH278321   3.575   5.149  13.338  0.2500  0.6863  0.1653
18969TIP3    H178322   3.596   5.155  13.245 -0.1012  0.6867  0.0858
18969TIP3    H278323   3.504   5.212  13.351 -0.0591  0.3096  0.3295
18970TIP3   OH278324   3.023   3.747   2.774  0.1894 -0.2868 -0.4229
18970TIP3    H178325   3.113   3.779   2.775  1.0462 -2.4521 -1.3823
18970TIP3    H278326   2.988   3.777   2.690 -0.1671  0.9075  0.1268
18971TIP3   OH278327   3.817   6.621  13.731 -0.1045 -0.2782  0.2515
18971TIP3    H178328   3.904   6.660  13.722  0.2452 -0.6833  1.7157
18971TIP3    H278329   3.831   6.527  13.722 -0.3616 -0.3587  0.6736
18972TIP3   OH278330   2.020   2.442   0.917 -0.0183 -0.2765 -0.7298
18972TIP3    H178331   1.982   2.530   0.925 -2.1743 -1.2982  1.2960
18972TIP3    H278332   1.984   2.408   0.835  0.2666  0.4221 -1.1637
18973TIP3   OH278333   3.048   3.566  12.996  0.1043  0.2229 -0.0204
18973TIP3    H178334   3.014   3.513  13.068 -0.3240  1.7965  0.9868
18973TIP3    H278335   3.110   3.509  12.951 -0.5900 -1.2309  0.7951
18974TIP3   OH278336   3.912   5.046   2.901  0.5485  0.1627 -0.1937
18974TIP3    H178337   3.902   4.971   2.961  0.7921  0.3256  0.0528
18974TIP3    H278338   3.842   5.034   2.837 -0.9727  1.0465  1.2300
18975TIP3   OH278339   3.636   2.451  13.892  0.1059 -0.2074  0.1934
18975TIP3    H178340   3.557   2.479  13.844  1.4735  0.8168 -1.5914
18975TIP3    H278341   3.633   2.502  13.973 -1.2195 -0.4325  0.3190
18976TIP3   OH278342   2.387   3.549  12.579 -0.3401  0.1182 -0.4441
18976TIP3    H178343   2.329   3.625  12.580 -2.5397 -1.4070 -1.3412
18976TIP3    H278344   2.400   3.530  12.486  1.6467  0.3915 -0.2631
18977TIP3   OH278345   2.049   0.644  11.320  0.0074  0.4914  0.1064
18977TIP3    H178346   2.009   0.578  11.376  0.9636  0.3695  0.6727
18977TIP3    H278347   2.039   0.726  11.369  0.7254  0.4054  0.4169
18978TIP3   OH278348   3.423   4.886   0.899 -0.4895 -0.3858 -0.7647
18978TIP3    H178349   3.454   4.884   0.809 -0.2438  0.3078 -0.7013
18978TIP3    H278350   3.485   4.832   0.947  0.8290  1.1956 -0.5926
18979TIP3   OH278351   6.557   1.162  12.563 -0.4730 -0.1476 -0.1832
18979TIP3    H178352   6.620   1.142  12.494  0.6073  1.6598  0.2011
18979TIP3    H278353   6.611   1.168  12.643 -1.1941  0.9272  0.2432
18980TIP3   OH278354   2.870   6.090   0.451  0.4781 -0.4343 -0.4670
18980TIP3    H178355   2.827   6.158   0.400 -0.9324  0.9999  2.3908
18980TIP3    H278356   2.962   6.117   0.454  0.3107  0.2139 -1.0928
18981TIP3   OH278357   5.090   1.467  11.474  0.0857 -0.0284  0.0858
18981TIP3    H178358   5.023   1.530  11.449  0.2906  0.8207  1.5636
18981TIP3    H278359   5.148   1.515  11.534  0.3461 -1.5523  1.1163
18982TIP3   OH278360   1.446   5.049  14.563  0.0901 -0.1010 -0.3220
18982TIP3    H178361   1.530   5.061  14.519  0.3262 -0.6294 -0.0298
18982TIP3    H278362   1.437   4.954  14.573  0.3225  0.0175  1.2655
18983TIP3   OH278363   4.687   4.392  15.840  0.2134 -0.4881  0.0473
18983TIP3    H178364   4.680   4.370  15.933 -0.0669  0.5953  0.3034
18983TIP3    H278365   4.670   4.486  15.837  0.0353 -0.5458 -1.1304
18984TIP3   OH278366   2.586   0.093  11.162  0.1389  0.1182 -0.2350
18984TIP3    H178367   2.667   0.127  11.198 -0.7395 -0.0466  2.0996
18984TIP3    H278368   2.585   0.001  11.188  0.1561 -0.4516 -2.0986
18985TIP3   OH278369   1.327   1.242   6.237 -0.0579 -0.0342  0.3287
18985TIP3    H178370   1.281   1.325   6.250 -1.7981 -1.0204  0.7883
18985TIP3    H278371   1.282   1.200   6.164  1.5742 -0.0983 -0.7055
18986TIP3   OH278372   5.556   2.680  13.914 -0.2582 -0.2627  0.0583
18986TIP3    H178373   5.633   2.729  13.943  0.7585 -1.6566 -0.1533
18986TIP3    H278374   5.499   2.678  13.990 -0.6734  1.8261 -0.1427
18987TIP3   OH278375   4.316   3.246  15.191  0.0668 -0.6064  0.4651
18987TIP3    H178376   4.287   3.162  15.155  1.7245 -1.5325  1.2004
18987TIP3    H278377   4.313   3.306  15.117 -1.3115 -1.2469 -0.0343
18988TIP3   OH278378   2.007   3.662   3.209 -0.3376 -0.4528  0.0269
18988TIP3    H178379   2.077   3.638   3.270 -0.2096  0.5583  0.3041
18988TIP3    H278380   1.976   3.747   3.241 -2.3679 -1.3197  0.4692
18989TIP3   OH278381   4.953   5.570  17.238  0.0209 -0.0375  0.6067
18989TIP3    H178382   5.009   5.634  17.282  0.8112 -1.3097  1.5116
18989TIP3    H278383   4.908   5.621  17.170  0.1447  1.6007  1.6835
18990TIP3   OH278384   2.065   4.440  15.506 -0.8952  0.4970  0.5763
18990TIP3    H178385   2.135   4.500  15.480  0.7849 -1.5693  0.0565
18990TIP3    H278386   2.018   4.421  15.425 -1.5951  1.2500  0.7863
18991TIP3   OH278387   2.153   2.377  13.463  0.3693 -0.4780 -0.1717
18991TIP3    H178388   2.208   2.331  13.528 -1.1842 -1.3472  0.6009
18991TIP3    H278389   2.107   2.306  13.417 -4.7506 -0.0172  3.3386
18992TIP3   OH278390   2.300   3.113  10.704 -0.5586  0.5872  0.0187
18992TIP3    H178391   2.210   3.109  10.671 -1.2945  0.0551  1.9778
18992TIP3    H278392   2.320   3.023  10.728  1.3178  0.2909 -2.3255
18993TIP3   OH278393   2.656   6.002  16.302  0.1157 -0.1859 -0.1601
18993TIP3    H178394   2.682   5.977  16.390 -0.4774  1.1211  0.4102
18993TIP3    H278395   2.585   5.942  16.279 -0.0495 -0.2251  0.4447
18994TIP3   OH278396   3.748   6.218  11.223  0.9398  0.3934  0.2327
18994TIP3    H178397   3.673   6.158  11.228 -0.2762  1.8400  0.1052
18994TIP3    H278398   3.750   6.261  11.308  0.8529  1.2295 -0.1774
18995TIP3   OH278399   2.053   0.946  12.131 -0.2083 -0.1764  0.4597
18995TIP3    H178400   2.032   0.944  12.038  1.1933 -1.6096  0.1390
18995TIP3    H278401   2.122   1.012  12.138 -0.8346  0.4698  0.6140
18996TIP3   OH278402   2.174   0.995   5.773  0.0178 -0.4085 -0.2543
18996TIP3    H178403   2.123   0.952   5.842  1.2913  0.5725  1.4020
18996TIP3    H278404   2.109   1.027   5.711 -1.2362 -0.8386  0.7949
18997TIP3   OH278405   3.042   3.652   0.337 -0.1236 -0.2485  0.0074
18997TIP3    H178406   3.046   3.556   0.343  1.6474 -0.3280 -1.5283
18997TIP3    H278407   3.116   3.682   0.389  1.2541  0.0755 -2.0199
18998TIP3   OH278408   1.959   2.932   4.035 -0.4501  0.4965 -0.5928
18998TIP3    H178409   2.040   2.978   4.056 -0.4371  0.5830 -0.8208
18998TIP3    H278410   1.941   2.876   4.111 -0.9167  1.4995  0.0628
18999TIP3   OH278411   5.891   6.649  14.416 -0.0281  0.4267  0.6481
18999TIP3    H178412   5.816   6.708  14.413 -0.5675 -0.3045 -1.1261
18999TIP3    H278413   5.948   6.680  14.346  0.3498 -0.2939  0.6279
19000TIP3   OH278414   6.631   2.433   0.123  0.4314  0.1992 -0.0315
19000TIP3    H178415   6.608   2.524   0.107 -0.2907 -0.2401 -1.6364
19000TIP3    H278416   6.554   2.396   0.166  0.7541  0.3417  0.6914
19001TIP3   OH278417   3.747   5.950  14.015  1.0548  0.2538 -0.0366
19001TIP3    H178418   3.721   5.893  14.087  3.5254 -1.3411 -0.2836
19001TIP3    H278419   3.828   5.991  14.045  0.5215  1.9339 -0.7632
19002TIP3   OH278420   0.791   3.541   4.283  0.1047 -0.2695  0.3821
19002TIP3    H178421   0.864   3.479   4.284 -0.0396 -0.4907 -1.1188
19002TIP3    H278422   0.726   3.502   4.225 -0.6698  0.5350  0.6748
19003TIP3   OH278423   6.051   1.803   5.571  0.4939  0.6955 -0.6108
19003TIP3    H178424   6.001   1.827   5.493 -0.5573 -0.8419 -0.4515
19003TIP3    H278425   6.035   1.709   5.582  0.0365  0.9955  1.8422
19004TIP3   OH278426   1.034   2.081   1.887  0.2388 -0.5878  0.2013
19004TIP3    H178427   1.093   2.150   1.854  0.6643 -1.4500 -0.9053
19004TIP3    H278428   0.953   2.127   1.907  0.7807  0.3732  0.2524
19005TIP3   OH278429   0.008   2.711  11.901  0.2560  1.0130 -0.2167
19005TIP3    H178430  -0.041   2.717  11.983 -0.9481  1.0087 -0.9150
19005TIP3    H278431   0.053   2.795  11.893 -1.1538  1.7777 -0.4706
19006TIP3   OH278432   2.202   5.231   0.760 -0.3454  0.0341 -0.5811
19006TIP3    H178433   2.279   5.289   0.761  0.4190 -0.9292 -1.2710
19006TIP3    H278434   2.131   5.286   0.730  0.4794  0.5191 -1.7437
19007TIP3   OH278435   0.344   6.648  11.511 -0.5359  0.2406  0.2886
19007TIP3    H178436   0.317   6.688  11.429  2.0954  3.3598  0.7484
19007TIP3    H278437   0.287   6.688  11.577  0.3043  1.2462  0.4325
19008TIP3   OH278438   2.572   1.850  12.757  0.0406  0.4505  0.1911
19008TIP3    H178439   2.551   1.757  12.747  1.6206  0.0334  0.4855
19008TIP3    H278440   2.513   1.894  12.696  0.3287 -0.8858 -1.1203
19009TIP3   OH278441   0.745   6.326  15.375 -0.5360  0.3231 -0.4217
19009TIP3    H178442   0.835   6.296  15.360 -1.1404 -1.5020 -0.6628
19009TIP3    H278443   0.753   6.393  15.442  0.8497 -1.1153  0.9514
19010TIP3   OH278444   2.960   4.574  13.871 -0.0758 -0.3492 -0.0185
19010TIP3    H178445   3.006   4.658  13.871 -1.1272  0.2577  1.1659
19010TIP3    H278446   2.871   4.594  13.841  0.3281 -1.4988 -2.2247
19011TIP3   OH278447   3.336   2.414   6.049 -0.5279 -0.4472 -0.2489
19011TIP3    H178448   3.306   2.438   5.962  0.5808 -0.4488 -0.6491
19011TIP3    H278449   3.338   2.496   6.098  0.2437 -0.2098 -0.6697
19012TIP3   OH278450   4.173   2.361   2.968  0.0101  0.0410 -0.3153
19012TIP3    H178451   4.242   2.306   3.005  0.2098  1.2665  1.2285
19012TIP3    H278452   4.092   2.321   2.999  0.0628 -0.4637 -0.7963
19013TIP3   OH278453   1.979   2.031   3.622  0.5206 -0.6052  0.1479
19013TIP3    H178454   1.970   2.097   3.691 -1.2045 -0.3016 -0.3332
19013TIP3    H278455   2.071   2.005   3.626  0.8192  0.5493  1.5130
19014TIP3   OH278456   5.670   6.371  12.597  0.0985 -0.2729 -0.0476
19014TIP3    H178457   5.757   6.411  12.602 -0.3672  0.8147 -0.4976
19014TIP3    H278458   5.675   6.312  12.522  0.4985 -0.3797  0.0558
19015TIP3   OH278459   0.489   1.642   3.609 -0.9065 -0.3573  0.2712
19015TIP3    H178460   0.578   1.649   3.574 -0.9493  0.0762  0.2501
19015TIP3    H278461   0.433   1.679   3.541 -1.0913 -0.5023  0.3443
19016TIP3   OH278462   6.485   6.633  11.955 -0.0219 -0.0406 -0.0273
19016TIP3    H178463   6.576   6.603  11.963 -0.2775 -0.6029  0.9312
19016TIP3    H278464   6.458   6.651  12.045 -0.2556  1.9980 -0.4563
19017TIP3   OH278465   4.244   4.262  12.384  0.1453  0.3920 -0.4004
19017TIP3    H178466   4.255   4.340  12.330  0.7506  0.8757  0.3978
19017TIP3    H278467   4.216   4.296  12.469  1.4846 -0.1496  0.2938
19018TIP3   OH278468   2.264   3.421   3.698  0.3869 -0.0779  0.1039
19018TIP3    H178469   2.282   3.460   3.784  0.1316 -0.5811  0.3918
19018TIP3    H278470   2.341   3.442   3.646 -0.0592  1.4566  0.0099
19019TIP3   OH278471   5.507   1.966  14.264  0.2600  0.0230 -0.1407
19019TIP3    H178472   5.537   1.910  14.193  0.9968  1.5505 -1.0853
19019TIP3    H278473   5.586   1.980  14.318 -0.0644 -0.3246  0.4367
19020TIP3   OH278474   4.725   2.881  16.573 -0.4565 -0.0825 -0.1686
19020TIP3    H178475   4.748   2.960  16.525 -0.1017  0.1831  0.4218
19020TIP3    H278476   4.705   2.912  16.662  1.5774 -0.8456  0.6264
19021TIP3   OH278477   2.747   3.673   2.033  0.0919  0.2483 -0.8817
19021TIP3    H178478   2.682   3.630   1.977 -0.4527  0.8216 -0.6952
19021TIP3    H278479   2.813   3.605   2.049 -1.1682 -0.7959  0.0911
19022TIP3   OH278480   0.694   1.079   1.202 -0.3937  0.1879  0.1763
19022TIP3    H178481   0.707   1.000   1.255 -1.4347 -0.3062 -0.2709
19022TIP3    H278482   0.609   1.113   1.230 -1.4995 -0.6991 -1.8766
19023TIP3   OH278483   2.042   5.859  16.238  0.0808  0.1040 -0.4818
19023TIP3    H178484   1.981   5.932  16.245  0.0420  0.1062 -0.8183
19023TIP3    H278485   2.123   5.898  16.205 -0.3422 -0.2004 -1.9604
19024TIP3   OH278486   3.493   3.918   4.660  0.1106 -0.4497  0.3123
19024TIP3    H178487   3.563   3.910   4.724  0.7841 -0.9820 -0.4682
19024TIP3    H278488   3.459   4.007   4.672  1.3012  0.0186  0.3164
19025TIP3   OH278489   1.560   5.174   4.614 -0.7186  0.6746  0.6673
19025TIP3    H178490   1.620   5.244   4.589  0.4619 -0.4849  0.1624
19025TIP3    H278491   1.561   5.176   4.710 -0.5953  1.2597  0.6592
19026TIP3   OH278492   1.149   3.995  16.975 -0.3438  0.1933  0.0892
19026TIP3    H178493   1.088   4.068  16.984 -0.0131  0.5005 -0.0980
19026TIP3    H278494   1.108   3.938  16.910  0.2259  1.1231 -1.1462
19027TIP3   OH278495   5.181   6.473   2.800  0.0379  0.2861  0.0343
19027TIP3    H178496   5.100   6.475   2.852 -0.7491  1.2516 -1.1709
19027TIP3    H278497   5.205   6.565   2.789  0.7605  0.0451 -0.4487
19028TIP3   OH278498   6.488   4.133   0.151 -0.4157 -0.0797  0.3365
19028TIP3    H178499   6.470   4.043   0.176  1.5900 -1.4654 -2.6684
19028TIP3    H278500   6.562   4.159   0.206 -0.9342 -0.2512  1.1345
19029TIP3   OH278501   1.850   5.120   2.853  0.1588 -0.4794  0.2309
19029TIP3    H178502   1.891   5.034   2.862 -2.7199 -2.1018 -0.7741
19029TIP3    H278503   1.834   5.130   2.759  0.1745  1.0679  0.3621
19030TIP3   OH278504   4.441   3.575  16.730 -0.1292  0.1552 -0.0390
19030TIP3    H178505   4.375   3.626  16.776  0.6791  0.5487  0.7105
19030TIP3    H278506   4.476   3.635  16.664  1.2236  0.7924  1.2192
19031TIP3   OH278507   5.086   4.227   5.822 -0.2891 -0.5234 -0.4183
19031TIP3    H178508   5.004   4.204   5.779 -0.8191 -0.5924  0.6118
19031TIP3    H278509   5.153   4.213   5.755 -0.9644 -1.7618 -0.8627
19032TIP3   OH278510   1.058   1.198  16.614  0.0339 -0.4856 -0.8525
19032TIP3    H178511   1.093   1.218  16.701 -1.2659 -0.9129 -0.2064
19032TIP3    H278512   1.101   1.261  16.556  0.7333 -0.0291  0.1304
19033TIP3   OH278513   6.554   5.275  13.963 -0.5550  1.1366 -0.6744
19033TIP3    H178514   6.567   5.340  13.893  1.2326  2.7655  1.0543
19033TIP3    H278515   6.544   5.327  14.043  1.9782 -0.6414  0.9614
19034TIP3   OH278516   3.126   5.080  11.961  0.1228 -0.1060  0.1914
19034TIP3    H178517   3.172   5.014  11.911  0.7214 -0.6974  1.4865
19034TIP3    H278518   3.131   5.159  11.907 -0.7665 -1.1259 -1.4635
19035TIP3   OH278519   6.333   1.765  13.857  0.5210 -0.2097  0.1314
19035TIP3    H178520   6.346   1.783  13.950 -0.2809 -3.3618  0.9744
19035TIP3    H278521   6.239   1.749  13.848  0.7671 -1.1836 -0.9359
19036TIP3   OH278522   2.969   5.622   4.610 -0.8027  0.5317 -0.1818
19036TIP3    H178523   2.874   5.636   4.604 -0.7959  0.1734 -1.5835
19036TIP3    H278524   2.998   5.620   4.519  0.2220 -1.5941  0.1400
19037TIP3   OH278525   5.410   1.004  16.786 -0.3646 -0.3331 -0.4467
19037TIP3    H178526   5.379   0.973  16.871 -2.2357  3.0728  0.2701
19037TIP3    H278527   5.338   0.983  16.726 -1.0600  1.2438 -0.2129
19038TIP3   OH278528   6.100   2.216   4.512  0.0820  0.4757  0.8485
19038TIP3    H178529   6.163   2.284   4.534  1.4960 -0.5574  0.2158
19038TIP3    H278530   6.092   2.164   4.592  1.4877 -0.4468  0.4374
19039TIP3   OH278531   1.659   6.042  15.886  0.1216  0.4270  0.0123
19039TIP3    H178532   1.686   6.133  15.870 -0.9434  0.6805 -0.4318
19039TIP3    H278533   1.703   5.991  15.818  0.9077  0.5676  0.4027
19040TIP3   OH278534   3.894   1.911  16.995  0.2786 -0.2587  0.1004
19040TIP3    H178535   3.886   1.987  16.937  1.0017  0.2203  0.6177
19040TIP3    H278536   3.983   1.916  17.029 -0.5677  0.2749  2.3735
19041TIP3   OH278537   4.168   5.121  13.217 -0.6244 -0.6107 -0.8957
19041TIP3    H178538   4.127   5.144  13.301  1.1127 -0.7790  0.0575
19041TIP3    H278539   4.212   5.038  13.234  1.3774  0.2898 -1.3472
19042TIP3   OH278540   1.983   3.905   0.894 -0.0229 -0.0080 -0.0886
19042TIP3    H178541   2.019   3.978   0.945 -0.6438 -0.0595  0.4352
19042TIP3    H278542   2.023   3.827   0.932 -0.3275 -0.0307  0.1906
19043TIP3   OH278543   2.614   1.903  17.066 -0.6399  0.1034  0.1286
19043TIP3    H178544   2.668   1.848  17.009 -0.9839 -3.7753  3.0915
19043TIP3    H278545   2.674   1.972  17.096  1.3196 -1.3502 -0.2298
19044TIP3   OH278546   2.713   5.294   1.162 -0.1774 -0.2333  0.0676
19044TIP3    H178547   2.803   5.298   1.131 -0.3416  1.0499 -0.3119
19044TIP3    H278548   2.674   5.376   1.134 -1.7857 -1.2051 -0.7142
19045TIP3   OH278549   3.035   2.802   0.872 -0.0535 -0.5736  0.5214
19045TIP3    H178550   3.010   2.714   0.847 -1.3055  0.1443 -0.8706
19045TIP3    H278551   3.023   2.804   0.967  1.4077 -2.2980  0.8033
19046TIP3   OH278552   5.984   2.568  16.912 -0.1447  0.2714 -0.3608
19046TIP3    H178553   5.952   2.595  16.826  0.3426  0.1339 -0.5876
19046TIP3    H278554   5.912   2.591  16.972 -0.7340 -0.1814 -0.8764
19047TIP3   OH278555   0.046   2.654  14.185 -0.4641  0.3696  0.4016
19047TIP3    H178556   0.131   2.624  14.155 -0.9903  0.5379 -1.3876
19047TIP3    H278557   0.062   2.741  14.222  0.0227  0.7847 -0.7382
19048TIP3   OH278558   4.134   4.024  14.219 -0.2906  0.1926  0.2147
19048TIP3    H178559   4.049   4.066  14.238  0.0732  0.6423  0.9204
19048TIP3    H278560   4.118   3.931  14.229 -1.1273  0.1269 -1.4092
19049TIP3   OH278561   1.182   5.849   2.289 -0.4231  0.6098 -0.3223
19049TIP3    H178562   1.272   5.858   2.261 -0.0726  1.1125  0.8807
19049TIP3    H278563   1.149   5.772   2.242  0.8123  0.0575 -0.3198
19050TIP3   OH278564   0.446   2.923  11.366 -0.0524 -0.1445 -0.2916
19050TIP3    H178565   0.520   2.950  11.311 -0.9543  0.5272 -1.2227
19050TIP3    H278566   0.401   2.856  11.314  0.4178 -1.2213  0.6710
19051TIP3   OH278567   2.634   2.687   6.405 -0.4652  0.2029 -0.5658
19051TIP3    H178568   2.580   2.765   6.393  1.6646  1.7281 -0.8769
19051TIP3    H278569   2.587   2.635   6.469 -2.0009  1.7318 -0.3839
19052TIP3   OH278570   5.001   5.410  12.379  0.2665  0.1884 -0.0018
19052TIP3    H178571   4.984   5.343  12.313 -1.1857 -0.0603  0.5891
19052TIP3    H278572   4.963   5.490  12.343  1.1073  0.4927 -0.2558
19053TIP3   OH278573   0.955   6.676   5.492  0.1074 -0.0531 -0.2675
19053TIP3    H178574   0.888   6.611   5.513 -1.8621  2.0987  0.5935
19053TIP3    H278575   0.937   6.749   5.552  2.7731  0.9539 -0.5514
19054TIP3   OH278576   3.047   0.482  11.661 -0.1114  0.1489 -0.5171
19054TIP3    H178577   3.100   0.402  11.660  0.5930  0.5979 -0.1396
19054TIP3    H278578   3.051   0.515  11.571 -1.7698 -1.0879 -1.1080
19055TIP3   OH278579   1.158   0.143   3.295 -0.0894  0.0318 -0.1421
19055TIP3    H178580   1.195   0.056   3.282 -1.3741 -0.4021 -1.0105
19055TIP3    H278581   1.132   0.145   3.387 -0.6355 -0.7336 -0.2754
19056TIP3   OH278582   5.874   2.428   4.974 -0.0113 -0.6978  0.8072
19056TIP3    H178583   5.912   2.411   5.061  0.5229 -0.4369  0.6311
19056TIP3    H278584   5.860   2.522   4.972  2.9018 -0.1800 -0.5091
19057TIP3   OH278585   1.473   2.898  14.415  0.4094 -0.3697  0.3248
19057TIP3    H178586   1.489   2.825  14.356 -0.0191 -0.3298  0.1557
19057TIP3    H278587   1.557   2.944  14.420  0.6367 -0.7805  0.3069
19058TIP3   OH278588   1.505   4.139   6.227 -0.3391  0.0796 -0.0397
19058TIP3    H178589   1.475   4.063   6.276 -0.1743  0.3070  0.4254
19058TIP3    H278590   1.425   4.187   6.205 -0.3411  0.6628  1.1602
19059TIP3   OH278591   1.003   3.886  16.634  0.3503 -0.6714  0.2113
19059TIP3    H178592   1.019   3.845  16.720 -1.5594 -0.6985  0.5841
19059TIP3    H278593   0.938   3.831  16.592 -1.4081  1.2599  0.2347
19060TIP3   OH278594   2.718   3.477   0.341  0.1526 -0.0171 -0.1155
19060TIP3    H178595   2.663   3.481   0.419 -0.4618 -0.0146 -0.5479
19060TIP3    H278596   2.800   3.439   0.372  0.6128  1.7170  0.9380
19061TIP3   OH278597   0.699   1.559   1.660  0.3833 -0.7052 -0.0289
19061TIP3    H178598   0.630   1.493   1.655  0.5510 -1.0514  1.7975
19061TIP3    H278599   0.761   1.525   1.723  0.6561  1.0311  0.7003
19062TIP3   OH278600   3.153   3.971   6.723 -0.3683 -0.0102 -0.3968
19062TIP3    H178601   3.120   3.997   6.810 -0.9189 -0.4694 -0.4565
19062TIP3    H278602   3.180   3.880   6.735 -0.9962 -0.2622 -0.8463
19063TIP3   OH278603   3.284   4.952   2.952 -0.0258 -0.4155  0.2954
19063TIP3    H178604   3.193   4.981   2.954  0.5964  1.6854  0.8472
19063TIP3    H278605   3.302   4.935   2.860 -0.4688  0.9884 -0.0726
19064TIP3   OH278606   4.002   4.134  14.681  0.3442 -0.0532  0.0779
19064TIP3    H178607   4.062   4.130  14.756  1.2756  1.7644 -0.5106
19064TIP3    H278608   3.958   4.049  14.682  2.2957 -1.1395  1.0648
19065TIP3   OH278609   3.268   4.759  11.945 -0.1850  0.3669 -0.1434
19065TIP3    H178610   3.334   4.792  12.006 -0.5653  0.7153  0.0888
19065TIP3    H278611   3.198   4.726  12.002  0.6646 -1.9202 -0.3271
19066TIP3   OH278612   4.462   3.773  10.994 -0.1279  0.3797 -0.6691
19066TIP3    H178613   4.373   3.801  10.971 -0.1379  0.6724 -0.2826
19066TIP3    H278614   4.519   3.827  10.940 -0.1960 -0.1195 -1.2439
19067TIP3   OH278615   2.966   4.636   5.430 -0.5565 -0.3868 -0.3965
19067TIP3    H178616   2.952   4.707   5.493  0.0495  0.9913 -1.7421
19067TIP3    H278617   2.884   4.631   5.381 -1.2775 -1.9211  0.8927
19068TIP3   OH278618   6.560   5.590   2.327  0.1409 -0.3047  0.0545
19068TIP3    H178619   6.596   5.533   2.259 -1.7656  1.2214 -2.4248
19068TIP3    H278620   6.605   5.674   2.313  0.7380 -0.3117  1.6789
19069TIP3   OH278621   5.808   0.923  12.390  0.3686  0.0054 -0.1449
19069TIP3    H178622   5.805   0.829  12.410 -0.1072  0.2296  0.9111
19069TIP3    H278623   5.736   0.936  12.329 -0.2680 -0.1422  0.5526
19070TIP3   OH278624   5.112   1.709   2.680  0.1791 -0.3068 -0.3935
19070TIP3    H178625   5.199   1.734   2.650  0.5987 -1.5486 -0.2950
19070TIP3    H278626   5.092   1.629   2.631 -0.6992 -0.2977 -0.0702
19071TIP3   OH278627   0.933   0.749   1.541 -0.0041  0.0774 -0.5975
19071TIP3    H178628   0.909   0.656   1.539  1.0174 -0.2578  1.0274
19071TIP3    H278629   1.004   0.757   1.478 -0.8422  0.0148 -1.5807
19072TIP3   OH278630   3.435   3.548   1.537  0.5404 -0.5789 -0.3809
19072TIP3    H178631   3.490   3.470   1.543  1.9960  0.4562  0.4234
19072TIP3    H278632   3.426   3.578   1.628 -1.5730 -0.8245 -0.4574
19073TIP3   OH278633   2.746   5.389  11.119 -0.2317 -0.2246 -0.1319
19073TIP3    H178634   2.740   5.333  11.196  1.0310  0.0179  0.1602
19073TIP3    H278635   2.667   5.442  11.122  0.5736  0.9592  1.9490
19074TIP3   OH278636   0.865   5.373   3.508  0.6243  0.0017 -0.4415
19074TIP3    H178637   0.888   5.288   3.546  2.8086  1.3344  1.4762
19074TIP3    H278638   0.772   5.366   3.489  0.4526 -2.3700  0.8921
19075TIP3   OH278639   6.094   1.519   1.471  0.6116 -0.7559 -0.1287
19075TIP3    H178640   6.106   1.480   1.384  1.9861 -0.4392 -0.1152
19075TIP3    H278641   6.183   1.546   1.497 -0.0600  1.0018  0.4944
19076TIP3   OH278642   5.369   4.541   5.570 -0.0120 -0.0706 -0.9277
19076TIP3    H178643   5.434   4.575   5.632  0.7978 -0.4179 -1.5698
19076TIP3    H278644   5.305   4.496   5.625 -0.0370  0.7766 -0.2318
19077TIP3   OH278645   3.308   1.719  14.790  0.2497  0.8594  0.1326
19077TIP3    H178646   3.219   1.711  14.755  0.2620  0.0491  0.2795
19077TIP3    H278647   3.365   1.697  14.717  0.2614 -1.8359  0.8488
19078TIP3   OH278648   5.749   0.409   5.413  0.0105 -0.6272 -0.2312
19078TIP3    H178649   5.702   0.407   5.496  0.0797  0.4373 -0.1590
19078TIP3    H278650   5.817   0.342   5.422  0.9709  0.4889  1.1405
19079TIP3   OH278651   0.510   0.908   6.367  0.4887 -0.0346 -0.3694
19079TIP3    H178652   0.453   0.871   6.435  1.2548 -3.5134 -1.4222
19079TIP3    H278653   0.582   0.846   6.359  0.4183  0.1055 -4.3414
19080TIP3   OH278654   0.341   2.204  13.937  0.4377  0.3212 -0.1110
19080TIP3    H178655   0.402   2.213  13.864  1.4837  0.7433  0.7822
19080TIP3    H278656   0.289   2.126  13.916  0.2995  0.7918 -1.5752
19081TIP3   OH278657   5.966   5.840   2.226 -0.4713  0.3691 -0.4684
19081TIP3    H178658   5.917   5.780   2.282  0.3311  0.1559  0.0399
19081TIP3    H278659   5.900   5.890   2.179 -1.1828  0.6386  0.7711
19082TIP3   OH278660   5.483   1.433  14.417 -0.2626 -0.0993  0.1634
19082TIP3    H178661   5.545   1.477  14.358 -0.7392 -0.7340 -0.8414
19082TIP3    H278662   5.513   1.457  14.505  1.4935 -0.4994 -0.2848
19083TIP3   OH278663   2.555   4.428   5.735  0.2986  0.5712  0.2766
19083TIP3    H178664   2.588   4.351   5.689 -0.7749  1.0038 -1.2813
19083TIP3    H278665   2.634   4.481   5.752  0.6493  1.0455 -2.3327
19084TIP3   OH278666   1.673   4.550  14.963  0.5381  0.1565 -0.6094
19084TIP3    H178667   1.593   4.504  14.939 -0.3767  2.1482 -1.5811
19084TIP3    H278668   1.685   4.530  15.056 -0.5922 -0.8422 -0.6587
19085TIP3   OH278669   5.966   0.140  14.074  0.1746  0.2103  0.1844
19085TIP3    H178670   5.888   0.167  14.122  0.2510  1.9640 -0.6057
19085TIP3    H278671   5.933   0.104  13.991  0.1894  0.7208 -0.0443
19086TIP3   OH278672   1.113   5.165   1.323 -0.2956 -0.6264  0.4160
19086TIP3    H178673   1.027   5.195   1.354 -1.5245 -1.9302 -1.4763
19086TIP3    H278674   1.119   5.200   1.234  0.9308 -0.9502  0.3621
19087TIP3   OH278675   1.843   1.391  17.106 -0.2396 -0.9901 -0.2438
19087TIP3    H178676   1.918   1.336  17.129  0.4189 -0.3283 -0.7712
19087TIP3    H278677   1.832   1.449  17.181 -0.7699 -1.6575  0.1990
19088TIP3   OH278678   5.721   6.105   0.854 -0.2829  0.4630  0.2130
19088TIP3    H178679   5.772   6.086   0.776 -0.9895  0.2847 -0.2113
19088TIP3    H278680   5.741   6.033   0.914 -0.1113  0.3465  0.0175
19089TIP3   OH278681   2.983   5.129  13.824 -0.4199 -0.0013  0.3852
19089TIP3    H178682   3.072   5.137  13.859  0.5529  2.3881 -2.2161
19089TIP3    H278683   2.939   5.208  13.855 -0.5370  0.5165 -1.0421
19090TIP3   OH278684   0.193   0.455   3.287  0.0943 -0.3780 -0.2134
19090TIP3    H178685   0.247   0.432   3.212  0.0501  1.7889 -0.9767
19090TIP3    H278686   0.250   0.507   3.343 -0.5327  0.0152  0.0745
19091TIP3   OH278687   6.091   5.039   3.957 -0.0655  0.3370 -0.0209
19091TIP3    H178688   6.153   4.973   3.986  1.4008  1.6794  0.0437
19091TIP3    H278689   6.093   5.035   3.862  0.1334  0.3815 -0.0188
19092TIP3   OH278690   3.504   3.193   5.307 -0.0381 -0.1448  0.3403
19092TIP3    H178691   3.578   3.148   5.348  1.3799  0.5530 -1.3361
19092TIP3    H278692   3.445   3.123   5.280 -0.9658 -0.6484  3.3018
19093TIP3   OH278693   1.416   0.498  17.298 -0.1604 -0.3899  0.2041
19093TIP3    H178694   1.392   0.424  17.242  1.5076 -0.4884 -0.4567
19093TIP3    H278695   1.491   0.465  17.348  0.8708  0.9515 -0.3962
19094TIP3   OH278696   2.299   2.809   0.923  0.0742  0.1184  0.0408
19094TIP3    H178697   2.378   2.832   0.972 -0.7725  1.1496  0.9506
19094TIP3    H278698   2.231   2.799   0.990 -0.9593  0.9115 -0.8626
19095TIP3   OH278699   3.297   4.780   6.092  0.1418 -0.2071  0.1543
19095TIP3    H178700   3.235   4.762   6.021  0.0010 -0.4664  0.3428
19095TIP3    H278701   3.243   4.807   6.166  0.2292 -0.6845  0.3997
19096TIP3   OH278702   0.587   6.285   1.397 -0.1665 -0.1451  0.3604
19096TIP3    H178703   0.641   6.279   1.475  1.3446 -2.5240 -0.7297
19096TIP3    H278704   0.503   6.245   1.422 -0.5822  1.2833  1.3646
19097TIP3   OH278705   2.038   1.994  15.911  0.0633 -0.4597  0.2176
19097TIP3    H178706   2.054   2.084  15.883  0.3868 -1.0459 -1.5933
19097TIP3    H278707   1.947   1.995  15.942  0.1981  0.5717  0.6160
19098TIP3   OH278708   1.519   4.269  14.077  0.3908 -0.5643 -0.4697
19098TIP3    H178709   1.574   4.327  14.024 -0.3803 -0.0628 -0.7336
19098TIP3    H278710   1.579   4.232  14.141  1.4103 -1.3788 -1.8342
19099TIP3   OH278711   0.930   4.661   4.000 -0.0026  0.0616  0.3284
19099TIP3    H178712   0.951   4.578   4.043 -0.7897 -0.8831 -1.0249
19099TIP3    H278713   0.926   4.640   3.907 -0.1265  1.6519 -0.0599
19100TIP3   OH278714   6.174   2.973  16.992  0.0511 -0.1745  1.1305
19100TIP3    H178715   6.243   2.908  17.008 -1.2460 -1.8919  0.1563
19100TIP3    H278716   6.093   2.922  16.995 -1.0558  1.4950  0.6595
19101TIP3   OH278717   6.176   2.518   2.017  0.1565 -0.0026 -0.3018
19101TIP3    H178718   6.206   2.607   2.034  3.8063 -0.9313 -1.1144
19101TIP3    H278719   6.214   2.496   1.931 -0.0930 -2.5427  0.1780
19102TIP3   OH278720   4.685   0.357  12.019 -0.4489 -0.3071 -0.0469
19102TIP3    H178721   4.619   0.424  12.003 -0.4635 -0.1079  0.8263
19102TIP3    H278722   4.650   0.304  12.090 -0.5884 -1.4653 -0.9360
19103TIP3   OH278723   1.329   1.030   1.466  0.7386  0.4655 -0.1447
19103TIP3    H178724   1.250   0.980   1.444  2.2876 -0.5764 -4.3197
19103TIP3    H278725   1.312   1.063   1.554 -2.8251 -2.5839  0.5974
19104TIP3   OH278726   2.634   4.810   1.343  0.2732  0.1873 -0.1231
19104TIP3    H178727   2.621   4.716   1.348  0.2104  0.2218  0.5051
19104TIP3    H278728   2.608   4.834   1.254 -0.4831 -0.2692 -0.0308
19105TIP3   OH278729   0.946   6.667  15.200  0.2845  0.0880 -0.8041
19105TIP3    H178730   0.870   6.691  15.254 -0.5011 -1.0007 -1.3850
19105TIP3    H278731   0.957   6.740  15.139  0.9680  1.1792  0.5673
19106TIP3   OH278732   5.736   1.361   4.542  0.5148  0.0548  0.0787
19106TIP3    H178733   5.759   1.435   4.485  2.1483  0.5263  1.2989
19106TIP3    H278734   5.747   1.284   4.486  0.2749  0.6127 -0.7685
19107TIP3   OH278735   0.177   4.897  11.575 -0.2055  0.4906 -0.2984
19107TIP3    H178736   0.107   4.927  11.633 -0.4922 -1.0215  0.2013
19107TIP3    H278737   0.193   4.970  11.516  0.7682  2.4825  2.2604
19108TIP3   OH278738   2.492   4.820   5.526 -0.3465 -0.8949 -0.0018
19108TIP3    H178739   2.426   4.888   5.545  1.4204  0.9346 -0.0583
19108TIP3    H278740   2.513   4.832   5.433  0.5771 -0.9567  0.1886
19109TIP3   OH278741   3.718   1.899   1.600  0.1175 -0.4298 -0.3311
19109TIP3    H178742   3.810   1.873   1.596  0.3999  0.4461  0.2286
19109TIP3    H278743   3.682   1.871   1.516  0.9538 -0.5509 -0.6590
19110TIP3   OH278744   3.877   1.513   4.363 -0.3424 -0.0689  0.7280
19110TIP3    H178745   3.868   1.430   4.317  0.7662  0.4614 -0.5025
19110TIP3    H278746   3.965   1.510   4.402  0.8421  1.5425 -1.5822
19111TIP3   OH278747   2.015   2.592   4.526  0.4910 -0.3526  0.1906
19111TIP3    H178748   1.965   2.632   4.596 -0.0746  0.7660 -0.8200
19111TIP3    H278749   1.990   2.500   4.527  1.4056 -0.6293  2.2057
19112TIP3   OH278750   3.326   1.627   0.349 -0.0618  0.0335  0.1915
19112TIP3    H178751   3.300   1.711   0.386  1.2523  0.8917 -0.7127
19112TIP3    H278752   3.246   1.575   0.348 -0.6341  0.7989  1.9757
19113TIP3   OH278753   0.800   2.521  15.843 -0.0370  0.3888 -0.4218
19113TIP3    H178754   0.759   2.549  15.924  1.1286  3.1162 -0.6497
19113TIP3    H278755   0.847   2.441  15.865 -1.0250  0.2254  1.1726
19114TIP3   OH278756   0.814   5.167   2.281 -0.2879  0.0014 -0.5011
19114TIP3    H178757   0.755   5.093   2.271 -1.3576  0.9496 -1.4501
19114TIP3    H278758   0.847   5.184   2.193 -1.1532  1.5227 -0.5509
19115TIP3   OH278759   2.075   1.725   6.638  0.4746  0.3240 -0.2308
19115TIP3    H178760   2.070   1.659   6.707 -0.9819  0.5613 -0.0890
19115TIP3    H278761   2.106   1.677   6.561 -1.1358 -0.6851 -0.2886
19116TIP3   OH278762   1.769   4.504  14.704  1.0447  0.1672 -0.0411
19116TIP3    H178763   1.741   4.424  14.660 -1.6810  0.6750  0.5983
19116TIP3    H278764   1.722   4.503  14.787  0.6471  2.5956 -0.1726
19117TIP3   OH278765   3.080   6.015   4.329 -0.4404  0.4611 -0.1112
19117TIP3    H178766   3.071   5.948   4.262  0.1769  0.9616 -0.7113
19117TIP3    H278767   3.008   5.999   4.389 -0.6683 -0.3449 -0.5866
19118TIP3   OH278768   2.585   6.141  16.724  0.0006  0.6478  0.5456
19118TIP3    H178769   2.536   6.098  16.654  1.4573  0.5808 -0.4681
19118TIP3    H278770   2.559   6.093  16.803 -1.4349  0.5297  0.0391
19119TIP3   OH278771   1.770   3.233  11.148 -0.0236 -0.1584  0.3536
19119TIP3    H178772   1.792   3.325  11.132 -0.1743 -0.2284 -0.2695
19119TIP3    H278773   1.684   3.235  11.189  0.1800 -0.0021  0.7876
19120TIP3   OH278774   4.277   6.059  16.921  0.8016 -0.1974  0.2972
19120TIP3    H178775   4.367   6.080  16.899  1.7014 -2.7835  1.1664
19120TIP3    H278776   4.277   5.965  16.939 -2.4664 -0.7416 -1.6622
19121TIP3   OH278777   1.809   1.652   1.210  0.1555  0.4884  0.3880
19121TIP3    H178778   1.837   1.685   1.125 -2.1474  0.1148 -0.5989
19121TIP3    H278779   1.839   1.718   1.272  3.4926 -0.1181 -0.4203
19122TIP3   OH278780   3.660   6.652  13.938  0.3402  0.0249 -0.2723
19122TIP3    H178781   3.636   6.560  13.934  0.0685 -0.0579  1.7661
19122TIP3    H278782   3.732   6.661  13.877 -1.2878 -0.9389 -2.4541
19123TIP3   OH278783   5.386   2.806  15.293 -0.2158  0.6985  0.1578
19123TIP3    H178784   5.405   2.850  15.210 -0.1217 -1.4978 -1.0331
19123TIP3    H278785   5.347   2.723  15.268 -0.1197 -0.0619  2.3409
19124TIP3   OH278786   6.054   3.285  12.077  0.1911 -0.2523 -0.3443
19124TIP3    H178787   6.049   3.380  12.089 -1.0189 -0.4929  1.3820
19124TIP3    H278788   6.105   3.274  11.997  0.2041  1.8511 -0.6829
19125TIP3   OH278789   1.404   2.543   5.386  0.7930 -0.0197  0.0784
19125TIP3    H178790   1.345   2.609   5.349  0.7610 -0.4349 -0.6283
19125TIP3    H278791   1.347   2.467   5.403  0.8912  0.0160  0.5725
19126TIP3   OH278792   2.332   1.239   4.632  0.1341  0.5065 -0.3038
19126TIP3    H178793   2.355   1.153   4.597  0.1153  0.8625 -1.2177
19126TIP3    H278794   2.372   1.242   4.718  0.0084 -0.4801 -0.2060
19127TIP3   OH278795   2.506   0.266   5.491 -0.0704  0.1218 -0.1035
19127TIP3    H178796   2.429   0.238   5.541  0.5511 -0.9292  0.3192
19127TIP3    H278797   2.513   0.203   5.420  1.5459 -1.1042  1.0508
19128TIP3   OH278798   5.015   2.598   4.751  0.7316 -0.2330 -0.6286
19128TIP3    H178799   5.095   2.593   4.803  1.9446  0.2792 -2.3266
19128TIP3    H278800   5.023   2.680   4.702 -0.8180 -0.1967 -0.8832
19129TIP3   OH278801   2.032   0.787   3.593 -0.3405 -0.5092 -0.0058
19129TIP3    H178802   2.021   0.754   3.682  2.0816 -0.2292  0.4439
19129TIP3    H278803   2.081   0.868   3.603  0.2022 -0.6037 -1.6253
19130TIP3   OH278804   2.382   0.739  17.264 -0.1890  0.2757 -0.2418
19130TIP3    H178805   2.291   0.765  17.280 -0.0392  1.3623 -1.0776
19130TIP3    H278806   2.376   0.646  17.243 -1.0883  0.2964 -0.1373
19131TIP3   OH278807   0.159   2.071   0.865 -1.0719  0.2574  0.0910
19131TIP3    H178808   0.243   2.067   0.819 -1.9070  1.7044 -1.6953
19131TIP3    H278809   0.182   2.098   0.954  0.3669  0.7100 -0.3848
19132TIP3   OH278810   6.030   2.827   0.465 -0.0157 -0.0217  0.4281
19132TIP3    H178811   5.939   2.847   0.443 -0.3163 -1.2693  0.4754
19132TIP3    H278812   6.036   2.843   0.559 -0.8744 -2.2632  0.9157
19133TIP3   OH278813   6.137   3.252  14.708 -0.9036  0.0196  0.3256
19133TIP3    H178814   6.129   3.333  14.658  1.0359  0.2104  0.2652
19133TIP3    H278815   6.123   3.182  14.644  0.0867  0.2846 -0.1929
19134TIP3   OH278816   1.420   3.621  12.158 -0.1422  0.1514 -0.1602
19134TIP3    H178817   1.325   3.636  12.154  0.0173  1.1078 -0.6616
19134TIP3    H278818   1.445   3.645  12.247 -0.2761  0.5299 -0.2225
19135TIP3   OH278819   0.305   6.523  16.009  0.0441 -0.1343  0.2633
19135TIP3    H178820   0.216   6.518  16.044 -0.1569 -1.0820 -0.3410
19135TIP3    H278821   0.351   6.450  16.052  0.1244 -0.5461 -0.5086
19136TIP3   OH278822   2.483   2.712  14.783  0.1880  0.1239 -0.6593
19136TIP3    H178823   2.399   2.755  14.797  0.3072  0.5644 -1.2588
19136TIP3    H278824   2.526   2.715  14.868  0.0874  0.9654 -0.6357
19137TIP3   OH278825   1.588   5.161  15.790  0.1313  0.5968  0.1015
19137TIP3    H178826   1.606   5.253  15.813  1.3486  0.5699 -0.6418
19137TIP3    H278827   1.626   5.111  15.862  1.4621  0.6168 -0.5522
19138TIP3   OH278828   1.200   3.382  11.247  0.3115  0.5924 -0.1160
19138TIP3    H178829   1.152   3.360  11.167  1.6566  0.0889 -0.8133
19138TIP3    H278830   1.146   3.449  11.289 -0.4145  0.8911 -1.4519
19139TIP3   OH278831   3.334   1.282  11.688  0.6539  0.0423 -0.2452
19139TIP3    H178832   3.274   1.212  11.714  1.2352 -0.1716  0.5412
19139TIP3    H278833   3.308   1.358  11.740 -0.0861  0.4732 -1.2222
19140TIP3   OH278834   1.303   0.610   3.476 -0.1243  0.2966  0.4574
19140TIP3    H178835   1.343   0.657   3.403 -0.4808  0.0387  0.0899
19140TIP3    H278836   1.217   0.583   3.443 -0.8536  1.3626  1.4462
19141TIP3   OH278837   5.466   3.337   1.761 -0.1362 -0.1914 -0.3202
19141TIP3    H178838   5.429   3.425   1.751  2.1279  1.2356  2.3384
19141TIP3    H278839   5.521   3.325   1.684 -0.7989  0.5250 -0.9249
19142TIP3   OH278840   4.092   1.454  10.896  0.1207 -0.3092 -0.5884
19142TIP3    H178841   4.045   1.537  10.886  0.2756 -0.0978  0.3471
19142TIP3    H278842   4.164   1.459  10.833 -0.1459  0.0574 -0.8728
19143TIP3   OH278843   1.968   1.322  13.718 -0.3631  0.0152 -0.1497
19143TIP3    H178844   1.992   1.233  13.744 -2.4692 -0.3132  0.9095
19143TIP3    H278845   2.039   1.377  13.749 -0.6684 -0.9273  2.3930
19144TIP3   OH278846   4.263   2.858  13.892 -0.3033 -0.3722  0.6604
19144TIP3    H178847   4.217   2.804  13.957  0.3123  0.1693  1.5569
19144TIP3    H278848   4.313   2.920  13.944  1.4934 -0.9650 -0.2956
19145TIP3   OH278849   1.604   2.904   3.616  0.0420 -0.5708  0.0481
19145TIP3    H178850   1.682   2.859   3.647  1.7535  1.1210 -1.5397
19145TIP3    H278851   1.552   2.836   3.573  0.5039 -1.7560  1.3160
19146TIP3   OH278852   0.309   0.749   5.091 -0.4169  0.0628  0.5789
19146TIP3    H178853   0.240   0.816   5.085  0.8651  1.3614 -0.1273
19146TIP3    H278854   0.300   0.699   5.010 -1.8975 -1.2018  1.4671
19147TIP3   OH278855   4.574   2.946  12.675 -0.2402 -0.3491  0.2095
19147TIP3    H178856   4.539   2.991  12.598  0.5871  4.3611  2.2391
19147TIP3    H278857   4.668   2.958  12.669  0.0239 -1.7796  0.9754
19148TIP3   OH278858   1.491   5.508   5.134 -0.4595  0.0139  0.3494
19148TIP3    H178859   1.499   5.599   5.106 -0.2260 -0.3702 -0.9011
19148TIP3    H278860   1.400   5.485   5.116 -0.7481  0.2273  1.4461
19149TIP3   OH278861   2.968   0.258  14.647  0.6884  0.0382  0.1001
19149TIP3    H178862   3.039   0.263  14.582  0.4541 -2.3633 -0.4266
19149TIP3    H278863   2.895   0.218  14.600  0.1347 -0.7204  1.5484
19150TIP3   OH278864   6.456   0.236   3.103  0.1057  0.0680  0.0074
19150TIP3    H178865   6.386   0.301   3.097  0.4806  0.5603  0.8310
19150TIP3    H278866   6.505   0.246   3.022  0.3787  1.0800  0.2874
19151TIP3   OH278867   4.071   4.539   4.623  0.0433  0.0040 -0.4271
19151TIP3    H178868   4.111   4.579   4.700  2.4400 -0.2229 -1.4889
19151TIP3    H278869   4.086   4.602   4.552 -1.1939 -0.2633 -0.9673
19152TIP3   OH278870   2.666   4.589  12.982 -0.6705  0.8111  0.2962
19152TIP3    H178871   2.637   4.613  13.070 -0.8113 -0.8920  0.7448
19152TIP3    H278872   2.608   4.518  12.956 -1.1042  1.7669 -1.5000
19153TIP3   OH278873   6.593   2.944  17.075 -0.4695  0.0597 -0.3199
19153TIP3    H178874   6.555   3.031  17.085  1.1575  0.8539 -0.6509
19153TIP3    H278875   6.521   2.883  17.090 -1.2672  1.4135  1.6457
19154TIP3   OH278876   6.021   4.397   1.931  0.1509  0.1072 -0.4082
19154TIP3    H178877   6.057   4.464   1.873 -0.4233  0.3922 -0.4432
19154TIP3    H278878   5.932   4.384   1.900  0.3217 -0.8127 -0.5162
19155TIP3   OH278879   1.402   1.001   4.311 -0.4388 -0.1072  0.0888
19155TIP3    H178880   1.312   1.007   4.344 -0.3655  0.7667  0.1479
19155TIP3    H278881   1.454   1.052   4.373  0.2517 -1.3599  0.5699
19156TIP3   OH278882   6.329   4.684  12.617 -0.8283  0.0242 -0.4028
19156TIP3    H178883   6.374   4.648  12.694 -0.1553  1.5642 -0.0314
19156TIP3    H278884   6.245   4.639  12.615 -1.2921  0.6730  1.8457
19157TIP3   OH278885   2.461   1.670   6.796  0.2214  0.3607 -0.3463
19157TIP3    H178886   2.496   1.626   6.719  0.8559  0.1617  0.0469
19157TIP3    H278887   2.421   1.600   6.847 -0.1625  0.4866 -0.4719
19158TIP3   OH278888   3.518   4.674  15.769 -0.2731  0.5589  0.2499
19158TIP3    H178889   3.471   4.591  15.777  0.9940 -0.3696 -1.3471
19158TIP3    H278890   3.544   4.678  15.677  1.6604  1.6211  0.7899
19159TIP3   OH278891   3.094   0.837  17.248 -0.3127 -0.1564  0.2161
19159TIP3    H178892   3.079   0.768  17.313 -1.1831  0.3763  0.6075
19159TIP3    H278893   3.006   0.872  17.230 -0.0806 -0.3228 -1.2877
19160TIP3   OH278894   4.653   3.599   1.755  0.2064 -0.0078 -0.2327
19160TIP3    H178895   4.683   3.677   1.708  1.9303 -0.6029 -0.2052
19160TIP3    H278896   4.633   3.536   1.686  1.7807 -0.5429 -0.2522
19161TIP3   OH278897   3.740   4.822  14.614  0.1292  0.5723  0.0449
19161TIP3    H178898   3.686   4.882  14.667  0.0829  0.8952 -0.3641
19161TIP3    H278899   3.700   4.736  14.628 -0.2945  0.7589  0.0116
19162TIP3   OH278900   1.918   6.072  14.347  0.3054 -0.0025  0.3550
19162TIP3    H178901   1.886   6.162  14.354 -0.2060 -0.1973  0.5396
19162TIP3    H278902   1.907   6.050  14.255 -0.4771 -0.2106  0.4979
19163TIP3   OH278903   1.949   2.434  14.663  0.2569  0.5046  0.0622
19163TIP3    H178904   1.984   2.452  14.750  1.2772  0.7124 -0.3741
19163TIP3    H278905   1.863   2.396  14.679  0.6399  0.0684  1.1791
19164TIP3   OH278906   3.904   1.319   3.345  0.3849  0.4179 -0.2775
19164TIP3    H178907   3.939   1.399   3.385 -2.6368  2.4143 -1.2062
19164TIP3    H278908   3.824   1.301   3.395 -0.1867 -0.6899 -1.5479
19165TIP3   OH278909   1.473   0.842  15.120  0.0715  0.6982 -0.5277
19165TIP3    H178910   1.534   0.911  15.092  1.3606  0.4765  1.5162
19165TIP3    H278911   1.528   0.766  15.135 -0.9296  0.0583 -0.0159
19166TIP3   OH278912   2.900   2.576  14.199 -0.2978  0.5890  0.1760
19166TIP3    H178913   2.899   2.480  14.195 -3.4414  0.3633  2.5762
19166TIP3    H278914   2.983   2.601  14.158 -0.8281 -2.8943 -3.7029
19167TIP3   OH278915   1.487   1.615   1.245 -0.0655 -0.7580 -0.5915
19167TIP3    H178916   1.418   1.665   1.202  1.1623  1.1994 -0.3780
19167TIP3    H278917   1.527   1.564   1.174 -0.5941 -0.5956 -1.0166
19168TIP3   OH278918   1.859   3.974  14.319  0.4372 -0.3321  0.4609
19168TIP3    H178919   1.889   4.040  14.257  0.0063 -1.0957 -0.6082
19168TIP3    H278920   1.863   3.892  14.269 -1.2616 -0.7731  0.9898
19169TIP3   OH278921   1.887   5.693   1.166 -0.0098 -0.3852  0.6980
19169TIP3    H178922   1.969   5.708   1.212 -0.1825 -0.2327  0.9593
19169TIP3    H278923   1.828   5.657   1.232  0.3218 -2.0504  0.1385
19170TIP3   OH278924   4.658   2.397   5.058 -0.1296  0.4074 -0.4149
19170TIP3    H178925   4.620   2.312   5.037 -2.1735  1.4226 -1.1303
19170TIP3    H278926   4.641   2.409   5.152  0.0299  0.1040 -0.3464
19171TIP3   OH278927   0.611   4.030  16.700 -0.0261 -0.3067  0.2433
19171TIP3    H178928   0.534   3.980  16.673  0.6000 -0.4731 -1.4145
19171TIP3    H278929   0.683   3.992  16.648  0.6889  1.5184 -0.1972
19172TIP3   OH278930   3.259   4.373  12.205 -0.2780  0.9827  0.1579
19172TIP3    H178931   3.246   4.319  12.284  3.2251  1.1955  1.0632
19172TIP3    H278932   3.249   4.463  12.236 -1.0535  1.0123 -0.1677
19173TIP3   OH278933   4.284   1.737  17.364  0.6500 -0.6567 -1.0677
19173TIP3    H178934   4.311   1.645  17.357  0.8594 -0.7692  0.7210
19173TIP3    H278935   4.235   1.741  17.446  2.8179  1.2820  0.2591
19174TIP3   OH278936   1.857   4.515  16.680 -0.7962  0.3543  0.6191
19174TIP3    H178937   1.915   4.567  16.735 -1.4113 -0.7017  2.3474
19174TIP3    H278938   1.908   4.437  16.659 -1.8541 -1.1400  3.1262
19175TIP3   OH278939   1.315   3.808   2.955 -0.0417  0.3870 -0.3576
19175TIP3    H178940   1.219   3.811   2.960 -0.0008  1.4777  0.1322
19175TIP3    H278941   1.341   3.899   2.945  0.9764  0.1709  0.1505
19176TIP3   OH278942   0.006   0.132  15.174 -0.3712  0.6294 -0.4090
19176TIP3    H178943   0.064   0.073  15.222  0.1085  1.2858 -0.1666
19176TIP3    H278944  -0.073   0.081  15.158  0.2678 -0.2809 -0.7295
19177TIP3   OH278945   0.853   4.612  12.885 -0.0597 -0.6681  0.6208
19177TIP3    H178946   0.889   4.611  12.974 -0.1138 -0.0716  0.6524
19177TIP3    H278947   0.758   4.606  12.898 -0.0314 -1.2428  0.5751
19178TIP3   OH278948   2.526   4.522   2.706 -0.1853  0.1561 -0.1407
19178TIP3    H178949   2.538   4.560   2.619 -0.4417  0.1516 -0.1789
19178TIP3    H278950   2.433   4.503   2.711  0.1787 -1.9878 -0.7281
19179TIP3   OH278951   3.845   5.339   2.010  0.2335 -0.0879 -0.0157
19179TIP3    H178952   3.749   5.333   2.015  0.2720 -0.6470  0.0888
19179TIP3    H278953   3.872   5.257   1.968  0.7329 -0.3757  0.8431
19180TIP3   OH278954   5.963   5.822  13.402 -0.4078  0.4681 -0.2996
19180TIP3    H178955   5.917   5.906  13.409 -1.6634 -0.0896 -1.3449
19180TIP3    H278956   5.933   5.785  13.319 -0.0759 -1.1288  0.2535
19181TIP3   OH278957   5.930   1.677  16.383  0.2987  0.4528  0.0513
19181TIP3    H178958   5.982   1.614  16.333 -0.0827  0.0769  0.1226
19181TIP3    H278959   5.951   1.762  16.344  0.4952  0.2349 -0.3230
19182TIP3   OH278960   6.311   5.409   4.165  0.0413  0.4126  0.0126
19182TIP3    H178961   6.274   5.324   4.187 -0.2880  0.2689 -1.0536
19182TIP3    H278962   6.313   5.411   4.069 -0.6922  1.9116  0.0038
19183TIP3   OH278963   0.764   1.050  15.161 -0.2118  0.2585 -0.9217
19183TIP3    H178964   0.812   1.020  15.239 -2.6314 -0.6635  0.3287
19183TIP3    H278965   0.733   0.969  15.120 -2.4137  0.8083 -0.4681
19184TIP3   OH278966   0.466   6.753   5.124  0.6222  0.3406  0.3012
19184TIP3    H178967   0.385   6.764   5.174 -0.1991 -0.3915 -0.8247
19184TIP3    H278968   0.531   6.727   5.190 -0.2320  0.2165  1.1180
19185TIP3   OH278969   6.530   5.975   3.004  0.3345 -0.4490 -0.3830
19185TIP3    H178970   6.537   5.945   3.095  1.5877 -0.1956 -0.3746
19185TIP3    H278971   6.569   5.905   2.952 -0.4365 -0.6221 -0.7411
19186TIP3   OH278972   1.952   2.867  11.494 -0.3538 -0.4656  0.6622
19186TIP3    H178973   1.866   2.826  11.484 -0.4464 -0.1886  0.3209
19186TIP3    H278974   1.936   2.961  11.482  0.1714 -0.5105 -0.4823
19187TIP3   OH278975   1.915   6.405  15.972  0.9572 -0.2381 -0.1651
19187TIP3    H178976   1.945   6.469  16.036  1.2322 -0.3225 -0.2092
19187TIP3    H278977   1.954   6.322  16.001  1.9153 -0.0958 -1.0120
19188TIP3   OH278978   2.106   0.822  11.542  0.2668 -0.0251 -0.1913
19188TIP3    H178979   2.185   0.875  11.552  0.0191  0.3286 -0.0780
19188TIP3    H278980   2.093   0.781  11.628  0.3499 -0.1136 -0.2212
19189TIP3   OH278981   4.471   6.229   2.642 -0.1840 -0.1010 -0.0919
19189TIP3    H178982   4.455   6.195   2.730 -2.4238 -3.3299 -1.5248
19189TIP3    H278983   4.566   6.235   2.635  0.0668 -0.5238  2.2772
19190TIP3   OH278984   5.045   6.206  11.521 -0.4993  0.1338 -0.4912
19190TIP3    H178985   4.953   6.180  11.519 -0.5618  0.3903 -1.3541
19190TIP3    H278986   5.091   6.135  11.474 -0.2376 -0.0671  0.0606
19191TIP3   OH278987   4.285   2.218  14.948  0.5609  0.1818 -0.0022
19191TIP3    H178988   4.273   2.312  14.957  0.8576  0.3695 -1.3117
19191TIP3    H278989   4.379   2.207  14.929  0.2402 -0.1896 -1.5669
19192TIP3   OH278990   4.976   4.563  11.249  0.3832  0.1685 -0.5809
19192TIP3    H178991   4.953   4.536  11.160 -5.1539  0.6206  0.3135
19192TIP3    H278992   4.930   4.646  11.262  0.2987 -0.2514  2.8892
19193TIP3   OH278993   6.640   3.558  17.184 -0.2405  0.4507 -0.4725
19193TIP3    H178994   6.611   3.630  17.128  1.4039  3.2586  2.0107
19193TIP3    H278995   6.734   3.550  17.167  0.0662  0.6059  1.0415
19194TIP3   OH278996   4.904   2.586   1.085  0.1569 -0.1040  0.0306
19194TIP3    H178997   4.825   2.639   1.086 -0.5824 -1.0912 -1.5143
19194TIP3    H278998   4.894   2.526   1.160 -0.4932 -0.1191 -0.0650
19195TIP3   OH278999   1.066   6.731  13.822  0.3665 -0.4165 -0.2970
19195TIP3    H179000   1.085   6.777  13.740  1.6702 -0.0042  0.2183
19195TIP3    H279001   1.140   6.672  13.835  0.5089 -0.0045  0.9088
19196TIP3   OH279002   1.605   4.081  13.567 -0.3936  0.7791  0.1675
19196TIP3    H179003   1.519   4.110  13.539 -1.3972 -1.4110  0.8048
19196TIP3    H279004   1.589   4.031  13.647  1.1619 -1.3557 -0.7405
19197TIP3   OH279005   1.186   3.044  16.145  0.0435  0.3061  0.0651
19197TIP3    H179006   1.099   3.083  16.155  0.6832  1.5068  1.3136
19197TIP3    H279007   1.198   3.035  16.050 -0.4414  2.4875 -0.2460
19198TIP3   OH279008   4.648   2.536  10.983  0.6332  0.3632  0.1655
19198TIP3    H179009   4.691   2.472  11.039  0.6696 -1.1642 -1.4897
19198TIP3    H279010   4.719   2.574  10.931  0.3674  0.1466 -0.3672
19199TIP3   OH279011   5.888   2.080   4.686 -0.8054 -0.5139 -0.2240
19199TIP3    H179012   5.855   2.007   4.634  1.0640 -2.0029  0.6026
19199TIP3    H279013   5.895   2.046   4.775  0.4071  0.5557  0.1175
19200TIP3   OH279014   5.166   2.250   4.511 -0.0306  0.0914  0.0390
19200TIP3    H179015   5.159   2.340   4.480  1.2969  0.6293  1.1944
19200TIP3    H279016   5.113   2.248   4.591  0.6691  0.1244  0.5184
19201TIP3   OH279017   1.101   2.822   5.567 -0.0922 -0.1562 -0.0894
19201TIP3    H179018   1.164   2.871   5.618  0.2536 -0.6008 -0.0814
19201TIP3    H279019   1.062   2.760   5.629  0.3128 -0.6808 -0.3483
19202TIP3   OH279020   0.913   0.062   1.939 -0.6360 -0.3732 -0.9192
19202TIP3    H179021   0.934   0.146   1.896 -0.0947  0.0380  0.1084
19202TIP3    H279022   0.887   0.005   1.867 -1.9188  0.9370 -1.5609
19203TIP3   OH279023   6.287   2.114  11.773 -0.2019  0.6979 -0.1443
19203TIP3    H179024   6.262   2.023  11.759  1.5189  0.0486  0.7599
19203TIP3    H279025   6.249   2.136  11.858  1.7944 -0.1499  1.0246
19204TIP3   OH279026   1.764   0.177  14.147  0.3177  0.4606  0.0334
19204TIP3    H179027   1.697   0.127  14.099  2.4565 -2.4709 -0.1999
19204TIP3    H279028   1.744   0.162  14.239  0.0398  0.4585 -0.0278
19205TIP3   OH279029   0.737   2.260   4.416  0.4641 -0.1374  0.0935
19205TIP3    H179030   0.765   2.338   4.367 -1.4436 -0.8023 -2.2327
19205TIP3    H279031   0.644   2.273   4.430 -0.0153 -2.1756 -0.8079
19206TIP3   OH279032   0.479   3.532  16.586 -0.4035  0.4120 -0.6952
19206TIP3    H179033   0.460   3.569  16.500 -1.1491  2.3976  0.2685
19206TIP3    H279034   0.429   3.585  16.647  1.4972  0.2146  1.1590
19207TIP3   OH279035   0.526   1.055  11.864 -0.5515 -0.4368  0.1773
19207TIP3    H179036   0.433   1.035  11.879 -0.2706 -1.4082  0.6693
19207TIP3    H279037   0.529   1.087  11.774 -1.1978 -1.5493 -0.2584
19208TIP3   OH279038   5.396   5.432   0.013  0.3660 -0.0805 -0.5385
19208TIP3    H179039   5.436   5.366  -0.044  1.2269  1.3220 -1.6098
19208TIP3    H279040   5.447   5.427   0.094  2.6195  1.4626 -1.7737
19209TIP3   OH279041   6.106   1.338   2.684 -0.0970  0.4544 -0.7633
19209TIP3    H179042   6.113   1.369   2.774 -2.7893 -1.9157  0.4375
19209TIP3    H279043   6.187   1.290   2.669 -0.4367 -0.9023  1.2748
19210TIP3   OH279044   3.208   2.565  14.724  0.2006 -0.1510  1.2742
19210TIP3    H179045   3.285   2.564  14.667 -0.3235 -0.1609  0.5450
19210TIP3    H279046   3.193   2.658  14.742  0.5308 -0.1642  1.6305
19211TIP3   OH279047   5.312   0.305  15.814 -0.3628  0.2509  0.3793
19211TIP3    H179048   5.251   0.353  15.870  0.0376  2.8309 -1.2449
19211TIP3    H279049   5.256   0.260  15.751 -0.6855  1.2668 -0.0813
19212TIP3   OH279050   6.760   0.234  12.178 -0.9724  0.1878  0.1046
19212TIP3    H179051   6.667   0.218  12.193 -1.0577  0.4742 -0.1034
19212TIP3    H279052   6.775   0.322  12.212 -1.5893  1.6473 -2.9628
19213TIP3   OH279053   4.536   2.143   4.937 -0.3078 -0.1111  0.0096
19213TIP3    H179054   4.542   2.180   4.849  0.6415  1.3204  0.6353
19213TIP3    H279055   4.608   2.081   4.942 -0.0885  0.1337 -0.0789
19214TIP3   OH279056   3.335   4.968   3.754 -0.2771 -0.4717  0.0388
19214TIP3    H179057   3.396   5.028   3.710 -0.9328 -0.2825 -0.6470
19214TIP3    H279058   3.388   4.921   3.817  0.1156  1.4177  1.1921
19215TIP3   OH279059   4.456   4.116  11.596 -0.3050  0.0544 -0.1419
19215TIP3    H179060   4.513   4.077  11.531  0.5794  0.3366  0.4463
19215TIP3    H279061   4.514   4.141  11.668 -0.9355  1.7425 -0.1648
19216TIP3   OH279062   6.209   1.884   2.977 -0.3967  0.0086 -0.0329
19216TIP3    H179063   6.124   1.895   2.933 -0.6138 -0.7040  0.2008
19216TIP3    H279064   6.269   1.940   2.927 -0.9888  0.4773 -0.2335
19217TIP3   OH279065   1.058   5.170   2.769  0.3097 -0.2931  0.2468
19217TIP3    H179066   1.132   5.178   2.710 -0.1526  2.0192 -0.1288
19217TIP3    H279067   1.052   5.077   2.788  1.3462 -0.9402 -2.2306
19218TIP3   OH279068   3.604   2.102  15.264  0.2446 -0.3206 -0.3712
19218TIP3    H179069   3.691   2.141  15.274 -0.6583  1.5080  0.8561
19218TIP3    H279070   3.557   2.162  15.206 -0.1929 -1.3463 -1.1099
19219TIP3   OH279071   5.223   2.002   2.291  0.9272  0.1105  0.0062
19219TIP3    H179072   5.240   1.976   2.201  0.1084  0.8862 -0.3815
19219TIP3    H279073   5.261   2.089   2.299  1.5932 -0.2213  0.6204
19220TIP3   OH279074   3.274   6.562  14.012  0.0726 -0.2177 -0.2335
19220TIP3    H179075   3.320   6.567  13.928  0.6478  0.3754  0.1077
19220TIP3    H279076   3.259   6.653  14.037 -1.0734 -0.4018 -0.2096
19221TIP3   OH279077   3.596   6.373   1.314 -0.1156  0.0948 -0.3466
19221TIP3    H179078   3.600   6.440   1.246  1.9892  0.6850  0.2672
19221TIP3    H279079   3.558   6.417   1.390  0.1713  0.2630 -0.2994
19222TIP3   OH279080   4.029   0.297   0.276  0.0914  0.4401 -0.0196
19222TIP3    H179081   4.102   0.351   0.246  0.1324  0.9658  0.9719
19222TIP3    H279082   4.067   0.243   0.346 -0.2219 -0.0496 -0.2226
19223TIP3   OH279083   4.768   2.569  13.822 -0.1631  0.3572  0.2306
19223TIP3    H179084   4.689   2.586  13.873 -0.8321 -0.3925 -0.5071
19223TIP3    H279085   4.771   2.473  13.813  1.2106  0.3188  0.8162
19224TIP3   OH279086   0.472   3.216  14.968  0.0279 -0.3664 -0.0233
19224TIP3    H179087   0.454   3.271  15.044  0.7009 -0.6694  0.3603
19224TIP3    H279088   0.479   3.278  14.895  0.6676  0.0447  0.3844
19225TIP3   OH279089   5.187   4.943  12.078 -0.1130 -0.3879  0.3891
19225TIP3    H179090   5.230   5.017  12.035 -1.2602  0.3723  0.4829
19225TIP3    H279091   5.139   4.899  12.008  1.2603 -1.6109  0.1632
19226TIP3   OH279092   4.743   2.626  17.376 -0.0680  0.0246  0.3676
19226TIP3    H179093   4.825   2.591  17.342 -0.5740 -1.4741  0.6249
19226TIP3    H279094   4.739   2.595  17.467 -0.2031  1.3828  0.8589
19227TIP3   OH279095   2.498   6.756   0.374  0.5184  0.2173  0.2277
19227TIP3    H179096   2.558   6.762   0.449 -1.5724 -0.2692  2.0275
19227TIP3    H279097   2.433   6.824   0.390  0.4114  0.5816 -1.5689
19228TIP3   OH279098   1.606   1.746  10.680  0.3607  0.0205  0.3108
19228TIP3    H179099   1.585   1.839  10.688 -0.7949 -0.2912  1.3108
19228TIP3    H279100   1.522   1.701  10.696  0.8394 -1.1873 -0.4202
19229TIP3   OH279101   1.347   3.248  10.849  0.4511 -0.0471  0.4492
19229TIP3    H179102   1.307   3.224  10.766  0.3323 -0.2746  0.5701
19229TIP3    H279103   1.316   3.337  10.866  0.0139 -0.2092  0.5261
19230TIP3   OH279104   0.978   5.454   5.243 -0.4475  0.0890 -0.1203
19230TIP3    H179105   0.946   5.388   5.305 -3.0630  2.3412  1.1129
19230TIP3    H279106   0.966   5.413   5.157 -0.3330 -1.6677  0.6570
19231TIP3   OH279107   6.549   0.462  12.635  0.1175  0.4160 -0.1237
19231TIP3    H179108   6.560   0.511  12.717  0.9810 -0.1277  0.1059
19231TIP3    H279109   6.639   0.443  12.607 -0.1928 -1.3620  0.0067
19232TIP3   OH279110   4.565   4.071   1.223  0.9256  0.2318 -0.2885
19232TIP3    H179111   4.626   4.143   1.209 -0.2024  1.2408 -0.2352
19232TIP3    H279112   4.544   4.040   1.135 -0.6974  1.8592 -0.5588
19233TIP3   OH279113   4.720   6.483   5.025  0.0108 -0.3065 -0.2440
19233TIP3    H179114   4.784   6.554   5.034 -0.6135  0.1532  0.7280
19233TIP3    H279115   4.637   6.522   5.049 -0.2949 -1.4620  0.6692
19234TIP3   OH279116   1.509   5.545   4.572  0.2599 -0.1838  0.3896
19234TIP3    H179117   1.500   5.640   4.567  0.1173 -0.1097  1.6509
19234TIP3    H279118   1.580   5.524   4.512 -0.0423  0.6568 -0.2769
19235TIP3   OH279119   5.510   4.374   4.083  0.4552 -0.1047  0.2246
19235TIP3    H179120   5.569   4.302   4.104 -0.3305 -0.6975  0.4362
19235TIP3    H279121   5.521   4.387   3.989  1.8074  0.6036  0.4562
19236TIP3   OH279122   5.642   2.246   2.801 -0.6252  0.2644 -0.7464
19236TIP3    H179123   5.595   2.174   2.758 -0.1891  0.5986 -1.8320
19236TIP3    H279124   5.708   2.203   2.855 -1.8162 -0.1943  0.3932
19237TIP3   OH279125   2.691   1.287   0.163  0.0217 -0.0327 -0.1315
19237TIP3    H179126   2.697   1.270   0.256 -0.6969  0.0837 -0.0559
19237TIP3    H279127   2.779   1.316   0.137 -0.2941  2.0974  0.9520
19238TIP3   OH279128   3.467   3.172  11.790  0.2584 -0.1790 -0.1806
19238TIP3    H179129   3.513   3.251  11.817 -0.2571 -0.5493  1.9535
19238TIP3    H279130   3.382   3.178  11.833  0.6886 -2.4863  1.1057
19239TIP3   OH279131   4.023   4.861   4.240 -0.4418  0.1946  0.9325
19239TIP3    H179132   4.017   4.944   4.193 -0.9944  0.0951  0.8169
19239TIP3    H279133   3.938   4.852   4.283 -1.3859 -1.5216 -1.1137
19240TIP3   OH279134   3.282   6.736   1.191 -0.1178  0.0955  0.6378
19240TIP3    H179135   3.294   6.797   1.119  2.1765 -0.1181  0.7875
19240TIP3    H279136   3.235   6.662   1.152 -0.5651  0.7874 -0.1673
19241TIP3   OH279137   2.398   1.022  13.906 -0.4763  0.6967 -0.2581
19241TIP3    H179138   2.401   0.956  13.975  1.0706 -0.2457 -1.1722
19241TIP3    H279139   2.478   1.073  13.917 -1.0138  1.5994 -0.3787
19242TIP3   OH279140   6.700   3.260   5.716  0.0573  0.5613  0.4481
19242TIP3    H179141   6.723   3.183   5.768 -0.2094  0.0101 -0.2369
19242TIP3    H279142   6.626   3.232   5.662  0.4335  1.0643 -0.3480
19243TIP3   OH279143   1.668   3.059  11.650 -0.1776  0.9155  0.1217
19243TIP3    H179144   1.683   2.983  11.594  0.3433 -0.1000  1.5901
19243TIP3    H279145   1.573   3.066  11.657 -0.2392  0.7712 -0.4897
19244TIP3   OH279146   5.287   5.565   3.117  0.4891  0.0679  0.2201
19244TIP3    H179147   5.197   5.561   3.086  1.1951  1.3730 -2.3448
19244TIP3    H279148   5.320   5.475   3.109  0.3869  0.1772 -2.3936
19245TIP3   OH279149   1.522   4.566  14.308  0.1357 -0.5369 -0.4121
19245TIP3    H179150   1.497   4.520  14.228  3.5406 -1.5448 -1.0329
19245TIP3    H279151   1.559   4.498  14.364 -1.4960  0.2879  1.7959
19246TIP3   OH279152   0.704   6.108  11.966  0.2331 -0.4261 -0.2840
19246TIP3    H179153   0.705   6.203  11.977 -1.0754 -0.3820 -0.4068
19246TIP3    H279154   0.728   6.074  12.053 -0.1711  0.0011 -0.0017
19247TIP3   OH279155   1.520   5.775  12.676  0.1379  0.1345 -0.3519
19247TIP3    H179156   1.571   5.852  12.648  0.4848  0.1047  0.1976
19247TIP3    H279157   1.520   5.718  12.599 -1.7870  1.5082 -1.4675
19248TIP3   OH279158   0.579   2.277  12.711 -0.3430  0.0392  0.2155
19248TIP3    H179159   0.546   2.347  12.767 -0.3204  0.3022 -0.0935
19248TIP3    H279160   0.592   2.319  12.626 -0.3211 -0.3390  0.0286
19249TIP3   OH279161   0.133   0.409   4.066 -0.0814 -0.1390  0.4686
19249TIP3    H179162   0.163   0.349   3.998  0.1065 -0.8037  1.1350
19249TIP3    H279163   0.045   0.380   4.087 -0.9626  1.3588 -0.9603
19250TIP3   OH279164   2.172   1.000  14.670 -0.3980  0.5344  0.8847
19250TIP3    H179165   2.084   0.964  14.667 -0.7776  1.4867  0.3381
19250TIP3    H279166   2.202   0.998  14.579  0.6267 -0.9135  1.2164
19251TIP3   OH279167   4.165   2.863  11.078 -0.4015 -0.2946  0.1765
19251TIP3    H179168   4.198   2.951  11.095 -0.9929 -0.3931  2.0417
19251TIP3    H279169   4.073   2.876  11.055 -0.3559 -0.3927 -0.0666
19252TIP3   OH279170   4.022   5.769   4.676  0.1634 -0.4265 -0.5276
19252TIP3    H179171   4.060   5.841   4.727 -0.9967  0.6530 -1.1344
19252TIP3    H279172   3.973   5.813   4.607 -1.0894 -1.8039 -0.5434
19253TIP3   OH279173   6.659   6.618   3.048  0.7926 -0.8911  0.4810
19253TIP3    H179174   6.649   6.591   2.957 -0.2680  0.6902  0.0967
19253TIP3    H279175   6.626   6.543   3.098  0.1425 -1.2633 -0.4661
19254TIP3   OH279176   6.709   6.292   1.408  0.2056 -0.4338 -0.4681
19254TIP3    H179177   6.668   6.353   1.346 -2.4252 -0.6535  0.9018
19254TIP3    H279178   6.635   6.245   1.447  1.8591 -1.3710  1.7289
19255TIP3   OH279179   1.529   1.752   6.591 -0.0457  0.5114  0.5664
19255TIP3    H179180   1.539   1.674   6.537 -0.5469 -0.3914  1.7284
19255TIP3    H279181   1.436   1.775   6.585  0.3418  1.9072 -0.8975
19256TIP3   OH279182   4.872   2.226  10.580 -0.6506  0.0865  0.4253
19256TIP3    H179183   4.881   2.205  10.673 -0.7506  1.3517  0.7417
19256TIP3    H279184   4.962   2.245  10.551 -0.3126 -2.3289 -0.2836
19257TIP3   OH279185   3.163   5.214   0.410  0.0009 -0.5194 -0.5299
19257TIP3    H179186   3.159   5.231   0.504  0.2896 -1.6944 -0.2859
19257TIP3    H279187   3.114   5.286   0.370 -0.7588 -0.4130  0.5693
19258TIP3   OH279188   3.141   2.633  15.560 -0.3601 -0.1866 -0.5134
19258TIP3    H179189   3.123   2.647  15.467 -1.5583 -0.0830 -0.2870
19258TIP3    H279190   3.206   2.699  15.582 -1.5463  1.1463 -0.8356
19259TIP3   OH279191   2.897   1.077   5.527  1.2622  0.6866  0.6601
19259TIP3    H179192   2.980   1.038   5.500  1.4169  0.1714  1.8596
19259TIP3    H279193   2.900   1.080   5.622 -0.1274  0.5847  0.7367
19260TIP3   OH279194   4.352   6.469  17.242  0.0951  0.1268 -0.5735
19260TIP3    H179195   4.426   6.474  17.181 -0.1108  0.8302 -0.7758
19260TIP3    H279196   4.288   6.531  17.207  0.0776  0.7418  0.4902
19261TIP3   OH279197   1.515   3.069   3.810 -0.1026 -0.0563 -0.2936
19261TIP3    H179198   1.574   3.057   3.884 -1.8621 -2.5665  0.8394
19261TIP3    H279199   1.554   3.016   3.740 -0.5572 -1.0916  0.2121
19262TIP3   OH279200   0.810   0.232   2.557  0.3327  0.0090  0.7134
19262TIP3    H179201   0.723   0.271   2.566 -0.0745 -0.7277  0.0380
19262TIP3    H279202   0.849   0.278   2.482 -0.9064 -2.1458 -1.4040
19263TIP3   OH279203   4.590   1.638  11.112  0.3246  0.2720  0.5280
19263TIP3    H179204   4.575   1.711  11.052 -0.5369  1.2374  1.8566
19263TIP3    H279205   4.560   1.561  11.064  0.8771  0.8254 -0.7557
19264TIP3   OH279206   3.772   0.432  14.952 -0.2231  0.4641 -0.3227
19264TIP3    H179207   3.704   0.410  15.015 -0.0928  2.7156  0.7237
19264TIP3    H279208   3.730   0.496  14.894  0.4588  0.4481 -0.8398
19265TIP3   OH279209   6.151   1.835   2.365 -0.0715  0.1200  0.0237
19265TIP3    H179210   6.165   1.917   2.318  0.8959  0.2423  0.5020
19265TIP3    H279211   6.188   1.851   2.452  1.3936 -1.2701 -0.3071
19266TIP3   OH279212   2.646   1.135  13.785  0.0774  0.1415  0.0633
19266TIP3    H179213   2.723   1.184  13.814  0.8050 -1.2639  0.6455
19266TIP3    H279214   2.607   1.189  13.716  1.8697  0.6685 -0.5959
19267TIP3   OH279215   0.582   1.945  13.117 -0.3908  0.3522  0.0064
19267TIP3    H179216   0.514   2.008  13.095 -2.0600 -1.6449 -0.9396
19267TIP3    H279217   0.550   1.902  13.196  0.4325  0.2892  0.3169
19268TIP3   OH279218   1.943   4.781  17.303  0.0156  0.2609 -0.2044
19268TIP3    H179219   2.031   4.764  17.268  0.3985  1.4771  0.1231
19268TIP3    H279220   1.898   4.826  17.231 -1.1321 -2.3563 -1.2279
19269TIP3   OH279221   1.762   5.773  11.747 -0.4818  0.2192  0.2703
19269TIP3    H179222   1.796   5.752  11.834  1.0922  0.7418 -0.1912
19269TIP3    H279223   1.820   5.727  11.687 -0.8775  0.7585 -0.5427
19270TIP3   OH279224   2.932   4.643  11.584  0.2588 -0.0407  0.4645
19270TIP3    H179225   2.932   4.551  11.611  1.0613 -0.9892 -2.3675
19270TIP3    H279226   3.012   4.679  11.622 -0.3335 -0.3287  2.0491
19271TIP3   OH279227   2.697   1.586   0.809  0.1558  0.1102 -0.0289
19271TIP3    H179228   2.605   1.559   0.804  0.2702 -0.0713 -1.6787
19271TIP3    H279229   2.693   1.682   0.816 -0.1619  0.1797 -1.0268
19272TIP3   OH279230   5.047   6.193   3.926 -0.0917  0.0331  0.7208
19272TIP3    H179231   5.110   6.159   3.989  0.6503  1.7125  0.9309
19272TIP3    H279232   5.099   6.214   3.849 -0.4865  0.7935  0.6497
19273TIP3   OH279233   0.959   2.370  17.370 -0.2003 -0.2415  0.0924
19273TIP3    H179234   0.879   2.409  17.407 -0.2613 -0.3122  0.0368
19273TIP3    H279235   1.004   2.444  17.329  0.0879 -0.0803  0.6878
19274TIP3   OH279236   5.568   1.230  12.321 -0.7813 -0.0628  0.5723
19274TIP3    H179237   5.590   1.157  12.378  0.5673  0.0995  0.2770
19274TIP3    H279238   5.473   1.240  12.332 -0.4807  0.5428  3.4933
19275TIP3   OH279239   0.674   3.751  16.559  0.2597 -0.2927 -0.3777
19275TIP3    H179240   0.667   3.777  16.468  1.2059 -1.2768 -0.7546
19275TIP3    H279241   0.601   3.690  16.572 -1.1086  1.3489  0.1265
19276TIP3   OH279242   4.590   1.746  12.673  0.0189  0.2528 -0.2364
19276TIP3    H179243   4.612   1.719  12.585  1.8569  0.5132  0.1129
19276TIP3    H279244   4.660   1.712  12.728 -0.4486  1.1147  0.9547
19277TIP3   OH279245   6.354   5.559   1.160  0.0283  0.3701  0.1951
19277TIP3    H179246   6.279   5.577   1.217  0.0174 -0.0453  0.3181
19277TIP3    H279247   6.427   5.545   1.221  0.1372  0.4537  0.0858
19278TIP3   OH279248   0.450   3.175  13.173 -0.3125  0.2946  0.3048
19278TIP3    H179249   0.405   3.106  13.124 -2.6680  2.1635 -0.3327
19278TIP3    H279250   0.475   3.239  13.107  0.5602  0.7352  1.0417
19279TIP3   OH279251   0.421   6.595   5.985 -0.7991 -0.3051 -0.1669
19279TIP3    H179252   0.429   6.499   5.981  0.1848 -0.4229  2.3269
19279TIP3    H279253   0.393   6.612   6.075  1.8059  1.8344  0.3677
19280TIP3   OH279254   1.969   0.710  14.168 -0.3793 -0.1744  0.4619
19280TIP3    H179255   1.978   0.713  14.263  0.8907 -0.3582  0.3687
19280TIP3    H279256   2.018   0.787  14.137  0.5419 -0.9541 -0.0979
19281TIP3   OH279257   6.023   6.474  13.612  0.0129  0.2446  0.3047
19281TIP3    H179258   6.009   6.379  13.611  1.0334  0.0797  0.4530
19281TIP3    H279259   5.936   6.511  13.625 -0.3369 -0.6905  0.7200
19282TIP3   OH279260   3.940   5.971   1.507 -0.0774 -0.3174 -0.1798
19282TIP3    H179261   3.990   6.025   1.446  0.2019 -0.2073  0.1406
19282TIP3    H279262   3.899   5.904   1.453 -0.0240 -0.0787 -0.5167
19283TIP3   OH279263   5.487   0.310   3.621 -0.0236  0.8703  0.2233
19283TIP3    H179264   5.432   0.261   3.560  0.2437 -2.1673  2.2144
19283TIP3    H279265   5.573   0.312   3.578 -0.1821  0.0746 -0.1583
19284TIP3   OH279266   0.839   5.427  14.178  0.0739 -0.3905 -0.1887
19284TIP3    H179267   0.800   5.402  14.262  2.1024 -1.7175  0.4350
19284TIP3    H279268   0.829   5.522  14.173  0.3387 -0.2271  1.8130
19285TIP3   OH279269   4.889   4.284   4.532  0.7109  0.4087  0.4592
19285TIP3    H179270   4.978   4.300   4.499  1.7614  0.4734  3.0203
19285TIP3    H279271   4.868   4.363   4.581 -2.7156  2.3878 -3.5600
19286TIP3   OH279272   4.573   5.772   4.712 -0.0989 -0.1042  0.0742
19286TIP3    H179273   4.582   5.710   4.639  0.3690 -2.1328  1.7641
19286TIP3    H279274   4.608   5.854   4.678  0.1763 -0.9948 -1.9586
19287TIP3   OH279275   5.909   0.309  11.966 -0.4481  0.4416  0.8443
19287TIP3    H179276   5.963   0.387  11.978 -0.6579  0.4853  1.6065
19287TIP3    H279277   5.832   0.326  12.022  0.3069 -1.0545  2.4210
19288TIP3   OH279278   1.774   3.492  14.336 -0.1719 -0.3776  0.4468
19288TIP3    H179279   1.722   3.516  14.413  0.8434 -0.5030  1.1788
19288TIP3    H279280   1.835   3.564  14.325 -1.1360  0.2668 -1.0346
19289TIP3   OH279281   5.220   3.899  10.727  0.0870 -0.4104  0.5002
19289TIP3    H179282   5.292   3.959  10.749 -0.5273  1.1236 -1.3479
19289TIP3    H279283   5.256   3.841  10.660 -0.0595 -0.3380  0.3554
19290TIP3   OH279284   3.530   2.168  14.550 -0.2827  0.2561  0.1803
19290TIP3    H179285   3.478   2.178  14.471  0.1774 -0.1120 -0.1793
19290TIP3    H279286   3.480   2.107  14.605  0.4446 -1.2646 -0.7855
19291TIP3   OH279287   2.690   2.572  12.513 -0.1930 -0.1898 -0.0079
19291TIP3    H179288   2.700   2.545  12.422 -0.7215  0.2106 -0.1894
19291TIP3    H279289   2.670   2.666  12.508 -0.7035 -0.2694  0.4939
19292TIP3   OH279290   1.211   2.660  12.506 -0.7104 -0.3839  0.0047
19292TIP3    H179291   1.140   2.596  12.502  0.5270 -1.8736  0.5355
19292TIP3    H279292   1.231   2.678  12.414 -2.3066  0.7281 -0.1590
19293TIP3   OH279293   3.427   2.963  13.542 -0.5834  0.5036  0.5905
19293TIP3    H179294   3.339   2.993  13.520 -0.2709 -0.2826 -2.1299
19293TIP3    H279295   3.415   2.906  13.617 -2.4289  0.2857  0.1736
19294TIP3   OH279296   3.531   4.719  16.482  0.5931  0.1590 -0.0690
19294TIP3    H179297   3.511   4.797  16.431 -0.7580 -0.6028 -0.7375
19294TIP3    H279298   3.476   4.727  16.560  1.9217  0.8259  0.8449
19295TIP3   OH279299   1.677   6.435  11.630 -0.2090  0.0075  0.0995
19295TIP3    H179300   1.657   6.524  11.601 -0.0204  0.5854  1.6633
19295TIP3    H279301   1.637   6.379  11.564  0.1881  1.2424 -1.2502
19296TIP3   OH279302   3.248   5.442  11.463  0.3891 -0.2791  0.1801
19296TIP3    H179303   3.316   5.469  11.401  0.6836  0.2476  0.7240
19296TIP3    H279304   3.296   5.405  11.537  0.1798  1.4408  1.2197
19297TIP3   OH279305   6.629   4.076  15.216 -0.3939 -0.2565  0.3938
19297TIP3    H179306   6.540   4.070  15.183 -1.8891  2.1677  3.4195
19297TIP3    H279307   6.674   4.132  15.152 -1.5295 -0.1903 -0.3764
19298TIP3   OH279308   3.068   4.151  15.044  0.1084  0.3542  0.1653
19298TIP3    H179309   3.051   4.064  15.080  0.2691  0.4975  0.5853
19298TIP3    H279310   2.999   4.164  14.979  0.7460 -0.5642 -0.7365
19299TIP3   OH279311   0.300   5.768   2.236 -0.6973  0.4190  0.3127
19299TIP3    H179312   0.224   5.775   2.178 -0.8685  1.9737  0.6667
19299TIP3    H279313   0.375   5.791   2.181 -0.2482 -2.4554 -0.3949
19300TIP3   OH279314   3.658   5.544  14.010  0.5601  0.4630  0.1560
19300TIP3    H179315   3.711   5.512  13.937  0.1854  0.1824  0.0042
19300TIP3    H279316   3.715   5.607  14.056  0.8745  0.4708 -0.2433
19301TIP3   OH279317   5.820   4.666  14.136  0.1707 -0.2671 -0.4291
19301TIP3    H179318   5.776   4.749  14.117  0.6061  0.4798  1.5316
19301TIP3    H279319   5.913   4.685  14.124  0.1914 -0.8975 -1.3536
19302TIP3   OH279320   2.728   0.764  15.075  0.0551  0.1259  0.0096
19302TIP3    H179321   2.757   0.838  15.021  3.7514 -0.4063  1.0028
19302TIP3    H279322   2.785   0.692  15.048 -2.5411 -2.0873  0.0215
19303TIP3   OH279323   1.438   2.359   5.967 -0.3673 -0.0127 -0.3411
19303TIP3    H179324   1.431   2.339   6.060 -2.8527 -1.2580 -0.7105
19303TIP3    H279325   1.476   2.280   5.928  0.0639  0.2554 -0.4727
19304TIP3   OH279326   3.978   0.711   3.875 -0.0520 -0.5857  0.4225
19304TIP3    H179327   4.056   0.661   3.849 -0.6059  0.1904 -3.2751
19304TIP3    H279328   3.923   0.647   3.920  1.9477 -1.5776  1.6298
19305TIP3   OH279329   0.620   2.927   1.519  0.1571  0.4819  0.5160
19305TIP3    H179330   0.603   3.018   1.495 -1.4299 -0.0258 -0.4173
19305TIP3    H279331   0.679   2.894   1.450 -0.1583  0.4956  0.2402
19306TIP3   OH279332   1.868   1.555   4.214 -0.0557  0.5835 -0.0969
19306TIP3    H179333   1.828   1.507   4.141 -1.7498  1.6813  0.0534
19306TIP3    H279334   1.886   1.487   4.279  0.5921 -0.2763 -1.1289
19307TIP3   OH279335   2.321   6.576  11.750 -0.1645 -0.2074  0.5200
19307TIP3    H179336   2.300   6.518  11.676  1.2260  1.1742 -1.0479
19307TIP3    H279337   2.239   6.621  11.769 -0.6218 -0.8116  0.0320
19308TIP3   OH279338   4.272   4.148   3.108 -0.0376  0.5686  0.3635
19308TIP3    H179339   4.358   4.142   3.150  0.8677  0.0641 -1.4561
19308TIP3    H279340   4.291   4.169   3.017 -1.7947 -0.7891 -0.3782
19309TIP3   OH279341   0.853   4.804  11.102  0.3050  0.0253  0.0688
19309TIP3    H179342   0.939   4.846  11.101  0.2144  0.2543  0.9487
19309TIP3    H279343   0.791   4.875  11.083  0.2603 -0.0160  0.0588
19310TIP3   OH279344   2.555   2.367  14.003 -0.4543  0.6659  0.1637
19310TIP3    H179345   2.562   2.350  14.097 -0.5721 -1.8027 -0.1883
19310TIP3    H279346   2.479   2.314  13.976  0.1797  0.5523 -1.4636
19311TIP3   OH279347   5.426   1.570   1.490 -0.3329 -0.1372 -0.0781
19311TIP3    H179348   5.458   1.489   1.530  1.0110  0.7797  0.8364
19311TIP3    H279349   5.447   1.562   1.397  0.4613 -0.5444  0.1308
19312TIP3   OH279350   4.082   0.967  16.051  0.5247  0.1761  0.1146
19312TIP3    H179351   4.137   0.955  15.973 -0.2036  0.6006 -0.4793
19312TIP3    H279352   4.076   1.062  16.061 -0.2793  0.1348  0.0447
19313TIP3   OH279353   5.553   2.877  13.236  0.3370 -0.3012  0.1693
19313TIP3    H179354   5.489   2.847  13.301 -0.9365 -0.8802 -1.2914
19313TIP3    H279355   5.551   2.810  13.168  1.8793  0.1271 -0.3355
19314TIP3   OH279356   1.190   1.603   2.419  0.7258 -0.1752 -0.3266
19314TIP3    H179357   1.278   1.626   2.448  1.0588 -0.2689 -1.2089
19314TIP3    H279358   1.202   1.572   2.329  0.2826 -3.5358  0.6284
19315TIP3   OH279359   5.735   3.594   0.120  0.5935 -0.4309  0.0351
19315TIP3    H179360   5.767   3.615   0.207  2.7543  0.1739 -0.8357
19315TIP3    H279361   5.741   3.498   0.115  1.0716 -0.4240  0.3651
19316TIP3   OH279362   2.872   6.058   1.828  0.0324 -0.8699  0.4571
19316TIP3    H179363   2.960   6.079   1.861 -0.7120  2.6469  0.6543
19316TIP3    H279364   2.880   6.069   1.733 -0.6059  1.9859  0.6350
19317TIP3   OH279365   4.812   0.171   2.603  0.7242 -0.0191  0.1514
19317TIP3    H179366   4.726   0.192   2.565  1.8370 -0.1575 -2.6536
19317TIP3    H279367   4.808   0.078   2.623 -0.2015  0.2534  1.3879
19318TIP3   OH279368   2.598   5.982   4.125 -0.0015  0.5569  0.1982
19318TIP3    H179369   2.629   5.917   4.188  1.6316 -2.0225 -2.9214
19318TIP3    H279370   2.530   5.935   4.075  0.8575  1.3517 -1.8311
19319TIP3   OH279371   3.113   6.615   2.271  0.0277 -0.1917 -0.4818
19319TIP3    H179372   3.109   6.584   2.180 -0.0103 -0.4551 -0.3906
19319TIP3    H279373   3.203   6.643   2.283  0.0036 -0.0450 -0.6380
19320TIP3   OH279374   3.075   5.086  15.715 -0.0140  0.1401 -0.2922
19320TIP3    H179375   3.031   5.091  15.630 -0.2052  0.3607 -0.1774
19320TIP3    H279376   3.152   5.031  15.698  0.4217  0.8958 -0.8119
19321TIP3   OH279377   5.369   3.786  11.870 -0.6597 -0.4068 -0.1658
19321TIP3    H179378   5.420   3.705  11.872 -0.6312 -0.3874 -0.0959
19321TIP3    H279379   5.434   3.856  11.869 -0.6625 -0.3404  1.3161
19322TIP3   OH279380   4.588   4.290  14.324 -0.0463 -0.0580 -0.0385
19322TIP3    H179381   4.660   4.270  14.384 -1.6833  0.1063  2.1258
19322TIP3    H279382   4.630   4.301  14.239  2.0778 -3.6665  0.3077
19323TIP3   OH279383   3.518   4.813  15.478 -0.3112 -0.5297 -0.1891
19323TIP3    H179384   3.514   4.784  15.386 -0.6501  0.1191 -0.3860
19323TIP3    H279385   3.603   4.855  15.487 -0.5380 -0.0318 -0.3767
19324TIP3   OH279386   6.529   3.236   3.289 -0.0126 -0.3134 -0.0292
19324TIP3    H179387   6.513   3.141   3.286  1.0894 -0.4864 -0.9224
19324TIP3    H279388   6.584   3.253   3.213  0.7739  0.8701  0.7883
19325TIP3   OH279389   3.609   2.643  16.067  0.3000  0.2744 -0.0487
19325TIP3    H179390   3.555   2.597  16.004  1.0004 -0.7511  0.0839
19325TIP3    H279391   3.567   2.626  16.152  1.1291 -1.0460  0.1338
19326TIP3   OH279392   4.789   2.195   4.624  0.2485  0.2431  0.0209
19326TIP3    H179393   4.857   2.251   4.662  2.0833 -0.5234 -1.9416
19326TIP3    H279394   4.707   2.239   4.645  1.4539  2.1493  0.9782
19327TIP3   OH279395   0.297   4.822   2.946  0.2414  0.4223 -0.2862
19327TIP3    H179396   0.224   4.819   3.009  0.3831  0.9445 -0.0941
19327TIP3    H279397   0.255   4.812   2.861 -0.1245  1.2358 -0.2157
19328TIP3   OH279398   6.740   2.022  17.275  0.0554  0.1040  0.4904
19328TIP3    H179399   6.813   2.068  17.317  0.5835  0.9927 -1.3126
19328TIP3    H279400   6.712   2.080  17.205 -1.2771 -1.0035  0.0620
19329TIP3   OH279401   0.183   2.363   5.733  0.2067  0.1809 -0.1490
19329TIP3    H179402   0.201   2.298   5.665  0.2283 -0.1254  0.1500
19329TIP3    H279403   0.113   2.324   5.785 -0.8826  1.0645 -0.8941
19330TIP3   OH279404   0.852   1.529   0.521  0.3413 -0.3770 -1.1701
19330TIP3    H179405   0.910   1.584   0.574 -0.5659 -0.0366 -0.5151
19330TIP3    H279406   0.815   1.589   0.455 -0.9270 -0.0893 -0.2311
19331TIP3   OH279407   5.362   0.563   2.599 -0.3084  0.3750  0.2678
19331TIP3    H179408   5.323   0.595   2.680 -1.5232  2.1587 -0.9553
19331TIP3    H279409   5.446   0.608   2.594 -0.8465  1.3676 -0.1244
19332TIP3   OH279410   0.728   0.741   6.343 -0.2964 -0.5911  0.2653
19332TIP3    H179411   0.786   0.814   6.319  0.4707 -1.3258 -0.1748
19332TIP3    H279412   0.780   0.688   6.403 -0.4969 -1.2749 -0.1565
19333TIP3   OH279413   3.347   0.894  17.326  0.1971 -0.2385 -0.5164
19333TIP3    H179414   3.271   0.853  17.283  0.2084 -0.8007 -0.0181
19333TIP3    H279415   3.394   0.820  17.366  0.6773  0.1754 -0.3105
19334TIP3   OH279416   1.440   0.994   5.841  0.3516 -0.1657 -0.7053
19334TIP3    H179417   1.403   0.914   5.805 -1.1056  0.4926 -0.7181
19334TIP3    H279418   1.387   1.013   5.918  1.9558 -0.2886  0.4853
19335TIP3   OH279419   3.944   4.959  12.322 -0.3972  0.1453  0.1928
19335TIP3    H179420   3.968   4.867  12.330  0.0819  0.1821 -0.7970
19335TIP3    H279421   3.880   4.972  12.393 -1.4703 -1.2755 -0.4572
19336TIP3   OH279422   2.482   6.218   1.646 -0.1005  0.8690 -0.2931
19336TIP3    H179423   2.509   6.166   1.722  2.2965 -0.9884 -2.2544
19336TIP3    H279424   2.387   6.212   1.646 -0.3409  2.1612  3.2925
19337TIP3   OH279425   6.078   1.252   2.282 -0.0962 -0.3452 -0.0428
19337TIP3    H179426   6.106   1.194   2.210  0.1142 -1.3305  0.8112
19337TIP3    H279427   6.051   1.192   2.351 -0.1531  0.6015  0.7684
19338TIP3   OH279428   3.227   2.844  14.729  0.1398  0.2187  0.1223
19338TIP3    H179429   3.292   2.895  14.681  0.8383  0.4695  1.2897
19338TIP3    H279430   3.151   2.902  14.735 -0.1403 -0.0031 -1.0852
19339TIP3   OH279431   3.575   4.591  14.676  0.3221 -0.6624  0.6143
19339TIP3    H179432   3.517   4.638  14.736 -0.1613  0.3134 -0.5720
19339TIP3    H279433   3.592   4.508  14.719 -0.8844 -0.4230  1.6060
19340TIP3   OH279434   4.606   0.765   2.702  0.0832 -0.6458 -0.1581
19340TIP3    H179435   4.665   0.741   2.774 -0.3019  1.9612  1.1468
19340TIP3    H279436   4.661   0.814   2.641 -0.3319  0.2599  0.1818
19341TIP3   OH279437   3.912   4.857  13.555 -0.2803  0.0591  0.0740
19341TIP3    H179438   3.827   4.896  13.533 -0.0726  1.4515  1.5385
19341TIP3    H279439   3.894   4.763  13.562 -1.6637  0.3057  0.1504
19342TIP3   OH279440   3.922   6.392   3.971  0.3141 -0.1348 -0.3546
19342TIP3    H179441   3.837   6.413   3.935  0.2434 -1.1351 -0.8042
19342TIP3    H279442   3.906   6.381   4.065  0.3679  1.7685 -0.0844
19343TIP3   OH279443   6.043   2.680  12.292 -0.1815  0.3198  0.5122
19343TIP3    H179444   5.990   2.603  12.272 -1.0515  1.1355 -0.4030
19343TIP3    H279445   6.069   2.668  12.384 -3.3633  0.6839  1.5760
19344TIP3   OH279446   5.549   2.313   3.032 -0.0464  0.2704 -0.4083
19344TIP3    H179447   5.499   2.233   3.044 -1.2675  1.0544 -0.0618
19344TIP3    H279448   5.557   2.322   2.937  3.2719 -2.1012 -0.5374
19345TIP3   OH279449   1.804   2.224  13.988  0.5115  1.0304  0.6181
19345TIP3    H179450   1.739   2.281  14.029 -0.5772  0.6803 -0.5365
19345TIP3    H279451   1.858   2.193  14.060 -0.0756  2.0085  1.5034
19346TIP3   OH279452   0.536   3.071  11.065  0.1324 -0.0089  0.0260
19346TIP3    H179453   0.613   3.063  11.122  0.3634 -0.9042 -0.3908
19346TIP3    H279454   0.555   3.013  10.992 -0.6619  0.2696 -0.4100
19347TIP3   OH279455   0.439   2.053  15.431 -0.4305 -0.8708 -0.7932
19347TIP3    H179456   0.435   2.135  15.479 -0.2017 -0.6648 -1.1225
19347TIP3    H279457   0.360   2.051  15.378 -0.9026 -1.3033 -0.0866
19348TIP3   OH279458   3.583   0.689   3.712  0.1404  0.6335 -0.5025
19348TIP3    H179459   3.604   0.646   3.629 -0.5763  0.7634 -0.7543
19348TIP3    H279460   3.612   0.779   3.700 -0.8853  0.9084 -0.9890
19349TIP3   OH279461   2.447   4.756  11.845  0.7577  0.3886 -0.3991
19349TIP3    H179462   2.530   4.729  11.806 -0.5681 -1.8964 -1.8315
19349TIP3    H279463   2.435   4.697  11.920 -0.6729 -1.0409 -1.6755
19350TIP3   OH279464   5.200   1.838  17.347 -0.3447 -0.0201 -0.1751
19350TIP3    H179465   5.105   1.847  17.343 -0.1437  3.2808 -0.7374
19350TIP3    H279466   5.225   1.887  17.426  0.9134 -0.4149 -0.3001
19351TIP3   OH279467   5.402   2.885   0.573  1.1724  1.0326  0.4863
19351TIP3    H179468   5.425   2.937   0.496  2.5068  2.3678  1.7139
19351TIP3    H279469   5.336   2.937   0.619  0.0669  0.0449  0.0680
19352TIP3   OH279470   1.101   2.839   6.536  0.3720 -0.1840 -0.0268
19352TIP3    H179471   1.034   2.804   6.595  1.0652  2.4734  2.5815
19352TIP3    H279472   1.062   2.919   6.500  0.5541 -0.9544 -2.1136
19353TIP3   OH279473   2.136   4.957   0.486 -0.1489 -0.2498 -0.0271
19353TIP3    H179474   2.059   4.929   0.437  0.7631  0.1954 -1.8033
19353TIP3    H279475   2.109   4.953   0.578 -2.2802 -0.0391 -0.5981
19354TIP3   OH279476   4.415   3.321  14.355  0.2442 -0.4320 -0.0383
19354TIP3    H179477   4.402   3.305  14.261  1.9966 -1.1075 -0.2020
19354TIP3    H279478   4.384   3.241  14.398 -2.7240  0.7122  0.2387
19355TIP3   OH279479   4.195   5.970   4.571  0.2769  0.2979 -0.2456
19355TIP3    H179480   4.117   5.988   4.624  1.6011  1.2421  1.4838
19355TIP3    H279481   4.244   5.905   4.622  0.0679 -1.2548 -1.9280
19356TIP3   OH279482   0.213   1.342  16.125 -0.2063 -0.1538 -0.9325
19356TIP3    H179483   0.121   1.318  16.118  0.1382 -1.3207 -1.7284
19356TIP3    H279484   0.214   1.437  16.115 -1.4134  0.0026  0.1532
19357TIP3   OH279485   4.015   6.578   1.195 -0.3924  0.7410 -0.6602
19357TIP3    H179486   4.019   6.521   1.271  1.1886  1.9344  0.2102
19357TIP3    H279487   4.106   6.582   1.163 -0.8095  1.2639 -1.8526
19358TIP3   OH279488   3.205   6.516   1.064 -0.3365 -0.2423  0.2358
19358TIP3    H179489   3.252   6.459   1.003 -3.4857 -0.4863 -2.2710
19358TIP3    H279490   3.163   6.456   1.126 -0.5758 -0.3783 -0.0524
19359TIP3   OH279491   4.608   1.382  15.761  0.4044 -0.0951  0.1345
19359TIP3    H179492   4.585   1.431  15.682  0.4918 -0.0535  0.1350
19359TIP3    H279493   4.692   1.341  15.741 -0.3267 -1.3888 -0.3798
19360TIP3   OH279494   2.645   4.289   2.020  0.0469 -0.7240 -0.5171
19360TIP3    H179495   2.561   4.310   1.977  0.2110  0.6044 -0.2414
19360TIP3    H279496   2.622   4.276   2.112 -0.0014 -1.4285 -0.6256
19361TIP3   OH279497   1.591   2.114   5.297  0.1568 -0.0560 -0.3088
19361TIP3    H179498   1.661   2.167   5.260 -1.4639  1.5098 -1.3486
19361TIP3    H279499   1.510   2.157   5.266 -1.2572 -1.5996  1.0375
19362TIP3   OH279500   0.976   5.241  14.566 -0.2821 -0.5164  0.8046
19362TIP3    H179501   0.966   5.201  14.480  2.2607 -0.2160  0.2940
19362TIP3    H279502   1.003   5.169  14.624  1.2556 -0.1802  0.5631
19363TIP3   OH279503   0.390   2.846  13.681 -0.1107  0.1400 -0.2060
19363TIP3    H179504   0.447   2.838  13.758  2.8893  1.1426 -2.1609
19363TIP3    H279505   0.377   2.941  13.671  0.6827  0.1246 -1.6467
19364TIP3   OH279506   4.675   4.252  16.896  0.2890 -0.5970  0.1003
19364TIP3    H179507   4.707   4.163  16.881 -0.1891 -0.6279 -0.8258
19364TIP3    H279508   4.596   4.258  16.842 -1.0523 -0.3862  1.9915
19365TIP3   OH279509   2.900   6.417  12.084 -0.3731  0.4063 -0.0522
19365TIP3    H179510   2.900   6.352  12.154  0.9290 -0.7647 -1.0871
19365TIP3    H279511   2.938   6.495  12.124  0.6046 -0.3306  0.5036
19366TIP3   OH279512   0.180   4.948  10.628  0.2705 -0.6627  0.3165
19366TIP3    H179513   0.119   4.899  10.684 -0.7491  0.3644  0.1620
19366TIP3    H279514   0.123   5.004  10.575  1.1752 -1.8811 -2.0569
19367TIP3   OH279515   2.646   5.347   3.358 -0.0420 -0.0275 -0.5160
19367TIP3    H179516   2.632   5.318   3.448 -0.7326  1.6286 -0.0387
19367TIP3    H279517   2.594   5.287   3.305 -1.7471  0.5300  0.4495
19368TIP3   OH279518   0.377   0.141   2.835 -0.1847 -0.2560  0.1603
19368TIP3    H179519   0.358   0.174   2.747  0.6908  2.4921  0.9052
19368TIP3    H279520   0.423   0.058   2.821 -1.1102 -0.4694 -1.9113
19369TIP3   OH279521   3.341   4.906  13.295 -0.0980  0.5753  0.1445
19369TIP3    H179522   3.434   4.925  13.283 -0.0456  0.6317  0.6154
19369TIP3    H279523   3.299   4.937  13.215  0.4367 -0.5097 -0.5889
19370TIP3   OH279524   0.590   5.774  11.615  0.1820  0.5280 -0.1561
19370TIP3    H179525   0.539   5.769  11.533 -1.8582 -0.1319  1.0805
19370TIP3    H279526   0.593   5.867  11.636 -0.1603  0.6149 -0.4765
19371TIP3   OH279527   3.833   5.510   1.417  0.3351 -0.2657  0.1022
19371TIP3    H179528   3.911   5.545   1.460 -0.4365  1.9260 -0.1532
19371TIP3    H279529   3.769   5.581   1.422 -0.9117 -1.1908 -1.6346
19372TIP3   OH279530   6.585   6.723  14.443  0.4431 -0.1903  0.5872
19372TIP3    H179531   6.571   6.696  14.534 -1.0521 -1.7545 -0.0271
19372TIP3    H279532   6.614   6.643  14.398 -2.7470 -0.6096 -1.0419
19373TIP3   OH279533   3.560   5.564   0.852 -0.5000 -0.2695  0.2579
19373TIP3    H179534   3.586   5.552   0.761  0.5453  0.5988  0.4228
19373TIP3    H279535   3.605   5.494   0.899  2.3942  1.6774  0.6580
19374TIP3   OH279536   0.489   6.674   1.529 -0.2448  0.1619 -0.4458
19374TIP3    H179537   0.475   6.680   1.435  1.0150 -0.6848 -0.7194
19374TIP3    H279538   0.553   6.602   1.539 -0.4620  0.1449  1.0537
19375TIP3   OH279539   3.450   5.874   5.895 -0.2838 -0.2267  0.4404
19375TIP3    H179540   3.370   5.832   5.927  1.0332 -1.4555  2.3557
19375TIP3    H279541   3.519   5.808   5.908  1.4416  1.6015  1.1260
19376TIP3   OH279542   1.987   2.532   2.252  0.4308 -0.4050  0.1649
19376TIP3    H179543   2.006   2.589   2.327 -1.3214  1.0888 -0.4606
19376TIP3    H279544   2.052   2.556   2.186  0.0629  0.5114  0.1156
19377TIP3   OH279545   5.878   2.132   2.942 -0.2893 -0.1424 -0.0928
19377TIP3    H179546   5.864   2.125   3.037  0.3683 -0.0682  0.0146
19377TIP3    H279547   5.941   2.203   2.933 -0.4489 -0.0659 -0.5999
19378TIP3   OH279548   1.143   6.137  16.991  0.0694 -0.3810  0.5193
19378TIP3    H179549   1.209   6.167  17.055  0.4852  1.2149 -0.5875
19378TIP3    H279550   1.061   6.136  17.040  0.6043 -0.5265  1.4384
19379TIP3   OH279551   3.252   4.515  11.444  0.7894 -0.1717  0.4565
19379TIP3    H179552   3.268   4.552  11.357  1.7669  1.1839  1.1789
19379TIP3    H279553   3.287   4.426  11.439  1.3194  0.0701 -0.3682
19380TIP3   OH279554   5.966   5.696   5.819 -0.4558  0.3772  0.6506
19380TIP3    H179555   5.905   5.760   5.856  0.7828  0.9245  1.8037
19380TIP3    H279556   5.934   5.612   5.850 -0.2630  0.7166  1.8326
19381TIP3   OH279557   4.107   6.562   3.522 -0.1442 -0.5439  0.5005
19381TIP3    H179558   4.016   6.577   3.546 -0.8690 -3.0430 -0.4097
19381TIP3    H279559   4.153   6.556   3.606 -0.4363  2.2567  0.9679
19382TIP3   OH279560   6.431   3.599  11.552  0.0455  0.0808  0.0766
19382TIP3    H179561   6.409   3.549  11.632  0.0139 -0.1540 -0.0775
19382TIP3    H279562   6.508   3.554  11.517  0.1581  0.2855  0.0641
19383TIP3   OH279563   6.630   1.609   4.342  0.6214 -0.4205 -0.3157
19383TIP3    H179564   6.594   1.529   4.380 -2.4788  0.5435 -0.9920
19383TIP3    H279565   6.669   1.656   4.416 -0.1087 -1.2183  0.5936
19384TIP3   OH279566   3.709   2.324  12.961 -0.0467 -0.3366 -0.6820
19384TIP3    H179567   3.654   2.310  13.038  0.0433 -0.5678 -0.6592
19384TIP3    H279568   3.743   2.413  12.971 -0.9929  0.0769 -1.0574
19385TIP3   OH279569   0.434   6.492   4.979 -0.3853  0.1176  0.0230
19385TIP3    H179570   0.471   6.580   4.984 -1.5426  0.5611  1.2898
19385TIP3    H279571   0.497   6.437   5.026 -0.1964  0.4660  0.1836
19386TIP3   OH279572   5.794   2.480  16.041 -0.0249 -0.4886 -0.2945
19386TIP3    H179573   5.815   2.406  16.097  0.0624 -0.1867  0.0691
19386TIP3    H279574   5.857   2.474  15.969  0.2177 -0.5553 -0.0774
19387TIP3   OH279575   6.252   4.239  14.568 -0.3901 -0.9728 -0.3675
19387TIP3    H179576   6.245   4.144  14.554  0.9784 -1.3007  0.9295
19387TIP3    H279577   6.272   4.248  14.662 -1.6569  0.6734 -0.2072
19388TIP3   OH279578   1.647   5.692  16.111 -0.3497 -0.1364  0.0139
19388TIP3    H179579   1.732   5.724  16.139  0.5459 -2.0243 -0.3919
19388TIP3    H279580   1.633   5.732  16.025  1.3727 -1.7898 -1.1035
19389TIP3   OH279581   1.105   3.286   3.595 -0.7990  0.3076 -0.3093
19389TIP3    H179582   1.160   3.249   3.664 -2.5139  0.0025  0.9566
19389TIP3    H279583   1.166   3.309   3.525  0.6434 -2.4613 -0.0918
19390TIP3   OH279584   1.184   2.435   5.885 -0.2954  0.2008 -0.3537
19390TIP3    H179585   1.135   2.465   5.963 -1.2044  0.3195 -0.9526
19390TIP3    H279586   1.270   2.410   5.919 -1.4122 -1.9797  1.1024
19391TIP3   OH279587   1.108   4.565   2.429 -0.1282 -0.2280 -0.7420
19391TIP3    H179588   1.188   4.609   2.397 -0.6916 -0.2609 -2.2767
19391TIP3    H279589   1.133   4.473   2.435 -0.2812 -0.3729 -2.0764
19392TIP3   OH279590   2.486   2.505  10.676  0.2878 -0.2300 -0.5369
19392TIP3    H179591   2.492   2.597  10.702 -0.2030 -0.3884  0.1597
19392TIP3    H279592   2.402   2.497  10.632  1.2623  0.1176 -2.6208
19393TIP3   OH279593   4.018   3.181   4.713 -0.5376  0.5610 -0.2156
19393TIP3    H179594   4.034   3.260   4.660 -3.1457  0.5704 -1.1268
19393TIP3    H279595   3.989   3.116   4.650 -0.4864 -0.4774  0.8097
19394TIP3   OH279596   2.959   1.260   1.099  0.3154 -0.7429  0.1744
19394TIP3    H179597   3.039   1.243   1.048  0.2298  2.8189 -1.4851
19394TIP3    H279598   2.890   1.264   1.033 -0.3430  1.0067  0.9286
19395TIP3   OH279599   6.499   4.938  17.045 -0.5982 -0.0256 -0.4222
19395TIP3    H179600   6.431   4.934  17.111 -0.1620 -2.1229 -0.0128
19395TIP3    H279601   6.558   4.866  17.067  1.3940  1.3037 -1.1494
19396TIP3   OH279602   2.698   3.524   3.379  0.7874  0.0503  0.0357
19396TIP3    H179603   2.684   3.568   3.295 -1.3397  1.0865  0.8495
19396TIP3    H279604   2.740   3.442   3.356  0.3681  0.3607 -2.0507
19397TIP3   OH279605   2.279   1.373  17.310 -0.5134  0.4264 -0.1638
19397TIP3    H179606   2.199   1.394  17.359  0.5565  0.7780  1.5400
19397TIP3    H279607   2.292   1.280  17.326 -0.2095  0.5229  0.1680
19398TIP3   OH279608   2.848   5.722   0.822  0.0755  0.1204 -0.0476
19398TIP3    H179609   2.761   5.702   0.857  0.9454 -1.6335  1.2732
19398TIP3    H279610   2.831   5.777   0.746 -2.3695 -2.2732 -1.4004
19399TIP3   OH279611   1.433   1.287  11.529 -0.3454 -0.2399 -0.0598
19399TIP3    H179612   1.504   1.318  11.586  1.5548 -0.9958 -1.8568
19399TIP3    H279613   1.402   1.207  11.570  1.5342 -1.2029 -0.3678
19400TIP3   OH279614   2.912   1.878   4.301  0.3703  0.1511 -0.1346
19400TIP3    H179615   2.941   1.969   4.309  1.4404 -0.1213 -0.6883
19400TIP3    H279616   2.897   1.865   4.208  0.1834 -0.2314 -0.0537
19401TIP3   OH279617   6.360   2.800  17.132  0.5603  0.2311 -0.3029
19401TIP3    H179618   6.295   2.809  17.202 -0.8010  0.8992 -1.5931
19401TIP3    H279619   6.364   2.706  17.115  0.1872  0.1539  0.0277
19402TIP3   OH279620   6.501   3.889   4.398  0.3229  0.0378 -0.0190
19402TIP3    H179621   6.434   3.827   4.425  0.7015 -0.5604 -0.4176
19402TIP3    H279622   6.579   3.835   4.383  1.2333  0.8413  1.5227
19403TIP3   OH279623   1.385   5.536  16.409  0.5001 -0.5407 -0.2447
19403TIP3    H179624   1.380   5.601  16.338  1.2748 -1.1203 -0.8379
19403TIP3    H279625   1.376   5.588  16.489  2.6469  0.5480 -0.6302
19404TIP3   OH279626   3.017   5.462  11.152  0.0317 -0.8975 -0.5184
19404TIP3    H179627   2.926   5.433  11.153 -0.5924  0.9362  0.0224
19404TIP3    H279628   3.062   5.399  11.096 -2.2337  0.1076 -3.7068
19405TIP3   OH279629   2.291   0.560   0.205 -0.5377 -0.5004  0.4993
19405TIP3    H179630   2.282   0.654   0.222 -0.6118 -0.5735  0.8851
19405TIP3    H279631   2.376   0.537   0.242  1.7013  0.2863 -3.5968
19406TIP3   OH279632   1.684   0.236   1.336  0.1038 -0.0920 -0.3921
19406TIP3    H179633   1.627   0.282   1.399  0.7374 -0.9921  0.8959
19406TIP3    H279634   1.660   0.272   1.251 -1.7451  0.2085  0.2146
19407TIP3   OH279635   0.988   2.479   6.098  0.7377 -0.1528  0.2840
19407TIP3    H179636   1.026   2.484   6.186  1.7330 -1.5996 -0.0192
19407TIP3    H279637   0.955   2.567   6.080  0.9391  0.2778  1.9143
19408TIP3   OH279638   6.113   4.416   1.311 -0.1542 -0.3195  0.0334
19408TIP3    H179639   6.157   4.368   1.382 -0.7230 -0.9482 -0.0326
19408TIP3    H279640   6.171   4.490   1.294  0.3891 -0.5916  0.6190
19409TIP3   OH279641   3.760   5.703  14.223 -0.4950  0.3559  0.1088
19409TIP3    H179642   3.744   5.756  14.301 -0.8632  0.8666 -0.3049
19409TIP3    H279643   3.841   5.656  14.242 -0.2673  0.9207  0.5669
19410TIP3   OH279644   5.427   5.095   5.877  0.0646 -0.0399  0.4907
19410TIP3    H179645   5.486   5.117   5.950  0.9733  0.4992 -0.3892
19410TIP3    H279646   5.481   5.106   5.799 -1.2264  0.5262 -0.3429
19411TIP3   OH279647   0.270   2.615   0.836  0.0159  0.3256 -0.6145
19411TIP3    H179648   0.235   2.637   0.923  0.1424  0.8924 -0.6976
19411TIP3    H279649   0.299   2.524   0.844 -3.0848 -0.8133 -1.0621
19412TIP3   OH279650   2.242   3.492   2.909  0.1339  0.8342 -0.4750
19412TIP3    H179651   2.285   3.577   2.906  3.3910 -0.5931  0.6246
19412TIP3    H279652   2.232   3.467   2.817  2.0643  1.1600 -0.8185
19413TIP3   OH279653   1.289   1.383  15.234  0.4878  0.7255  0.1980
19413TIP3    H179654   1.285   1.455  15.298 -0.0660 -0.1190  1.1365
19413TIP3    H279655   1.222   1.321  15.264  0.0209  0.4411 -1.3690
19414TIP3   OH279656   3.574   1.940  16.394 -0.0726 -0.5028  0.2815
19414TIP3    H179657   3.527   2.018  16.422 -1.5040 -1.0270 -0.5781
19414TIP3    H279658   3.663   1.953  16.426 -0.6507  0.7788  1.4470
19415TIP3   OH279659   5.600   6.018   5.102 -0.6571 -0.5614 -0.0639
19415TIP3    H179660   5.667   6.034   5.035 -0.7402 -2.4382 -0.6430
19415TIP3    H279661   5.650   5.996   5.181 -0.5869 -0.1961 -0.0021
19416TIP3   OH279662   3.370   4.944  16.826 -0.4639  0.1727  0.3697
19416TIP3    H179663   3.388   5.012  16.892 -0.8094  0.2842  0.3522
19416TIP3    H279664   3.276   4.951  16.810 -0.6515 -0.8368  0.9484
19417TIP3   OH279665   4.433   3.202  11.078  0.2563 -0.1283 -0.7065
19417TIP3    H179666   4.343   3.170  11.083  0.2571 -0.6110 -2.7607
19417TIP3    H279667   4.434   3.281  11.132 -0.7470 -1.4425  1.3220
19418TIP3   OH279668   2.688   4.115   3.380 -0.1535 -0.9111 -0.1474
19418TIP3    H179669   2.740   4.172   3.323 -0.9888 -0.7300 -0.7547
19418TIP3    H279670   2.633   4.174   3.431 -0.1504 -1.1161  0.0944
19419TIP3   OH279671   6.600   0.666  16.287 -0.1957 -0.5642  0.6428
19419TIP3    H179672   6.613   0.611  16.210 -1.7840  0.1160 -0.1708
19419TIP3    H279673   6.580   0.753  16.252  0.7853  0.1937  1.8700
19420TIP3   OH279674   4.290   1.052   2.319  0.1916 -0.3837  0.0299
19420TIP3    H179675   4.342   1.132   2.311  2.6316 -1.8834  0.2186
19420TIP3    H279676   4.221   1.062   2.253  0.6532  1.6833 -0.2121
19421TIP3   OH279677   5.612   4.651   3.327  0.1843 -0.7780  0.0402
19421TIP3    H179678   5.536   4.665   3.384  0.1174 -0.5946 -0.0896
19421TIP3    H279679   5.586   4.578   3.271  0.4594 -1.3164  0.5973
19422TIP3   OH279680   6.501   2.679   0.126  0.1656  0.1310 -0.0217
19422TIP3    H179681   6.417   2.723   0.119  0.8959  1.5824 -0.0966
19422TIP3    H279682   6.499   2.636   0.212 -1.1257 -0.9676 -0.5695
19423TIP3   OH279683   3.422   4.601   6.423 -0.0964 -0.1699  0.0658
19423TIP3    H179684   3.330   4.577   6.434 -0.4093  1.7295  2.4417
19423TIP3    H279685   3.422   4.674   6.361  0.1153 -1.5602 -1.6511
19424TIP3   OH279686   4.663   1.695  12.993  0.6819 -0.7243  0.1773
19424TIP3    H179687   4.727   1.696  13.065  0.8349 -1.4100  0.0589
19424TIP3    H279688   4.616   1.778  13.002  0.3268 -1.0271  1.4118
19425TIP3   OH279689   2.855   2.777  16.621  0.2572  0.1307 -0.0030
19425TIP3    H179690   2.928   2.722  16.648  0.9657  1.5500  1.1588
19425TIP3    H279691   2.839   2.834  16.697 -2.9427 -0.9915  0.3192
19426TIP3   OH279692   4.318   2.463  16.089 -0.0653  0.4062 -0.2000
19426TIP3    H179693   4.365   2.381  16.104 -1.0336 -0.2067 -0.4393
19426TIP3    H279694   4.316   2.472  15.994  0.8866  1.2348 -0.1693
19427TIP3   OH279695   0.857   4.464   0.301  0.2995 -0.0959 -0.1249
19427TIP3    H179696   0.887   4.542   0.253  2.0355 -0.4698  0.2943
19427TIP3    H279697   0.848   4.495   0.391  0.6062 -0.2695 -0.0326
19428TIP3   OH279698   3.778   4.018  11.530  0.3158 -0.4665  0.4126
19428TIP3    H179699   3.830   4.064  11.596  0.8289 -0.0203 -0.2874
19428TIP3    H279700   3.843   3.976  11.474 -0.1358 -1.8367  0.8683
19429TIP3   OH279701   5.454   3.556   6.409  0.1442 -0.3464  0.6036
19429TIP3    H179702   5.464   3.475   6.359  0.7394 -0.9189  1.6454
19429TIP3    H279703   5.542   3.578   6.438 -0.2632 -0.3206  1.8709
19430TIP3   OH279704   5.572   2.871  16.796  0.0160  0.5297  0.2959
19430TIP3    H179705   5.516   2.945  16.820  0.8262  1.2774 -0.0462
19430TIP3    H279706   5.577   2.875  16.700 -0.5260 -0.4258  0.2148
19431TIP3   OH279707   0.786   1.443  14.462  0.3340  0.4264  0.2212
19431TIP3    H179708   0.828   1.523  14.431 -0.4087  0.2680 -1.3247
19431TIP3    H279709   0.720   1.473  14.524 -1.0554  1.2285 -1.5454
19432TIP3   OH279710   1.577   0.186   5.355 -0.3870 -0.2421  0.3412
19432TIP3    H179711   1.534   0.268   5.379  0.3873  0.2095  0.2130
19432TIP3    H279712   1.592   0.194   5.261  1.0516  0.1373  0.5781
19433TIP3   OH279713   3.092   1.656  11.978  0.4596 -0.6608  0.0283
19433TIP3    H179714   3.077   1.635  12.070 -1.3347  1.8027  0.3959
19433TIP3    H279715   3.186   1.674  11.973  0.5749 -0.7790  1.3822
19434TIP3   OH279716   4.526   5.676  13.606  0.1534 -0.4032 -0.0569
19434TIP3    H179717   4.534   5.754  13.662  1.1460  1.3018 -2.4359
19434TIP3    H279718   4.616   5.646  13.594  0.3503  0.9926 -2.9215
19435TIP3   OH279719   0.835   0.384  16.982  0.0579  0.0011 -0.1603
19435TIP3    H179720   0.756   0.332  16.997  0.6369 -1.5379 -2.0523
19435TIP3    H279721   0.907   0.324  17.000  0.7998  1.0411  0.4243
19436TIP3   OH279722   5.036   3.994   2.530  0.2045 -0.0719 -0.2805
19436TIP3    H179723   5.069   4.061   2.470 -0.6280  0.1765 -0.4855
19436TIP3    H279724   4.942   3.991   2.512  0.1570 -0.9636  0.0594
19437TIP3   OH279725   6.252   6.254  16.766  0.6213 -0.2997  0.2925
19437TIP3    H179726   6.258   6.161  16.790  0.4064 -0.0480  1.3820
19437TIP3    H279727   6.307   6.298  16.830  0.0733  0.4059  0.2818
19438TIP3   OH279728   5.473   2.528   1.397  0.1885  0.3538 -0.2881
19438TIP3    H179729   5.447   2.439   1.418 -1.0372  0.5844 -0.7322
19438TIP3    H279730   5.454   2.578   1.477 -0.3689  0.4494 -0.4780
19439TIP3   OH279731   3.936   1.811   6.246  0.0645 -0.4437  0.0106
19439TIP3    H179732   3.966   1.886   6.297  0.5178 -1.4008  1.1886
19439TIP3    H279733   4.016   1.768   6.217 -0.1897 -0.6972 -0.3318
19440TIP3   OH279734   4.463   2.383  16.872  0.1759 -0.1715 -0.0312
19440TIP3    H179735   4.508   2.302  16.847  1.3295 -0.6967  3.3018
19440TIP3    H279736   4.531   2.450  16.867  0.2467 -0.1650  0.9562
19441TIP3   OH279737   2.851   3.495  13.468  0.0706  0.1868  0.2941
19441TIP3    H179738   2.778   3.456  13.418  0.0191  2.6984 -1.8002
19441TIP3    H279739   2.810   3.559  13.525  0.3692 -1.1003  2.0527
19442TIP3   OH279740   1.499   5.368  11.256  0.5268  0.0208  0.1519
19442TIP3    H179741   1.436   5.438  11.239 -0.2864 -0.8353 -0.4053
19442TIP3    H279742   1.530   5.386  11.345  0.8600  1.4808 -0.2177
19443TIP3   OH279743   2.178   3.892   3.839  0.4813 -0.3203 -0.2859
19443TIP3    H179744   2.203   3.946   3.914  2.3600 -1.2824 -0.1803
19443TIP3    H279745   2.255   3.892   3.783 -0.0163 -1.6826 -0.9974
19444TIP3   OH279746   6.365   2.740   2.875  0.2628  0.6335  0.1192
19444TIP3    H179747   6.341   2.726   2.783  0.5960  3.7672 -0.5705
19444TIP3    H279748   6.285   2.772   2.916  0.0700 -0.9251  1.0199
19445TIP3   OH279749   5.006   6.122  12.899  0.3315  0.0681 -0.6414
19445TIP3    H179750   4.935   6.125  12.963  0.9625  1.4335  0.0466
19445TIP3    H279751   5.023   6.028  12.886 -0.1838 -0.2451  0.7782
19446TIP3   OH279752   0.038   4.051   0.209 -0.2385  0.5155  0.3123
19446TIP3    H179753   0.047   3.964   0.170 -0.9617  0.2893  0.6237
19446TIP3    H279754   0.123   4.092   0.198  0.6010 -0.8153  1.5277
19447TIP3   OH279755   6.526   3.068   4.162  0.4027  0.5962  0.8255
19447TIP3    H179756   6.596   3.045   4.223 -0.6544 -2.1826  1.1685
19447TIP3    H279757   6.445   3.056   4.213 -0.4236  0.6028 -0.4329
19448TIP3   OH279758   1.142   5.718   1.900 -0.2891  0.0386 -0.3426
19448TIP3    H179759   1.089   5.705   1.821 -1.4587 -0.7200  0.5260
19448TIP3    H279760   1.082   5.699   1.972  1.4099 -1.7202  0.6895
19449TIP3   OH279761   5.383   4.161   4.689 -0.2960  0.3280  0.2523
19449TIP3    H179762   5.370   4.102   4.764 -0.9356  1.7285  1.2741
19449TIP3    H279763   5.474   4.190   4.696  0.2688 -1.0553 -0.6929
19450TIP3   OH279764   2.803   5.635  14.460 -0.2679 -0.4816  0.3788
19450TIP3    H179765   2.842   5.596  14.538  1.6575  0.8503  0.1555
19450TIP3    H279766   2.874   5.687  14.421 -0.4597 -2.6761 -3.4121
19451TIP3   OH279767   1.541   3.003  12.573 -0.7785  0.2611  0.4949
19451TIP3    H179768   1.498   3.017  12.488  0.4108  1.3295  0.0448
19451TIP3    H279769   1.530   2.909  12.590 -2.1163  0.2589 -0.2307
19452TIP3   OH279770   4.591   1.351  11.373  0.4796 -0.3438  0.3420
19452TIP3    H179771   4.635   1.393  11.447 -0.8280  2.6913 -0.4656
19452TIP3    H279772   4.653   1.360  11.300  0.2984 -0.0264  0.2268
19453TIP3   OH279773   1.846   5.058   2.278  0.4745 -0.2137  0.7890
19453TIP3    H179774   1.895   5.003   2.339  2.6520 -1.5802 -1.9497
19453TIP3    H279775   1.829   5.000   2.203 -1.2994  1.6059 -0.3179
19454TIP3   OH279776   1.066   0.286  15.800 -0.2965 -0.1523  0.2827
19454TIP3    H179777   1.134   0.289  15.734 -1.0653  1.7007 -0.4830
19454TIP3    H279778   1.060   0.193  15.823  3.1258 -0.2892  1.1524
19455TIP3   OH279779   0.401   1.203   1.216  0.1554  0.0821  0.2851
19455TIP3    H179780   0.333   1.271   1.220  0.0764 -0.0358  1.8949
19455TIP3    H279781   0.354   1.123   1.194  0.1261  0.3855 -0.8105
19456TIP3   OH279782   4.769   1.290   2.366 -0.2518  0.1161 -0.7799
19456TIP3    H179783   4.748   1.305   2.459  0.0807  2.4307 -1.0068
19456TIP3    H279784   4.842   1.349   2.349  0.4374 -1.1164 -2.2592
19457TIP3   OH279785   1.105   3.899  12.827  0.3855 -0.0022  0.8948
19457TIP3    H179786   1.048   3.864  12.895  1.1747 -0.3566  1.3840
19457TIP3    H279787   1.144   3.977  12.866  0.6422 -0.0568  0.7520
19458TIP3   OH279788   1.509   4.596   1.016  0.2831 -0.6621 -0.8536
19458TIP3    H179789   1.485   4.652   0.943  1.6110  0.8664 -0.1912
19458TIP3    H279790   1.433   4.598   1.074  0.9536  2.1265  0.0827
19459TIP3   OH279791   2.581   3.235  14.061 -0.1131  0.0802 -0.7608
19459TIP3    H179792   2.547   3.146  14.066  0.7182 -0.2000  0.5162
19459TIP3    H279793   2.672   3.224  14.035 -0.3973  0.6696 -2.0352
19460TIP3   OH279794   4.818   0.247   4.133  0.3149  1.2318 -0.0933
19460TIP3    H179795   4.871   0.308   4.184  1.9182 -0.9883  1.0706
19460TIP3    H279796   4.841   0.161   4.167  0.4487 -0.3101 -3.6593
19461TIP3   OH279797   0.270   0.232  13.144 -0.5215  0.5899  0.8075
19461TIP3    H179798   0.228   0.300  13.092  0.1735  1.0319  0.8083
19461TIP3    H279799   0.236   0.245  13.232 -1.7319 -0.1841  0.4817
19462TIP3   OH279800   1.455   0.258   4.166  0.3920  0.1943 -0.1390
19462TIP3    H179801   1.450   0.213   4.251 -2.0946 -3.8853 -2.1130
19462TIP3    H279802   1.364   0.283   4.147  0.4515 -1.1268 -2.5098
19463TIP3   OH279803   1.337   5.005   3.018  0.4716  0.1520 -0.1635
19463TIP3    H179804   1.389   5.014   3.097  1.8899 -1.4905 -0.8450
19463TIP3    H279805   1.370   5.073   2.959 -0.2406  1.0415  0.4218
19464TIP3   OH279806   4.460   3.392   4.587 -0.1951  0.1334  0.0633
19464TIP3    H179807   4.479   3.380   4.494 -0.0811  0.2176  0.0751
19464TIP3    H279808   4.506   3.473   4.611  0.8672 -0.5770  0.5101
19465TIP3   OH279809   1.885   3.244   2.621  0.3001  0.7402 -0.1181
19465TIP3    H179810   1.797   3.207   2.627  0.1630  1.0574 -0.1522
19465TIP3    H279811   1.884   3.317   2.684  0.6452  0.5323  0.1342
19466TIP3   OH279812   5.178   3.965  14.233 -0.1026 -0.2823  0.2670
19466TIP3    H179813   5.097   4.009  14.210 -0.3015 -0.0634  1.3270
19466TIP3    H279814   5.154   3.905  14.304  0.7803  0.2879  1.0722
19467TIP3   OH279815   3.215   1.068   5.174  0.8524  0.0294 -0.3373
19467TIP3    H179816   3.234   1.057   5.081  0.0285  1.0792 -0.6600
19467TIP3    H279817   3.250   1.155   5.194 -0.0874  0.3395  0.0056
19468TIP3   OH279818   0.440   5.706  11.363  0.1213  0.1913  0.3727
19468TIP3    H179819   0.366   5.705  11.303  0.9006 -1.1824 -0.6337
19468TIP3    H279820   0.413   5.648  11.435  0.0487  0.0540  0.2354
19469TIP3   OH279821   3.711   5.871   3.041 -0.1711 -0.4413 -0.0953
19469TIP3    H179822   3.747   5.898   2.957 -1.1285  0.9228 -0.1215
19469TIP3    H279823   3.687   5.954   3.084  0.1659 -1.1095  1.4619
19470TIP3   OH279824   2.027   6.627   0.334  0.4645  0.1572  0.0906
19470TIP3    H179825   1.957   6.673   0.287  0.9098  0.5287 -0.2190
19470TIP3    H279826   2.017   6.535   0.309  0.3448  0.2683 -0.2823
19471TIP3   OH279827   1.243   0.822   4.021 -0.2398 -0.3103 -0.4690
19471TIP3    H179828   1.248   0.814   4.116 -0.2918  4.9327  0.2627
19471TIP3    H279829   1.150   0.811   4.001 -0.1370 -2.1419 -0.1132
19472TIP3   OH279830   2.091   2.367   5.961 -0.1861 -0.3022  0.0968
19472TIP3    H179831   2.066   2.276   5.979 -0.3081 -0.0631  1.2046
19472TIP3    H279832   2.094   2.408   6.047  0.9235  0.4805 -0.3023
19473TIP3   OH279833   1.220   4.227   0.024 -0.2993 -0.1384 -0.3649
19473TIP3    H179834   1.198   4.165  -0.046  2.4956 -1.2230 -0.4029
19473TIP3    H279835   1.315   4.235   0.020 -0.3982  2.8210  0.8380
19474TIP3   OH279836   5.393   3.190   0.024 -0.5497 -0.3926 -0.3627
19474TIP3    H179837   5.340   3.158   0.097  0.5882 -0.2964  0.5369
19474TIP3    H279838   5.330   3.233  -0.034 -1.4030  0.1204  0.8883
19475TIP3   OH279839   1.912   6.133   3.994  0.1328 -0.1454  0.1353
19475TIP3    H179840   1.839   6.141   3.932  0.6244  3.0113 -0.2192
19475TIP3    H279841   1.983   6.184   3.954  0.8262  1.0979  2.7315
19476TIP3   OH279842   0.988   5.569  15.413 -0.0011  0.4231 -0.1042
19476TIP3    H179843   1.001   5.614  15.496  0.3396  0.3277 -0.1072
19476TIP3    H279844   1.047   5.612  15.351 -0.3505  0.5834 -0.3353
19477TIP3   OH279845   4.805   2.257  17.230 -0.3120 -0.4599 -0.5220
19477TIP3    H179846   4.738   2.269  17.297  0.7523 -0.9097  0.6599
19477TIP3    H279847   4.823   2.163  17.230 -0.8368 -0.5907 -1.9986
19478TIP3   OH279848   1.706   5.597   1.316  0.3627  0.0703  0.4283
19478TIP3    H179849   1.735   5.547   1.392  0.9827  2.2635  1.7223
19478TIP3    H279850   1.620   5.632   1.341  0.7516  1.1435  0.3242
19479TIP3   OH279851   6.524   3.814  12.745  0.5084 -0.4464  0.2028
19479TIP3    H179852   6.597   3.808  12.807 -0.6786 -0.8305  1.6134
19479TIP3    H279853   6.461   3.873  12.788  0.2520  0.4127 -1.2885
19480TIP3   OH279854   0.225   3.956   6.146 -0.1736  0.1257 -0.2895
19480TIP3    H179855   0.210   3.989   6.235 -1.4846  1.0683 -0.8347
19480TIP3    H279856   0.295   4.012   6.112  0.5773 -0.4621  0.2410
19481TIP3   OH279857   6.650   6.224   3.092  0.1307  0.4820 -0.5465
19481TIP3    H179858   6.627   6.291   3.158 -0.4134 -0.1924 -0.0397
19481TIP3    H279859   6.575   6.165   3.091  0.0686  0.5589 -1.8927
19482TIP3   OH279860   2.166   5.227   1.385  0.7272 -0.1646  0.1771
19482TIP3    H179861   2.163   5.136   1.415  1.1593  0.1090  1.0884
19482TIP3    H279862   2.100   5.231   1.315 -0.4618 -0.7877  1.2203
19483TIP3   OH279863   4.177   2.257   5.425  0.4048  0.1259 -0.5325
19483TIP3    H179864   4.238   2.330   5.437  1.0041 -0.4295 -0.0986
19483TIP3    H279865   4.175   2.242   5.331  1.3361 -0.1666 -0.5179
19484TIP3   OH279866   2.027   2.201  11.926 -0.7642 -0.1869 -0.5489
19484TIP3    H179867   1.935   2.180  11.942 -0.9552 -0.3424 -1.7770
19484TIP3    H279868   2.041   2.178  11.835 -0.1169  2.0148 -1.0554
19485TIP3   OH279869   3.944   2.029  15.331  0.2002 -0.5598  0.0340
19485TIP3    H179870   4.030   2.068  15.342  1.6086 -2.3959 -3.0347
19485TIP3    H279871   3.883   2.103  15.331  2.1000  1.0703 -0.4205
19486TIP3   OH279872   5.089   0.873  12.579  0.3687 -0.2841  0.3386
19486TIP3    H179873   5.052   0.848  12.664  0.6891  2.2302  1.3096
19486TIP3    H279874   5.159   0.810  12.563 -0.6709 -1.7136  1.1892
19487TIP3   OH279875   2.467   2.512  16.721  0.4365  0.3302 -0.3102
19487TIP3    H179876   2.431   2.481  16.804 -0.6590 -0.5097 -1.0625
19487TIP3    H279877   2.515   2.591  16.743  0.5684 -0.1391  1.1934
19488TIP3   OH279878   0.943   3.607  16.595 -0.6086 -0.2611  0.1206
19488TIP3    H179879   0.973   3.608  16.505 -1.0871  0.0748 -0.0389
19488TIP3    H279880   0.848   3.618  16.589 -0.5277  0.9794  0.7022
19489TIP3   OH279881   5.714   0.678  14.784  0.3440  0.0128 -0.4937
19489TIP3    H179882   5.660   0.615  14.737  1.8736 -0.3025 -1.9559
19489TIP3    H279883   5.782   0.624  14.825  0.6549  0.5426 -0.3049
19490TIP3   OH279884   6.081   1.418  14.564  0.2274  0.2089  1.0108
19490TIP3    H179885   6.146   1.443  14.498  0.0743  0.5818  0.9986
19490TIP3    H279886   6.043   1.336  14.531 -0.3701  0.7749  0.2599
19491TIP3   OH279887   1.698   4.774  11.732  0.4105 -0.3352  0.6121
19491TIP3    H179888   1.656   4.859  11.747  1.0181  0.0065  0.4217
19491TIP3    H279889   1.785   4.783  11.772  0.7464 -0.6199 -0.0433
19492TIP3   OH279890   5.736   1.948  14.437  0.1445 -0.0334  0.4613
19492TIP3    H179891   5.817   1.992  14.463  0.8907 -1.8121  1.3546
19492TIP3    H279892   5.759   1.855  14.435 -1.6061 -0.4960 -0.3597
19493TIP3   OH279893   0.774   1.850   4.351 -0.2568 -0.1163  0.7797
19493TIP3    H179894   0.760   1.760   4.322 -0.5394  0.3583 -0.6225
19493TIP3    H279895   0.688   1.891   4.346 -0.6353 -0.3257  3.6435
19494TIP3   OH279896   1.628   0.661   1.553 -0.1609 -0.2282 -0.6553
19494TIP3    H179897   1.715   0.630   1.578  0.4206  0.1335 -2.1434
19494TIP3    H279898   1.600   0.602   1.483 -0.8508  0.0289 -0.6059
19495TIP3   OH279899   3.658   1.413  13.268  0.1947 -0.1491 -0.1382
19495TIP3    H179900   3.712   1.490  13.288  1.1005 -0.8245  0.0586
19495TIP3    H279901   3.633   1.378  13.353  2.7262 -2.0977 -0.0981
19496TIP3   OH279902   3.314   3.416   0.621  0.7161  0.2325 -0.6311
19496TIP3    H179903   3.253   3.486   0.644  1.6793  0.9117 -0.0552
19496TIP3    H279904   3.260   3.337   0.617 -0.4817  1.0745 -1.7971
19497TIP3   OH279905   5.467   0.958   5.225 -0.1847  0.4106 -0.3913
19497TIP3    H179906   5.520   0.880   5.243  2.1344  1.7422 -1.0502
19497TIP3    H279907   5.451   0.954   5.131  0.1080  0.8274 -0.4581
19498TIP3   OH279908   0.400   3.014   4.023 -0.8451  0.3988  0.3504
19498TIP3    H179909   0.494   3.024   4.012 -0.6152 -2.1090 -0.5338
19498TIP3    H279910   0.388   2.989   4.114 -0.4454 -1.0395  0.0257
19499TIP3   OH279911   6.641   1.671   0.199 -0.1680  0.0969  0.1640
19499TIP3    H179912   6.728   1.653   0.163  0.5620  0.2719  1.7530
19499TIP3    H279913   6.603   1.584   0.213 -0.2121  0.0153 -0.4659
19500TIP3   OH279914   6.520   6.548   3.496 -0.0316  0.2832  0.1277
19500TIP3    H179915   6.597   6.532   3.550  0.6115  1.0612 -0.5275
19500TIP3    H279916   6.479   6.625   3.535 -0.6785 -0.3202  0.6705
19501TIP3   OH279917   1.483   2.713  12.580  0.2672 -0.1144 -0.1420
19501TIP3    H179918   1.524   2.670  12.505  0.5600  0.7246 -0.4718
19501TIP3    H279919   1.399   2.669  12.590  0.0147  0.0780 -1.2632
19502TIP3   OH279920   0.298   4.461   2.046  0.0396  0.1670  1.2302
19502TIP3    H179921   0.221   4.405   2.058  0.5428 -0.7631  0.3196
19502TIP3    H279922   0.286   4.532   2.109  0.1302 -1.7605  3.5694
19503TIP3   OH279923   3.687   1.807  12.274  0.2710 -0.1339  0.0215
19503TIP3    H179924   3.729   1.771  12.352  1.6994  0.6869 -0.3254
19503TIP3    H279925   3.739   1.773  12.201  0.3614  0.9078 -0.4247
19504TIP3   OH279926   1.369   6.452   4.060 -0.0404  0.0615 -0.0440
19504TIP3    H179927   1.430   6.525   4.054 -2.8857  2.6792  0.3802
19504TIP3    H279928   1.320   6.455   3.978  1.3857 -3.1068 -1.1752
19505TIP3   OH279929   6.145   2.237   3.068  0.3449  0.2938  0.2886
19505TIP3    H179930   6.183   2.173   3.007  0.0764 -0.7017  1.1322
19505TIP3    H279931   6.218   2.261   3.125  0.4741  0.8421 -0.1014
19506TIP3   OH279932   2.007   4.912  12.960 -0.1146  0.0258  0.0028
19506TIP3    H179933   2.095   4.900  12.925 -0.9924  0.0105 -2.3350
19506TIP3    H279934   2.018   4.977  13.029  1.7006  0.1571 -0.3554
19507TIP3   OH279935   0.914   1.920   6.627 -0.3340  0.0013  0.3677
19507TIP3    H179936   0.819   1.914   6.626 -0.2636 -1.6144  0.1044
19507TIP3    H279937   0.942   1.851   6.688  0.6715  0.4295  0.4232
19508TIP3   OH279938   1.648   2.282  15.997  0.9444 -0.2302  0.3240
19508TIP3    H179939   1.580   2.308  15.935 -0.0930  1.4646  2.0523
19508TIP3    H279940   1.728   2.324  15.965  0.3214  1.0132  0.3641
19509TIP3   OH279941   3.097   6.148  13.278  0.2723  0.1121 -0.2746
19509TIP3    H179942   3.103   6.243  13.284 -0.3566  0.1661 -0.4503
19509TIP3    H279943   3.107   6.129  13.185 -3.0466  0.3059 -0.8162
19510TIP3   OH279944   0.210   0.745   4.822  0.4123 -0.0197  0.0425
19510TIP3    H179945   0.275   0.770   4.757 -0.6305  0.6116 -0.7917
19510TIP3    H279946   0.177   0.829   4.855 -1.0000 -0.2946 -0.6108
19511TIP3   OH279947   3.990   2.197   4.766  0.0375 -0.0652 -0.1398
19511TIP3    H179948   3.908   2.149   4.776  0.8893 -1.1870  2.3367
19511TIP3    H279949   3.981   2.273   4.822  0.8557 -0.4712  0.5634
19512TIP3   OH279950   2.784   0.126  16.959 -0.1043 -0.4235 -0.3131
19512TIP3    H179951   2.758   0.061  17.024  3.1969 -0.3480  1.3246
19512TIP3    H279952   2.830   0.193  17.010  0.6230  0.8236 -2.4632
19513TIP3   OH279953   2.870   1.697  16.382  0.1332 -0.2691 -0.3090
19513TIP3    H179954   2.828   1.634  16.324  1.6476  0.6641 -2.5859
19513TIP3    H279955   2.937   1.647  16.428  0.6985 -0.5482 -1.4034
19514TIP3   OH279956   1.055   5.280   2.398  0.3598  0.4191 -0.2875
19514TIP3    H179957   0.964   5.252   2.399  0.7048 -0.8178  1.0213
19514TIP3    H279958   1.063   5.335   2.320 -0.8564 -1.6034 -1.9330
19515TIP3   OH279959   3.115   6.500  13.586 -0.1778 -0.0231  0.8645
19515TIP3    H179960   3.094   6.585  13.547 -2.1583 -0.4234  0.9281
19515TIP3    H279961   3.115   6.516  13.680 -0.6924 -0.1008  0.8825
19516TIP3   OH279962   6.221   4.061   2.926  0.4368 -0.4755 -0.5121
19516TIP3    H179963   6.258   4.081   2.840  2.4682 -0.0327  0.4189
19516TIP3    H279964   6.220   4.145   2.972 -2.2400 -0.3644 -0.6289
19517TIP3   OH279965   5.963   3.702   1.646  0.2557 -0.4688  0.3657
19517TIP3    H179966   6.000   3.761   1.580 -0.6717 -0.9216 -0.6016
19517TIP3    H279967   6.023   3.627   1.647  0.8009 -0.0381  0.7569
19518TIP3   OH279968   0.266   2.228  15.157 -0.1271  0.1243 -0.4764
19518TIP3    H179969   0.243   2.254  15.068 -1.3778 -0.2630 -0.2807
19518TIP3    H279970   0.304   2.307  15.196 -0.2593  0.5106 -1.1176
19519TIP3   OH279971   1.931   3.322  15.484 -0.2061  0.3586 -0.0646
19519TIP3    H179972   1.971   3.386  15.425  0.1415  0.3696  0.1792
19519TIP3    H279973   1.963   3.237  15.453  2.8718  0.5378  2.2022
19520TIP3   OH279974   6.633   5.358  12.245 -0.9659 -0.1341  0.1444
19520TIP3    H179975   6.688   5.321  12.176 -0.3455 -1.2545  1.2090
19520TIP3    H279976   6.622   5.450  12.221 -1.1627 -0.6055 -1.6927
19521TIP3   OH279977   0.976   6.216   1.746 -0.4667 -0.6396 -0.0433
19521TIP3    H179978   0.907   6.265   1.701 -0.3631 -1.2931 -0.9354
19521TIP3    H279979   1.027   6.176   1.676  1.4996  0.6923  0.5410
19522TIP3   OH279980   4.422   0.435   4.436 -0.2803  0.0783  0.2306
19522TIP3    H179981   4.487   0.415   4.503 -0.3664 -0.0900  0.2654
19522TIP3    H279982   4.408   0.351   4.392  0.4276  0.3589 -0.5757
19523TIP3   OH279983   0.284   3.209  16.587  0.3153  0.8893  0.2661
19523TIP3    H179984   0.259   3.118  16.598  1.3635  0.1494 -2.6415
19523TIP3    H279985   0.317   3.236  16.672  0.4007 -1.5711  1.0791
19524TIP3   OH279986   5.679   1.883   5.572 -0.0280  0.2522 -0.0436
19524TIP3    H179987   5.606   1.830   5.543  1.8426 -3.0238  0.7398
19524TIP3    H279988   5.737   1.888   5.496 -0.6011  2.1819 -0.4266
19525TIP3   OH279989   1.026   4.067  14.795 -0.4509 -0.0029 -0.5040
19525TIP3    H179990   0.970   4.142  14.773  0.3850  0.8304  0.1218
19525TIP3    H279991   0.978   4.021  14.863  0.8451  2.3694  2.2145
19526TIP3   OH279992   1.135   6.390   1.984  0.2299  0.3365 -0.4001
19526TIP3    H179993   1.088   6.307   1.977  0.8802 -0.1750  0.8271
19526TIP3    H279994   1.164   6.393   2.076 -0.7609  2.4693 -0.0938
19527TIP3   OH279995   5.766   1.023  11.217  0.3397  0.0532 -0.0998
19527TIP3    H179996   5.747   0.954  11.153  0.4175 -1.1212  1.0882
19527TIP3    H279997   5.786   1.100  11.164 -0.8923 -0.5133 -1.4612
19528TIP3   OH279998   3.390   5.835  12.857  0.3886 -0.1382  0.3386
19528TIP3    H179999   3.322   5.895  12.828  0.0517 -0.3528  0.6845
19528TIP3    H280000   3.350   5.784  12.927  0.7222 -0.6636  0.1523
19529TIP3   OH280001   0.642   1.651   3.816 -0.1906  0.2449 -0.1065
19529TIP3    H180002   0.563   1.649   3.761  0.0395  1.6887 -0.5301
19529TIP3    H280003   0.609   1.660   3.905 -0.5328  2.0358 -0.3720
19530TIP3   OH280004   5.122   0.318  17.305 -0.1610 -0.8137 -0.2046
19530TIP3    H180005   5.050   0.306  17.242  0.3637 -0.4836 -0.8767
19530TIP3    H280006   5.197   0.275  17.265  0.2572 -0.3405  0.0521
19531TIP3   OH280007   1.136   3.970  16.117 -0.0275 -0.5984 -0.1511
19531TIP3    H180008   1.104   3.967  16.026  0.1353 -1.1637 -0.1934
19531TIP3    H280009   1.230   3.956  16.110 -0.1337 -1.5326  0.1681
19532TIP3   OH280010   1.981   2.952  13.377 -0.1271  0.3254 -0.2148
19532TIP3    H180011   1.958   3.004  13.301 -0.7193 -1.1696 -1.1085
19532TIP3    H280012   2.033   3.011  13.432  0.4536  1.3976 -1.8349
19533TIP3   OH280013   3.752   3.294   0.572 -0.2860 -0.2227 -0.0482
19533TIP3    H180014   3.692   3.360   0.539 -0.4239 -0.5160 -0.3969
19533TIP3    H280015   3.699   3.215   0.581 -0.0372 -0.3873 -0.0042
19534TIP3   OH280016   0.703   6.393   2.441 -1.3653 -0.1676 -0.6412
19534TIP3    H180017   0.726   6.433   2.357  1.3493 -1.1894 -0.4732
19534TIP3    H280018   0.698   6.467   2.501  2.3745  0.2306 -0.5912
19535TIP3   OH280019   0.909   3.216   0.727  0.3564  0.2615 -0.1209
19535TIP3    H180020   0.853   3.172   0.663  0.1857  0.9742 -0.4629
19535TIP3    H280021   0.849   3.267   0.781  0.3301 -1.3541  1.4817
19536TIP3   OH280022   1.252   5.318  16.348 -0.0178  0.9331 -0.4563
19536TIP3    H180023   1.172   5.305  16.399  0.2752  1.6730  0.2114
19536TIP3    H280024   1.290   5.399  16.383 -0.1635  1.8569 -2.3186
19537TIP3   OH280025   5.566   0.902  11.723 -0.2847  0.2202 -0.4216
19537TIP3    H180026   5.604   0.963  11.786  0.9410  0.2770 -1.1589
19537TIP3    H280027   5.608   0.926  11.640 -1.1810 -0.4287 -1.0770
19538TIP3   OH280028   1.037   5.395  17.021  0.3275  0.6071 -0.6236
19538TIP3    H180029   1.017   5.306  16.992  0.6521 -0.1288  1.2987
19538TIP3    H280030   0.952   5.437  17.028  0.2118  0.7124 -2.2202
19539TIP3   OH280031   6.630   2.053   2.849  0.4425 -0.2110  0.3545
19539TIP3    H180032   6.682   2.132   2.835 -1.0832  0.6994 -0.4249
19539TIP3    H280033   6.687   1.996   2.901  1.2879  1.7118  1.6673
19540TIP3   OH280034   6.339   5.237   2.322 -0.1106  0.0431  0.5475
19540TIP3    H180035   6.410   5.173   2.316  0.9203  1.1919 -0.1725
19540TIP3    H280036   6.342   5.283   2.237 -0.8814  0.9681  1.0028
19541TIP3   OH280037   6.568   3.700   3.570 -0.1776 -0.5578  0.0872
19541TIP3    H180038   6.479   3.721   3.544  0.4878  1.3438 -0.8091
19541TIP3    H280039   6.566   3.605   3.585 -2.1875 -0.6598 -0.4867
19542TIP3   OH280040   3.829   0.700  13.455 -0.5263  0.2032  0.1422
19542TIP3    H180041   3.826   0.789  13.421  0.6868  0.7222  1.3221
19542TIP3    H280042   3.915   0.667  13.429  0.2791  0.4867  2.2897
19543TIP3   OH280043   4.454   6.255   5.520  0.2669  0.1833  0.1193
19543TIP3    H180044   4.516   6.212   5.579 -0.9960 -2.8433 -0.5808
19543TIP3    H280045   4.494   6.247   5.434 -1.2521 -2.4376 -0.4466
19544TIP3   OH280046   2.489   6.144   4.697  0.6695 -0.0570 -0.1205
19544TIP3    H180047   2.514   6.210   4.762 -1.5470 -0.4787  1.2522
19544TIP3    H280048   2.408   6.107   4.730 -0.1467 -0.8628 -2.7551
19545TIP3   OH280049   2.632   6.442  12.004 -0.0904  0.2982  0.4681
19545TIP3    H180050   2.724   6.447  12.029 -0.2188 -2.1594  1.7545
19545TIP3    H280051   2.615   6.524  11.957  3.0390  0.3170 -0.8529
19546TIP3   OH280052   3.188   4.600   4.150  0.4658  0.2668  0.0068
19546TIP3    H180053   3.215   4.559   4.068 -0.3304  1.4523 -0.8762
19546TIP3    H280054   3.093   4.589   4.152  0.6690 -2.0995  2.1022
19547TIP3   OH280055   2.531   5.070   0.838  0.4521 -0.3363 -0.4898
19547TIP3    H180056   2.489   5.133   0.778 -0.9014  1.0055  1.7238
19547TIP3    H280057   2.467   5.057   0.907  2.0010 -1.7331  0.7483
19548TIP3   OH280058   3.134   5.982  11.133 -0.6052  0.3955  0.1008
19548TIP3    H180059   3.173   5.985  11.046 -1.4027  0.8511 -0.2539
19548TIP3    H280060   3.133   5.889  11.156  1.1571  0.4135  0.3542
19549TIP3   OH280061   0.818   5.397   6.085 -0.0447  0.0153 -0.0772
19549TIP3    H180062   0.754   5.342   6.130 -0.2928  0.0481 -0.3881
19549TIP3    H280063   0.899   5.346   6.086 -0.6675 -1.0743 -1.7781
19550TIP3   OH280064   3.141   6.616   0.017  0.6241 -0.1441  0.5002
19550TIP3    H180065   3.207   6.660   0.071  0.2018  0.4230  0.5667
19550TIP3    H280066   3.057   6.638   0.058  0.2749  0.5229 -0.5306
19551TIP3   OH280067   2.205   0.940  12.529  0.1506 -0.3558  0.7083
19551TIP3    H180068   2.126   0.922  12.578 -0.1040 -0.4274  0.2740
19551TIP3    H280069   2.197   1.032  12.503 -0.9583 -0.9994 -1.4216
19552TIP3   OH280070   6.524   3.078  12.278  0.0674  0.2222  0.0846
19552TIP3    H180071   6.460   3.010  12.298  0.5838  0.0474  1.2018
19552TIP3    H280072   6.530   3.129  12.359 -0.2316  1.5476 -0.6976
19553TIP3   OH280073   6.689   4.544   0.394 -0.1071 -0.0012 -0.2553
19553TIP3    H180074   6.725   4.567   0.480 -0.1094  1.9917 -0.7516
19553TIP3    H280075   6.742   4.469   0.366  0.4172 -0.1877  1.1247
19554TIP3   OH280076   1.017   5.231  13.060  0.2206  0.3921  0.5058
19554TIP3    H180077   0.955   5.301  13.042 -0.8632 -0.3181  1.3155
19554TIP3    H280078   0.993   5.162  12.998  0.5884  0.3359  0.4260
19555TIP3   OH280079   4.425   5.109  12.207  0.3866 -0.4996 -0.3229
19555TIP3    H180080   4.418   5.183  12.267 -1.1900 -0.6112 -0.3283
19555TIP3    H280081   4.347   5.056  12.225  0.9385 -1.6063 -1.0542
19556TIP3   OH280082   1.328   0.073  14.337 -0.1343 -0.5950 -0.2574
19556TIP3    H180083   1.329   0.087  14.242 -0.5660 -2.5448 -0.5955
19556TIP3    H280084   1.267   0.139  14.370  2.1358  2.0272 -0.9182
19557TIP3   OH280085   3.354   2.851  15.228 -0.5417 -0.0222  0.6453
19557TIP3    H180086   3.265   2.827  15.256 -1.3863  1.6946 -0.4007
19557TIP3    H280087   3.372   2.934  15.272 -1.4545  2.1629 -2.7114
19558TIP3   OH280088   3.336   5.959  11.423  0.1246 -0.7669  0.1974
19558TIP3    H180089   3.339   6.055  11.433 -2.8345 -0.6972  1.2499
19558TIP3    H280090   3.248   5.935  11.450  0.8961 -3.8756  0.2587
19559TIP3   OH280091   6.533   1.680   3.150 -0.0719  0.0295  0.6080
19559TIP3    H180092   6.548   1.775   3.157 -1.7374  0.2558  2.0462
19559TIP3    H280093   6.619   1.641   3.162  0.3386  1.3289  2.3255
19560TIP3   OH280094   4.688   2.311   2.971 -0.1161  0.4529 -0.2799
19560TIP3    H180095   4.721   2.223   2.950  0.2067 -0.0555  2.1344
19560TIP3    H280096   4.700   2.360   2.889 -0.0698 -1.6433 -1.6246
19561TIP3   OH280097   5.716   1.092  13.208  0.2568 -0.3151  0.0735
19561TIP3    H180098   5.759   1.095  13.294 -2.4120  0.6001  1.5117
19561TIP3    H280099   5.693   1.000  13.196  2.6352 -0.8514 -0.8138
19562TIP3   OH280100   2.006   6.021   4.488  0.0641 -0.0564  0.1744
19562TIP3    H180101   1.988   5.986   4.401 -0.5038  0.3427  0.1279
19562TIP3    H280102   2.068   5.959   4.527  0.5541 -0.0825 -0.6251
19563TIP3   OH280103   4.777   3.304  15.516 -0.1661  0.0185  0.1336
19563TIP3    H180104   4.787   3.316  15.611  1.5551  0.4766 -0.0788
19563TIP3    H280105   4.698   3.353  15.494 -0.3143  0.3102  1.2535
19564TIP3   OH280106   2.093   1.525  12.290  0.3222 -0.0580 -0.6767
19564TIP3    H180107   2.185   1.504  12.276  0.3766  0.6200 -1.4200
19564TIP3    H280108   2.085   1.618  12.266  0.2347  1.0684  3.0804
19565TIP3   OH280109   3.490   2.611   6.123 -0.4519  0.0371 -0.2783
19565TIP3    H180110   3.469   2.698   6.089 -1.2465  0.0219  0.1720
19565TIP3    H280111   3.580   2.620   6.155 -0.3578  0.5613 -0.6590
19566TIP3   OH280112   5.142   5.442  12.913  0.4431  0.1422  0.0041
19566TIP3    H180113   5.108   5.426  12.824  0.8753 -0.5537 -0.0427
19566TIP3    H280114   5.193   5.363  12.933  1.3277  0.8022  0.4063
19567TIP3   OH280115   4.257   6.530   4.769  0.2622 -0.2708  0.2697
19567TIP3    H180116   4.182   6.553   4.714 -0.6751 -1.7259  0.8543
19567TIP3    H280117   4.266   6.435   4.758  1.3584 -0.2796  1.0429
19568TIP3   OH280118   6.167   1.081   4.891  0.4797 -0.3269 -0.1301
19568TIP3    H180119   6.189   1.084   4.798  0.5782  0.4101 -0.0856
19568TIP3    H280120   6.144   0.989   4.907  0.3805 -0.4425 -0.8982
19569TIP3   OH280121   2.385   1.599   4.526  1.0545 -0.3403 -0.1992
19569TIP3    H180122   2.400   1.692   4.512  0.4888 -0.3592 -1.0074
19569TIP3    H280123   2.461   1.556   4.485 -0.3948 -0.3722 -3.0870
19570TIP3   OH280124   4.818   2.606  15.033  0.1619 -0.3658 -0.0083
19570TIP3    H180125   4.893   2.641  14.985 -0.3142 -0.6448 -0.9908
19570TIP3    H280126   4.744   2.617  14.973 -0.8371  1.0252  1.3893
19571TIP3   OH280127   4.677   2.129   4.271 -0.1646  0.3675 -0.0335
19571TIP3    H180128   4.761   2.173   4.264 -0.2630  0.4955 -0.4537
19571TIP3    H280129   4.619   2.193   4.310 -0.2394  0.5237 -0.3929
19572TIP3   OH280130   6.693   6.759  16.909 -0.3677  0.6204  0.4010
19572TIP3    H180131   6.755   6.831  16.893  1.5432 -0.7901  1.1023
19572TIP3    H280132   6.635   6.761  16.833 -0.0098  2.5171  0.1068
19573TIP3   OH280133   5.607   5.194   6.061  0.3444  0.3234  0.1131
19573TIP3    H180134   5.633   5.206   6.152  0.2247 -0.6512  0.2797
19573TIP3    H280135   5.606   5.283   6.025  2.4687  0.5502  0.4834
19574TIP3   OH280136   2.781   5.225  11.901  1.0719 -0.0382  0.3269
19574TIP3    H180137   2.770   5.277  11.822 -0.4372  0.2298  0.6804
19574TIP3    H280138   2.768   5.134  11.872  1.2854 -0.0085  0.1362
19575TIP3   OH280139   1.831   2.804  16.038 -0.1873  0.2809 -0.3664
19575TIP3    H180140   1.916   2.766  16.060  0.6607  0.6577 -2.6960
19575TIP3    H280141   1.770   2.765  16.101  1.8211  0.7673  2.0490
19576TIP3   OH280142   2.366   2.462   3.791 -0.3571 -0.3356 -0.1633
19576TIP3    H180143   2.301   2.419   3.735 -0.6071 -1.0651  0.6630
19576TIP3    H280144   2.407   2.527   3.734  0.3588 -1.9670 -1.6083
19577TIP3   OH280145   1.626   3.366   1.872  1.3504  0.3151  0.0004
19577TIP3    H180146   1.636   3.356   1.967  0.0722 -1.1955  0.0046
19577TIP3    H280147   1.532   3.378   1.859  1.4075 -0.3794 -1.1442
19578TIP3   OH280148   1.896   4.633  13.222 -0.1748  0.0051  0.4474
19578TIP3    H180149   1.941   4.605  13.302 -1.8775  0.3610  1.6050
19578TIP3    H280150   1.884   4.727  13.234  0.3347  0.2254 -0.6697
19579TIP3   OH280151   1.691   4.577  13.757 -0.1249 -0.2957  0.2313
19579TIP3    H180152   1.708   4.670  13.777 -1.8509 -0.1250  1.1289
19579TIP3    H280153   1.765   4.550  13.704  0.4102  1.6172 -0.0759
19580TIP3   OH280154   4.204   3.200   2.225  0.0178  0.1872 -0.1128
19580TIP3    H180155   4.288   3.157   2.245  2.1780  3.7099 -0.7265
19580TIP3    H280156   4.169   3.224   2.310  0.1074 -0.4708  0.1156
19581TIP3   OH280157   5.150   5.378  13.782  0.3171 -0.4520 -0.0297
19581TIP3    H180158   5.227   5.384  13.726  1.4183 -0.3656  1.4391
19581TIP3    H280159   5.185   5.359  13.869 -1.2727  0.3188  0.8192
19582TIP3   OH280160   5.550   6.554  16.772 -0.3093  0.6939  0.1190
19582TIP3    H180161   5.642   6.563  16.744 -0.3309 -1.1303 -0.7177
19582TIP3    H280162   5.536   6.626  16.833  1.6249  1.1404  0.1024
19583TIP3   OH280163   0.863   4.527   1.016 -0.1647 -0.0550  0.2056
19583TIP3    H180164   0.837   4.578   1.093  0.5199 -0.3148  0.6194
19583TIP3    H280165   0.827   4.575   0.942 -1.4373 -0.1739  0.7236
19584TIP3   OH280166   3.439   1.313  12.630 -0.2633 -0.4253  0.0590
19584TIP3    H180167   3.387   1.248  12.581 -1.4370 -0.3618  1.1538
19584TIP3    H280168   3.515   1.264  12.661 -0.6475 -1.0415  0.0536
19585TIP3   OH280169   1.951   1.808   1.926  0.0168  0.9836  0.5368
19585TIP3    H180170   1.965   1.880   1.864  0.1481  1.4041  1.0422
19585TIP3    H280171   2.037   1.767   1.934 -0.4142 -0.3066 -1.0334
19586TIP3   OH280172   0.223   5.030   0.906  0.0497 -0.4695 -0.7098
19586TIP3    H180173   0.244   5.065   0.992 -1.2070  0.6585 -0.8218
19586TIP3    H280174   0.255   4.940   0.907 -0.9905 -0.8635  1.3684
19587TIP3   OH280175   3.236   0.300   3.690 -0.1229  0.1110  0.2139
19587TIP3    H180176   3.249   0.207   3.704  1.1941  0.0211 -1.2748
19587TIP3    H280177   3.160   0.306   3.632  0.8673 -0.1804 -1.1538
19588TIP3   OH280178   0.853   0.395   2.321 -0.4647  0.5576  0.0406
19588TIP3    H180179   0.879   0.478   2.280 -0.9681 -0.2577 -2.0631
19588TIP3    H280180   0.898   0.328   2.270 -0.2730 -0.5259  1.5500
19589TIP3   OH280181   6.484   4.233  12.989  0.5684  0.3830 -0.4757
19589TIP3    H180182   6.562   4.190  13.022  0.2628  0.0549 -0.1823
19589TIP3    H280183   6.466   4.302  13.052 -0.4257 -0.6913  0.4533
19590TIP3   OH280184   2.521   3.788   0.576 -0.5538 -0.5007  0.6626
19590TIP3    H180185   2.434   3.797   0.537  0.0316 -0.0790 -0.6015
19590TIP3    H280186   2.504   3.769   0.668 -1.9751  0.9623  0.7549
19591TIP3   OH280187   2.254   3.748  15.293 -0.0697  0.3307  0.2567
19591TIP3    H180188   2.204   3.829  15.299  2.3056  1.8679  0.4736
19591TIP3    H280189   2.322   3.766  15.227  2.3725 -0.3780  2.4090
19592TIP3   OH280190   6.152   6.361  11.319  0.6027 -0.8132  0.2012
19592TIP3    H180191   6.190   6.426  11.379  1.6484  0.8564 -2.1305
19592TIP3    H280192   6.126   6.289  11.376 -0.7436  1.6567  2.9845
19593TIP3   OH280193   1.494   6.650  12.908  0.4072  0.6639 -0.0324
19593TIP3    H180194   1.584   6.624  12.928  0.1851  0.7980  1.1968
19593TIP3    H280195   1.501   6.695  12.824  1.3145 -0.3066 -0.5104
19594TIP3   OH280196   0.430   2.801   3.729 -0.2586 -0.1994 -0.1345
19594TIP3    H180197   0.414   2.738   3.658 -1.3558  0.5608 -0.5892
19594TIP3    H280198   0.524   2.795   3.745 -0.3590 -2.1612  0.0346
19595TIP3   OH280199   6.664   4.461  15.615  0.0595  0.1883 -0.1371
19595TIP3    H180200   6.719   4.528  15.574  0.2036  0.7392  0.9105
19595TIP3    H280201   6.721   4.420  15.681  0.0844 -1.2286 -1.0070
19596TIP3   OH280202   6.061   2.636  16.496  0.0571 -0.1096 -0.3671
19596TIP3    H180203   6.006   2.637  16.417 -0.5428 -0.2408  0.0423
19596TIP3    H280204   6.077   2.729  16.515 -1.0154 -0.0106  0.1754
19597TIP3   OH280205   0.080   3.536   4.941 -0.4560  0.1372 -0.3162
19597TIP3    H180206   0.007   3.566   4.996 -0.6903 -2.1542  0.7093
19597TIP3    H280207   0.144   3.608   4.945 -1.8026  1.3432  0.3764
19598TIP3   OH280208   6.576   3.068  14.697  0.0884  0.0877 -0.5787
19598TIP3    H180209   6.510   3.110  14.752 -0.4073 -3.5598  1.9602
19598TIP3    H280210   6.631   3.019  14.759  1.0747 -2.2664 -3.1100
19599TIP3   OH280211   3.590   2.097  12.873 -0.6475 -0.1102  0.0225
19599TIP3    H180212   3.501   2.132  12.868 -0.3964  0.5174 -0.0872
19599TIP3    H280213   3.645   2.172  12.893 -0.2081 -0.6087  0.7432
19600TIP3   OH280214   3.607   1.203   1.918  0.3789 -0.7592  0.8171
19600TIP3    H180215   3.626   1.172   2.007  2.1109  0.2339  0.8359
19600TIP3    H280216   3.679   1.168   1.865 -0.1763 -0.6173 -0.0406
19601TIP3   OH280217   3.901   2.320   2.965  0.1956  0.3992 -0.6050
19601TIP3    H180218   3.852   2.238   2.963  1.5586 -0.4293 -1.9484
19601TIP3    H280219   3.902   2.350   2.874  2.8462 -0.0703 -0.8137
19602TIP3   OH280220   0.650   3.398   1.635  0.5071  0.5638 -0.1332
19602TIP3    H180221   0.604   3.388   1.718  0.0713 -1.3661 -0.5611
19602TIP3    H280222   0.742   3.401   1.659  0.4515 -1.0537  0.3777
19603TIP3   OH280223   3.994   3.483   0.535 -0.3819  0.6852 -0.2190
19603TIP3    H180224   3.991   3.511   0.626 -1.9541  2.1838 -0.6658
19603TIP3    H280225   3.925   3.417   0.527 -1.6114  1.9743 -0.6985
19604TIP3   OH280226   3.087   5.194  15.972  0.1125 -0.3393  0.3430
19604TIP3    H180227   3.067   5.161  15.884  1.5049  1.4254 -0.6903
19604TIP3    H280228   3.076   5.288  15.966  2.2979  0.0573  1.4600
19605TIP3   OH280229   0.597   6.115  13.242 -0.1099  0.4562 -0.2567
19605TIP3    H180230   0.626   6.090  13.154 -0.1585  0.7098 -0.3453
19605TIP3    H280231   0.563   6.204  13.232  0.2515  0.6376  0.0973
19606TIP3   OH280232   1.782   1.525  16.494  0.4693 -0.4034 -0.2134
19606TIP3    H180233   1.777   1.618  16.469 -0.3288 -1.0077 -2.5754
19606TIP3    H280234   1.723   1.517  16.569 -1.1863  0.6198 -1.3394
19607TIP3   OH280235   1.053   0.325  11.878 -0.2085 -0.3631 -0.6242
19607TIP3    H180236   1.075   0.234  11.863  1.6515  0.1419 -1.2380
19607TIP3    H280237   1.095   0.347  11.961 -0.9468 -0.1539 -0.2979
19608TIP3   OH280238   4.480   0.656   3.104  0.0818 -0.8610 -0.1579
19608TIP3    H180239   4.438   0.704   3.176  2.6352  2.9503 -0.8725
19608TIP3    H280240   4.421   0.666   3.030 -1.5554 -2.9713  0.7621
19609TIP3   OH280241   3.762   5.237  12.690  0.2908  1.1594  0.1104
19609TIP3    H180242   3.829   5.225  12.624  0.5136 -0.8152  0.6406
19609TIP3    H280243   3.742   5.331  12.687  1.6040  1.4329 -1.4387
19610TIP3   OH280244   0.631   3.968   3.191 -0.2503  0.1676 -0.3550
19610TIP3    H180245   0.569   4.001   3.126 -0.5481 -1.0300 -0.7079
19610TIP3    H280246   0.606   4.012   3.273 -2.8305 -1.6669 -0.0513
19611TIP3   OH280247   0.666   2.601   5.707 -0.4341 -0.6495 -0.4456
19611TIP3    H180248   0.666   2.564   5.618  1.1687  1.3390 -1.3443
19611TIP3    H280249   0.758   2.603   5.732 -0.8498 -0.8819  1.1745
19612TIP3   OH280250   0.333   4.616  17.284 -0.1859  0.8183  0.1296
19612TIP3    H180251   0.428   4.630  17.279  0.0259  0.3355  2.0180
19612TIP3    H280252   0.303   4.679  17.350 -0.9506 -0.0084  0.5892
19613TIP3   OH280253   3.766   1.936  13.501  0.4949 -0.1369  0.3028
19613TIP3    H180254   3.838   1.997  13.519  0.5271  0.1105 -0.5997
19613TIP3    H280255   3.808   1.861  13.460  0.2248  0.0935 -0.4113
19614TIP3   OH280256   1.454   6.242   5.399  0.4695  0.0865  0.4749
19614TIP3    H180257   1.414   6.235   5.313 -0.3109  0.4410  0.7985
19614TIP3    H280258   1.498   6.328   5.398  3.0183 -1.1090 -0.5898
19615TIP3   OH280259   6.072   6.243   5.999 -0.2590  1.0259 -0.5929
19615TIP3    H180260   6.035   6.179   5.938  1.1507 -0.7858  0.3527
19615TIP3    H280261   6.166   6.227   5.995 -0.0586  1.5647  1.3067
19616TIP3   OH280262   6.750   5.518   3.145 -0.2372  0.8855 -0.6204
19616TIP3    H180263   6.688   5.452   3.175  0.4512  0.4975 -0.0082
19616TIP3    H280264   6.744   5.588   3.210  1.2784  0.0305  0.5270
19617TIP3   OH280265   6.476   0.855   0.288  0.5677  0.1372 -0.1366
19617TIP3    H180266   6.459   0.946   0.314  1.9954  0.3823 -0.0013
19617TIP3    H280267   6.412   0.837   0.219  0.3812  1.2940 -0.2783
19618TIP3   OH280268   0.914   3.316  13.765 -0.2865 -0.1292  0.1934
19618TIP3    H180269   0.969   3.240  13.746  1.5721  0.2517  3.3304
19618TIP3    H280270   0.844   3.282  13.820 -0.0586  0.2550  0.7250
19619TIP3   OH280271   0.148   0.435   5.562 -0.3448 -0.7596 -0.4481
19619TIP3    H180272   0.202   0.359   5.544  0.5730 -0.2645  0.1583
19619TIP3    H280273   0.200   0.509   5.532  0.6127 -0.0151  2.6065
19620TIP3   OH280274   4.280   4.032   0.334 -0.2127  0.1434 -0.3044
19620TIP3    H180275   4.254   4.097   0.268  0.2542  0.0217 -0.6192
19620TIP3    H280276   4.275   4.078   0.417 -1.2340  0.1732 -0.3788
19621TIP3   OH280277   0.149   6.078   5.478 -0.4026 -0.3326  0.1620
19621TIP3    H180278   0.173   6.002   5.425 -0.8589  0.7011 -1.6205
19621TIP3    H280279   0.203   6.071   5.556  2.5304 -0.4211 -1.7125
19622TIP3   OH280280   0.671   1.140   3.972  0.0502 -0.5743  0.1235
19622TIP3    H180281   0.597   1.097   3.931  0.4095  0.2448 -1.4547
19622TIP3    H280282   0.740   1.140   3.906  0.9521  0.0314  1.0180
19623TIP3   OH280283   4.937   5.846  16.579 -0.0369 -0.1234  0.0409
19623TIP3    H180284   4.881   5.920  16.555  0.8842  0.3035 -0.8733
19623TIP3    H280285   4.996   5.881  16.646 -0.1889 -0.2932  0.2672
19624TIP3   OH280286   1.827   3.515   0.031 -0.2279  0.2832 -0.3892
19624TIP3    H180287   1.829   3.433  -0.019  0.0747  1.4563 -2.4341
19624TIP3    H280288   1.902   3.564  -0.002  2.1016 -0.1193  3.6600
19625TIP3   OH280289   0.041   0.711  12.687 -0.0570  0.4756 -0.1059
19625TIP3    H180290  -0.010   0.660  12.750  0.5069 -0.5365 -0.4490
19625TIP3    H280291  -0.021   0.775  12.653 -1.9396 -2.2459 -2.3415
19626TIP3   OH280292   0.310   1.381  13.668 -0.0620  0.4592 -0.9588
19626TIP3    H180293   0.337   1.290  13.682  1.6675  1.3288  2.7650
19626TIP3    H280294   0.356   1.407  13.588  2.9969 -0.8467  0.1903
19627TIP3   OH280295   2.222   1.988  16.765  0.3683 -0.4380  0.0705
19627TIP3    H180296   2.186   1.989  16.676 -0.7939 -1.0573  0.5149
19627TIP3    H280297   2.195   2.073  16.801 -1.0892 -1.0667  0.5449
19628TIP3   OH280298   4.993   3.647   0.226  0.4302 -0.2186 -0.0495
19628TIP3    H180299   5.049   3.691   0.162 -0.9043  1.1260 -0.3589
19628TIP3    H280300   4.917   3.704   0.233 -0.4698 -1.5139  1.0592
19629TIP3   OH280301   6.654   1.372   4.744  0.5542  0.2982 -0.0598
19629TIP3    H180302   6.633   1.339   4.831 -0.2562  1.0687  0.0529
19629TIP3    H280303   6.591   1.443   4.729  0.8240  0.3261 -1.1811
19630TIP3   OH280304   6.493   3.028   2.691 -0.2975 -0.2931  0.2977
19630TIP3    H180305   6.502   3.084   2.768  0.2708 -1.2434  0.9428
19630TIP3    H280306   6.575   2.979   2.688  0.5378  1.0862 -2.0456
19631TIP3   OH280307   0.161   2.265   5.174  0.3299  0.2481 -0.1273
19631TIP3    H180308   0.205   2.180   5.173 -2.0333 -1.0701 -1.4329
19631TIP3    H280309   0.095   2.258   5.106 -1.4863  2.3149  1.2952
19632TIP3   OH280310   2.727   4.112  13.412  0.2641 -0.2815  0.0746
19632TIP3    H180311   2.698   4.203  13.401 -0.7500 -0.4711  1.0453
19632TIP3    H280312   2.689   4.065  13.338  1.5756  0.2257 -0.9760
19633TIP3   OH280313   3.751   2.642  14.672 -0.6611  0.7124  0.1853
19633TIP3    H180314   3.827   2.701  14.679 -0.3366  0.3353 -0.1596
19633TIP3    H280315   3.782   2.559  14.707 -1.2711  0.8718  1.1474
19634TIP3   OH280316   6.101   0.824   4.949 -0.1244 -0.5052 -0.7143
19634TIP3    H180317   6.177   0.806   5.003 -0.7509 -0.5885  0.1589
19634TIP3    H280318   6.069   0.738   4.923 -0.0596 -0.4761 -0.8962
19635TIP3   OH280319   0.064   4.280   0.378  0.2752  0.1236  0.4196
19635TIP3    H180320   0.054   4.206   0.317 -0.2317 -0.1199  0.7869
19635TIP3    H280321   0.001   4.261   0.448 -0.9116  1.6545 -0.2019
19636TIP3   OH280322   5.361   5.604  12.007 -0.0637  0.2410 -0.2428
19636TIP3    H180323   5.288   5.593  11.946  0.0513  0.3064 -0.3919
19636TIP3    H280324   5.438   5.612  11.951  0.0734  0.0454 -0.0813
19637TIP3   OH280325   1.136   1.373   3.244 -0.4835  0.3422  0.2542
19637TIP3    H180326   1.086   1.296   3.216  0.5444 -0.1153 -0.4063
19637TIP3    H280327   1.225   1.355   3.214  0.1963  0.9042  1.8078
19638TIP3   OH280328   3.829   4.213   6.222 -0.4714 -0.0022  0.1969
19638TIP3    H180329   3.883   4.137   6.244  0.5627  1.0674  1.5286
19638TIP3    H280330   3.739   4.181   6.224 -0.0001 -1.4273 -0.3489
19639TIP3   OH280331   3.778   2.023  16.200  0.3025  0.6233 -0.0270
19639TIP3    H180332   3.732   2.100  16.235 -0.0637  0.2228  0.3922
19639TIP3    H280333   3.866   2.055  16.180 -0.0233  1.2958 -0.4294
19640TIP3   OH280334   0.807   0.078  14.395  0.3172 -0.1492 -0.1088
19640TIP3    H180335   0.767   0.068  14.482  0.6306  0.4533  0.1092
19640TIP3    H280336   0.800  -0.009  14.355 -0.5328 -0.2363  0.2164
19641TIP3   OH280337   5.954   1.361  17.259  0.1285  0.2968 -0.0010
19641TIP3    H180338   5.890   1.292  17.241  0.4068  0.1120 -0.2954
19641TIP3    H280339   6.000   1.332  17.337  0.3741  0.0567 -0.2346
19642TIP3   OH280340   5.492   5.202   2.011 -0.2640  0.0592 -0.3869
19642TIP3    H180341   5.470   5.181   1.920  0.1281 -2.1608 -0.0328
19642TIP3    H280342   5.572   5.152   2.027 -0.4469  0.2611  1.2541
19643TIP3   OH280343   5.066   6.336   3.273 -0.1264 -0.5734 -0.1434
19643TIP3    H180344   4.998   6.276   3.241 -0.5198  0.3134 -1.0129
19643TIP3    H280345   5.017   6.407   3.315  0.2838 -0.1043 -0.4565
19644TIP3   OH280346   3.766   6.546  16.891  0.2349 -0.9168  0.2699
19644TIP3    H180347   3.855   6.580  16.886  0.4123 -1.5237 -1.2156
19644TIP3    H280348   3.743   6.551  16.984  2.0042 -1.2638  0.7580
19645TIP3   OH280349   2.961   1.675  15.164  0.0503 -0.4704 -0.1210
19645TIP3    H180350   3.027   1.745  15.168 -1.2468  0.8452 -0.4667
19645TIP3    H280351   2.982   1.627  15.084  0.7380 -0.2471 -0.0837
19646TIP3   OH280352   1.091   2.327  14.995 -0.0285  0.1072 -0.2092
19646TIP3    H180353   1.009   2.371  14.971 -1.2411 -1.3686  0.9945
19646TIP3    H280354   1.072   2.234  14.986  1.3578 -0.2857  0.6067
19647TIP3   OH280355   5.007   4.563  16.489  0.1981  0.7074 -0.1948
19647TIP3    H180356   4.999   4.534  16.580 -1.3836 -0.6043 -0.6971
19647TIP3    H280357   5.079   4.511  16.453  0.1281  0.4521  0.0305
19648TIP3   OH280358   4.289   6.105  14.966  0.2340  0.6026  0.6054
19648TIP3    H180359   4.233   6.115  15.043  0.8948  2.1337  0.9125
19648TIP3    H280360   4.231   6.125  14.892 -0.4828 -1.1799  0.6361
19649TIP3   OH280361   1.080   5.146  11.174  0.1568  0.3242 -0.5524
19649TIP3    H180362   1.029   5.226  11.164 -0.8550 -0.3159 -0.7148
19649TIP3    H280363   1.029   5.093  11.235  0.7157 -0.2675 -0.5909
19650TIP3   OH280364   0.665   1.530   4.561 -0.0879  0.0785  0.1915
19650TIP3    H180365   0.747   1.499   4.599  0.7859  0.1661 -1.5057
19650TIP3    H280366   0.599   1.512   4.628  1.3262  0.1460  1.6558
19651TIP3   OH280367   6.612   3.830  15.559 -0.5277 -0.0058  0.7053
19651TIP3    H180368   6.651   3.859  15.641 -0.1708  2.4019 -0.2485
19651TIP3    H280369   6.592   3.911  15.511 -1.6220 -1.3011 -1.1798
19652TIP3   OH280370   0.256   4.139   0.629 -0.0823 -0.1335 -0.0491
19652TIP3    H180371   0.197   4.065   0.646  1.5105 -1.8984 -1.7636
19652TIP3    H280372   0.260   4.146   0.534 -0.7282  2.6949  0.0392
19653TIP3   OH280373   6.149   1.237   3.163 -0.3202  0.1018 -0.3489
19653TIP3    H180374   6.098   1.205   3.237  0.4742 -0.1285  0.1194
19653TIP3    H280375   6.201   1.309   3.199 -1.0889  1.0352 -1.0727
19654TIP3   OH280376   3.065   4.617   2.385 -0.8576  0.0221 -0.1471
19654TIP3    H180377   2.997   4.584   2.326  1.1722 -2.4523 -1.3674
19654TIP3    H280378   3.128   4.659   2.326  2.3634 -4.4732 -0.4396
19655TIP3   OH280379   5.755   1.480   4.883  0.0316 -0.2619  0.2422
19655TIP3    H180380   5.746   1.571   4.913 -0.0573 -0.4918  0.9416
19655TIP3    H280381   5.727   1.427   4.959  1.1815 -0.8937  0.2480
19656TIP3   OH280382   0.578   2.545   3.084  0.1383  0.3251  0.3712
19656TIP3    H180383   0.668   2.571   3.106 -0.5209  3.0486  0.1983
19656TIP3    H280384   0.542   2.620   3.038 -1.7912 -1.2979 -0.9181
19657TIP3   OH280385   4.606   0.201   3.973  0.1160 -0.0230  0.5524
19657TIP3    H180386   4.674   0.221   4.038  0.9922  0.1581 -0.4007
19657TIP3    H280387   4.643   0.229   3.890 -0.6058 -1.1408 -0.1743
19658TIP3   OH280388   4.115   6.023   3.070 -0.3524  0.4140 -0.7370
19658TIP3    H180389   4.187   6.079   3.042  0.7964 -0.9143 -0.5352
19658TIP3    H280390   4.116   5.949   3.009 -0.9588 -0.0716 -0.1754
19659TIP3   OH280391   6.538   0.423   2.494  0.6866  0.1779 -0.3297
19659TIP3    H180392   6.572   0.398   2.579  2.4292  1.9539 -0.4461
19659TIP3    H280393   6.545   0.518   2.492  0.9115  0.1683 -2.5205
19660TIP3   OH280394   3.559   0.737  11.303 -0.1263 -0.3900  0.0463
19660TIP3    H180395   3.546   0.690  11.220  1.6337 -2.3791  0.8028
19660TIP3    H280396   3.501   0.693  11.365 -1.6093  1.2427 -0.1079
19661TIP3   OH280397   4.739   1.445   0.452  0.3616  0.0947 -0.8981
19661TIP3    H180398   4.773   1.451   0.542  1.1296 -3.1263 -0.8324
19661TIP3    H280399   4.648   1.418   0.463  0.5474 -0.6244 -1.0317
19662TIP3   OH280400   1.315   5.166   0.715 -0.3361 -0.3131 -0.3459
19662TIP3    H180401   1.367   5.174   0.794  0.8190 -1.0082 -1.0076
19662TIP3    H280402   1.338   5.242   0.662  0.1713 -0.7102 -0.7132
19663TIP3   OH280403   4.371   5.850  12.203  0.2132  0.7869 -0.0784
19663TIP3    H180404   4.333   5.843  12.115  0.1483  0.9787 -0.0657
19663TIP3    H280405   4.387   5.759  12.229 -1.5332  0.6102  0.4901
19664TIP3   OH280406   6.280   2.333   3.351  0.3205 -0.0661  0.7569
19664TIP3    H180407   6.343   2.367   3.288 -1.5443  1.1224 -0.5694
19664TIP3    H280408   6.303   2.241   3.360  0.5196 -0.3547 -1.8673
19665TIP3   OH280409   4.453   3.328  16.845 -0.2784 -0.5894  0.2780
19665TIP3    H180410   4.476   3.414  16.808 -0.1072 -1.9160 -3.0818
19665TIP3    H280411   4.374   3.344  16.896  0.2169  1.6999  0.4392
19666TIP3   OH280412   4.054   3.464   2.331 -0.2140  0.3067 -0.2185
19666TIP3    H180413   4.071   3.557   2.348  1.4632 -0.1073  0.6028
19666TIP3    H280414   4.087   3.450   2.242 -1.3109  0.6720 -0.6992
19667TIP3   OH280415   0.221   5.116   0.440  0.7285  0.0365 -1.0006
19667TIP3    H180416   0.169   5.152   0.511  0.5341  0.0047 -1.1272
19667TIP3    H280417   0.158   5.097   0.370  0.8109 -0.6692 -0.8902
19668TIP3   OH280418   0.936   5.110   3.007  0.1609  0.1260 -0.8121
19668TIP3    H180419   0.992   5.129   2.931  1.2805 -1.9788 -0.5758
19668TIP3    H280420   0.948   5.017   3.023  0.6958  0.6755  2.5542
19669TIP3   OH280421   4.981   1.779  17.064  0.3339 -0.0171 -0.0466
19669TIP3    H180422   4.965   1.722  17.140 -0.7513 -0.0030 -0.2473
19669TIP3    H280423   4.896   1.819  17.047  0.7719  0.6163 -0.7642
19670TIP3   OH280424   5.826   2.254  15.630 -0.0594  0.0723 -0.2059
19670TIP3    H180425   5.843   2.182  15.569 -0.0118 -1.0578  1.0961
19670TIP3    H280426   5.903   2.310  15.623  0.5267 -0.7178 -0.2604
19671TIP3   OH280427   3.242   2.198  13.719 -0.4740 -0.2633  0.1330
19671TIP3    H180428   3.297   2.129  13.682  0.6577  0.8730 -0.3723
19671TIP3    H280429   3.267   2.278  13.672 -1.0929  0.6805  1.3227
19672TIP3   OH280430   0.663   0.538   0.214 -0.7214  0.4439  0.5145
19672TIP3    H180431   0.714   0.613   0.184 -1.3592  1.0649  0.9287
19672TIP3    H280432   0.716   0.499   0.283 -1.4202  1.9676  1.9784
19673TIP3   OH280433   4.140   4.564  15.507 -0.5128 -0.1517 -0.4147
19673TIP3    H180434   4.226   4.586  15.543 -1.1752  1.1443  0.4604
19673TIP3    H280435   4.154   4.562  15.412  0.3296  0.8340 -0.3290
19674TIP3   OH280436   2.035   3.121   5.861 -0.5678 -0.8202 -0.0911
19674TIP3    H180437   1.980   3.183   5.909  0.9065 -0.3766  1.1261
19674TIP3    H280438   2.084   3.175   5.799 -0.0242 -0.9048  0.2570
19675TIP3   OH280439   0.621   6.381  12.011 -0.1429  0.2743  0.0189
19675TIP3    H180440   0.628   6.390  12.106  1.4353 -1.1520  0.0851
19675TIP3    H280441   0.649   6.465  11.977  0.0972  0.5294  0.8123
19676TIP3   OH280442   4.813   4.342   5.035  0.2368 -0.4454  0.2246
19676TIP3    H180443   4.901   4.334   4.998 -0.1083 -2.6370 -0.2348
19676TIP3    H280444   4.801   4.262   5.086 -1.4186 -0.0635  0.4835
19677TIP3   OH280445   3.356   5.747   1.149 -0.2750 -0.2229  0.1733
19677TIP3    H180446   3.362   5.773   1.057  0.2421  0.3251  0.3543
19677TIP3    H280447   3.290   5.678   1.150 -0.4555 -0.0727 -0.5749
19678TIP3   OH280448   0.883   6.274  15.662  0.1267  0.7660 -0.5952
19678TIP3    H180449   0.970   6.243  15.686 -0.3141  0.5535  0.8090
19678TIP3    H280450   0.857   6.218  15.589  1.4457  1.3108 -1.5156
19679TIP3   OH280451   3.451   6.240  11.424  0.2285  0.6636  0.2199
19679TIP3    H180452   3.433   6.249  11.518  0.6733 -0.5489  0.4458
19679TIP3    H280453   3.401   6.310  11.383 -0.1704  1.0609  1.3440
19680TIP3   OH280454   0.665   1.728   5.383  0.1982  0.3294  0.1634
19680TIP3    H180455   0.683   1.810   5.428  1.7289 -0.0805  0.3530
19680TIP3    H280456   0.707   1.738   5.297  0.1889 -0.1570  0.0987
19681TIP3   OH280457   1.931   3.918  11.659  1.2193  0.3286 -0.5442
19681TIP3    H180458   1.909   3.825  11.656  2.6092 -0.0256 -0.3815
19681TIP3    H280459   1.969   3.931  11.745  2.1779  0.7624 -1.0157
19682TIP3   OH280460   0.277   2.837   1.707 -0.7365 -0.1980  0.2266
19682TIP3    H180461   0.347   2.893   1.741 -0.2285 -0.7037  0.0350
19682TIP3    H280462   0.198   2.891   1.712 -0.8713 -0.4890  2.9823
19683TIP3   OH280463   3.432   1.032  12.898  0.0056  0.2262 -0.6995
19683TIP3    H180464   3.462   1.003  12.985 -2.2236  0.8884  0.3583
19683TIP3    H280465   3.512   1.064  12.855  1.1377  0.1093  1.1845
19684TIP3   OH280466   3.715   4.266   3.195  0.0914 -0.3452 -0.0221
19684TIP3    H180467   3.653   4.306   3.257 -1.8407 -1.3044 -1.2415
19684TIP3    H280468   3.739   4.183   3.236 -0.4115 -0.5301 -0.0927
19685TIP3   OH280469   5.407   2.870   5.992  0.0228  0.3220  0.1257
19685TIP3    H180470   5.406   2.786   5.946  0.1833 -0.4055  1.4066
19685TIP3    H280471   5.325   2.912   5.967  0.5029  0.3520 -1.5123
19686TIP3   OH280472   0.395   0.704  17.082  0.5750  0.1654 -0.1869
19686TIP3    H180473   0.441   0.786  17.062 -1.2929  1.6902  1.3195
19686TIP3    H280474   0.444   0.666  17.155  1.8266 -0.4544 -1.3054
19687TIP3   OH280475   0.402   5.910  14.648  0.0544  0.4567  0.3221
19687TIP3    H180476   0.341   5.935  14.580 -0.1005 -1.0966 -0.1491
19687TIP3    H280477   0.488   5.939  14.615 -0.2841  1.8426  0.5884
19688TIP3   OH280478   4.061   5.749  13.881 -0.0775  0.2742  0.0687
19688TIP3    H180479   4.104   5.712  13.804  0.6124 -0.4396  0.7799
19688TIP3    H280480   4.112   5.717  13.955 -0.5436  1.2044  0.8112
19689TIP3   OH280481   0.063   6.012   3.025 -0.2507 -0.0926  0.3528
19689TIP3    H180482   0.034   5.950   2.958 -4.0441  0.4221  1.2752
19689TIP3    H280483  -0.013   6.069   3.040  1.2237  1.3464  3.3950
19690TIP3   OH280484   5.658   2.671   1.889  0.4996 -0.0408  0.2280
19690TIP3    H180485   5.697   2.683   1.976  0.0527  2.6959  0.1518
19690TIP3    H280486   5.731   2.645   1.833  1.2300  0.2455  1.0315
19691TIP3   OH280487   4.563   3.029   0.068  0.2624  0.3516 -0.4479
19691TIP3    H180488   4.532   2.943   0.097  1.2331  0.1931  0.1539
19691TIP3    H280489   4.521   3.091   0.127 -0.8262  0.3535 -1.1864
19692TIP3   OH280490   5.765   1.446  15.174  0.0025  0.0148  0.1287
19692TIP3    H180491   5.709   1.516  15.140  0.0692 -0.4026 -0.8911
19692TIP3    H280492   5.854   1.479  15.161  0.0158  0.6605  1.7092
19693TIP3   OH280493   6.578   5.282  17.015  0.1081  0.4038  0.6872
19693TIP3    H180494   6.629   5.248  16.942 -0.9681  1.2343 -0.4879
19693TIP3    H280495   6.621   5.246  17.093  1.0897 -0.7478 -0.3495
19694TIP3   OH280496   4.954   1.605   5.523 -0.4073 -0.2859 -0.2961
19694TIP3    H180497   5.000   1.668   5.468 -2.9508  2.4566  0.4736
19694TIP3    H280498   5.010   1.595   5.600  0.4372  0.3936 -0.8027
19695TIP3   OH280499   4.028   6.152   1.321 -0.3557 -0.6197  0.1855
19695TIP3    H180500   3.988   6.171   1.237  1.7608 -0.9332 -0.9697
19695TIP3    H280501   4.054   6.238   1.356  1.0377 -0.6457 -0.7213
19696TIP3   OH280502   6.355   4.984  11.839  0.2992  0.0244  0.0682
19696TIP3    H180503   6.416   5.058  11.838  1.4575 -0.8332  1.5546
19696TIP3    H280504   6.392   4.922  11.775  0.7497 -0.3028  0.6373
19697TIP3   OH280505   6.550   4.569  16.771  0.6257  0.4175 -0.6533
19697TIP3    H180506   6.528   4.596  16.860  0.7467  0.6313 -0.6878
19697TIP3    H280507   6.465   4.552  16.730  0.5818  0.0198 -0.4056
19698TIP3   OH280508   0.154   5.382  13.590  0.0319 -0.6649  0.2034
19698TIP3    H180509   0.141   5.346  13.502 -1.0513 -1.7563  0.7760
19698TIP3    H280510   0.087   5.340  13.643  2.0637 -1.7465  2.0635
19699TIP3   OH280511   3.636   3.977  11.984  0.1278  0.1668  0.2061
19699TIP3    H180512   3.664   3.948  12.070 -1.0907 -1.6230  0.0518
19699TIP3    H280513   3.641   3.898  11.929 -0.8675  0.8358 -0.9020
19700TIP3   OH280514   6.479   4.670  15.727  0.3216  0.4223  0.2775
19700TIP3    H180515   6.438   4.737  15.672  0.4211  0.3936  0.1680
19700TIP3    H280516   6.563   4.652  15.685 -0.4041 -0.9646 -0.6537
19701TIP3   OH280517   3.174   6.327  10.935 -1.0164 -0.3407 -0.3119
19701TIP3    H180518   3.148   6.418  10.922 -0.2964 -0.0675  0.0542
19701TIP3    H280519   3.137   6.280  10.860 -1.5349  0.2227 -0.4153
19702TIP3   OH280520   4.144   1.653   1.041  0.9278  0.1830 -0.0748
19702TIP3    H180521   4.066   1.614   1.001  0.8647  0.7315 -0.5062
19702TIP3    H280522   4.210   1.648   0.972  1.3069 -0.3583  0.3199
19703TIP3   OH280523   5.640   2.289  16.582  0.4671  0.4950 -0.0921
19703TIP3    H180524   5.694   2.227  16.631 -1.1807 -1.3143 -0.4332
19703TIP3    H280525   5.558   2.294  16.632 -1.4697 -1.7933 -2.7228
19704TIP3   OH280526   1.457   0.470  16.955  0.3895  0.1666  0.4084
19704TIP3    H180527   1.451   0.376  16.966  1.7790  0.0680  0.4964
19704TIP3    H280528   1.394   0.491  16.886 -0.8533 -0.6313  1.2628
19705TIP3   OH280529   1.786   5.875   0.691  0.0466 -0.1183 -0.4222
19705TIP3    H180530   1.735   5.950   0.661 -0.4564 -0.0926  0.4446
19705TIP3    H280531   1.720   5.814   0.726  0.5838 -0.1426  0.5902
19706TIP3   OH280532   2.160   0.870  13.142  0.3857  0.0254  0.0789
19706TIP3    H180533   2.109   0.815  13.201  0.5954  1.0006  1.2078
19706TIP3    H280534   2.251   0.858  13.170  0.5445  0.1084 -0.3851
19707TIP3   OH280535   6.376   1.605  14.787 -0.0317 -0.2959  0.1920
19707TIP3    H180536   6.432   1.545  14.836 -0.1990  1.9115  3.3952
19707TIP3    H280537   6.291   1.561  14.785  0.1771 -0.7887  1.2757
19708TIP3   OH280538   3.629   3.696  11.875  0.1327 -0.0610 -0.0236
19708TIP3    H180539   3.661   3.654  11.795  2.9580  0.1068  0.9131
19708TIP3    H280540   3.609   3.623  11.933  1.7708 -0.2314  0.3946
19709TIP3   OH280541   1.571   5.250  12.686  0.1804  0.3120 -0.1220
19709TIP3    H180542   1.591   5.266  12.778 -4.1181  3.4701  0.6051
19709TIP3    H280543   1.495   5.192  12.688  0.0890  0.3336 -1.6564
19710TIP3   OH280544   2.766   6.010  14.755 -0.3106  0.1963  0.1995
19710TIP3    H180545   2.816   6.010  14.836  0.9808 -3.0260 -0.4355
19710TIP3    H280546   2.832   5.998  14.686 -1.5501  0.9293 -1.1916
19711TIP3   OH280547   4.927   2.927   0.972  0.8206 -0.1976  0.0008
19711TIP3    H180548   4.995   2.866   0.945  2.5821  1.2177  1.0172
19711TIP3    H280549   4.939   3.003   0.914 -2.2895 -1.2251 -2.2880
19712TIP3   OH280550   1.875   4.551  16.219  0.2885  0.0718 -0.0939
19712TIP3    H180551   1.836   4.553  16.132 -0.4305  1.7431  0.2175
19712TIP3    H280552   1.805   4.518  16.276 -0.5687  2.4721  0.3664
19713TIP3   OH280553   0.686   2.400   4.199  0.0463 -0.4581  0.1487
19713TIP3    H180554   0.617   2.334   4.191 -3.9818  3.2295  0.4357
19713TIP3    H280555   0.650   2.464   4.260  3.2691  2.3728 -0.6375
19714TIP3   OH280556   6.122   1.362   3.938  0.2802 -0.7670 -0.1086
19714TIP3    H180557   6.047   1.326   3.985 -0.5988 -0.0605 -0.9344
19714TIP3    H280558   6.110   1.457   3.943  0.4156 -0.6638 -1.3359
19715TIP3   OH280559   2.723   1.625  16.097  0.3520  0.4125 -0.2828
19715TIP3    H180560   2.649   1.569  16.074  1.4304 -1.3896  0.4602
19715TIP3    H280561   2.690   1.714  16.086 -1.8645 -0.3415 -0.1258
19716TIP3   OH280562   1.445   0.511   5.750 -0.1934  0.3169 -0.1712
19716TIP3    H180563   1.525   0.523   5.801  0.1549  0.7207 -0.8100
19716TIP3    H280564   1.402   0.436   5.791  0.6000 -0.0220  0.0607
19717TIP3   OH280565   6.432   3.933   4.727  0.0423 -0.3623  0.4071
19717TIP3    H180566   6.488   3.996   4.772  0.2671  0.3494 -0.8319
19717TIP3    H280567   6.461   3.935   4.636  1.5653 -3.8933  0.6664
19718TIP3   OH280568   0.354   0.505   1.354 -0.3459  0.0256 -0.2826
19718TIP3    H180569   0.326   0.564   1.284  1.8231  1.2744 -0.1975
19718TIP3    H280570   0.398   0.433   1.308 -0.2107  0.1016 -0.2740
19719TIP3   OH280571   5.789   6.017  10.693  0.8072 -0.2900 -0.0847
19719TIP3    H180572   5.854   6.075  10.653  0.6145 -1.1867 -1.8259
19719TIP3    H280573   5.821   5.929  10.673 -0.5437 -0.7534 -0.3057
19720TIP3   OH280574   2.099   4.459  16.390 -0.7178  0.0067 -0.4280
19720TIP3    H180575   2.154   4.413  16.327 -0.2121  0.0358 -0.0195
19720TIP3    H280576   2.028   4.496  16.338  0.2060  0.8437 -1.1406
19721TIP3   OH280577   1.043   1.327  15.370 -0.3541  0.1547 -0.1719
19721TIP3    H180578   1.068   1.266  15.439 -0.9484  0.6053  0.4611
19721TIP3    H280579   0.949   1.314  15.359 -0.1307 -0.4888 -1.4896
19722TIP3   OH280580   5.429   4.236  11.718 -0.1678 -0.5733  0.9239
19722TIP3    H180581   5.504   4.178  11.726 -0.8829 -1.5292  0.9776
19722TIP3    H280582   5.394   4.242  11.807 -0.0847 -0.0279  0.9235
19723TIP3   OH280583   3.160   0.734  12.973  0.2964 -0.1647  0.1143
19723TIP3    H180584   3.080   0.707  12.928 -2.6671  3.0886  2.8052
19723TIP3    H280585   3.202   0.794  12.911 -0.9409  0.3269 -0.2909
19724TIP3   OH280586   5.238   0.831  14.065 -0.0102 -0.2715  0.4099
19724TIP3    H180587   5.143   0.830  14.059  0.0245 -1.1003 -0.0254
19724TIP3    H280588   5.257   0.901  14.129 -0.8587  0.4912 -0.1483
19725TIP3   OH280589   4.377   0.714  17.138 -0.4024  0.5854 -0.0806
19725TIP3    H180590   4.450   0.697  17.198 -1.3697  0.3185  1.0746
19725TIP3    H280591   4.346   0.801  17.163 -0.9729  0.3665 -0.0168
19726TIP3   OH280592   4.734   3.654  17.238 -0.3376 -0.3623 -0.4417
19726TIP3    H180593   4.750   3.582  17.298 -2.0864  1.1018  1.9644
19726TIP3    H280594   4.819   3.671  17.198  0.9052 -1.4832  1.5718
19727TIP3   OH280595   4.484   5.701  14.087  0.4784  0.2598  0.4598
19727TIP3    H180596   4.567   5.653  14.086  0.6570  0.5669 -0.9605
19727TIP3    H280597   4.417   5.635  14.068  0.7089  0.5156 -1.3435
19728TIP3   OH280598   5.165   0.383   0.678  0.5999  0.2741 -0.0152
19728TIP3    H180599   5.099   0.389   0.610 -0.7128  0.1011  1.1894
19728TIP3    H280600   5.220   0.308   0.652 -1.0722 -1.0563  0.0903
19729TIP3   OH280601   1.677   2.686  12.349 -0.4368 -0.4319  0.3733
19729TIP3    H180602   1.683   2.762  12.292 -0.1390  0.0108  0.9923
19729TIP3    H280603   1.763   2.680  12.391  0.2003 -2.2033 -1.0385
19730TIP3   OH280604   2.175   0.582  13.199 -0.8308  0.1565 -0.0079
19730TIP3    H180605   2.125   0.612  13.275 -2.6124  0.4250 -1.1981
19730TIP3    H280606   2.108   0.565  13.132  0.3789 -2.9609 -0.6009
19731TIP3   OH280607   4.035   2.587   3.168  0.2113  0.1250 -0.4322
19731TIP3    H180608   4.041   2.561   3.077  1.1276  0.3438 -0.4501
19731TIP3    H280609   3.953   2.549   3.199 -1.3502  2.0269 -1.9729
19732TIP3   OH280610   4.559   2.642   0.481 -0.3544  0.1531  0.1798
19732TIP3    H180611   4.609   2.671   0.558 -0.6607 -0.2136  0.5278
19732TIP3    H280612   4.497   2.577   0.517  1.1256 -1.8624 -0.7270
19733TIP3   OH280613   3.407   4.590   3.894  0.0386  0.2415  0.1436
19733TIP3    H180614   3.343   4.520   3.877 -0.3537  0.2926  1.3247
19733TIP3    H280615   3.438   4.615   3.807  0.9351 -2.0768 -0.2680
19734TIP3   OH280616   1.443   0.868  13.415 -0.4607 -0.4308 -0.1365
19734TIP3    H180617   1.353   0.898  13.426 -0.4243 -0.3191 -0.1477
19734TIP3    H280618   1.495   0.948  13.402 -0.1005 -0.3677  1.5444
19735TIP3   OH280619   2.080   6.748  11.740  0.2575 -0.2969  0.4917
19735TIP3    H180620   2.134   6.771  11.664  0.0084  0.3125  0.4980
19735TIP3    H280621   2.053   6.832  11.777 -2.4415 -0.5432 -0.7322
19736TIP3   OH280622   6.025   6.236   2.212 -0.4049  0.4381 -0.5876
19736TIP3    H180623   6.105   6.213   2.258 -0.4889  2.6064  0.7699
19736TIP3    H280624   6.009   6.162   2.153  0.3878 -1.9319  1.9410
19737TIP3   OH280625   5.770   0.301  13.505  0.4501  0.2306 -0.1899
19737TIP3    H180626   5.788   0.351  13.585 -0.8497  0.4364 -0.0152
19737TIP3    H280627   5.700   0.241  13.528  0.2941  0.0464 -1.0880
19738TIP3   OH280628   2.435   4.146   6.075  0.1489 -0.2704  0.0053
19738TIP3    H180629   2.448   4.052   6.061  1.1852 -0.2400  0.6690
19738TIP3    H280630   2.439   4.158   6.170  2.4366  0.7273 -0.1355
19739TIP3   OH280631   0.848   3.785  11.930 -0.2797 -0.0944  0.1538
19739TIP3    H180632   0.768   3.786  11.877  0.7634 -2.1274 -1.6378
19739TIP3    H280633   0.819   3.751  12.014 -1.4753  0.2492 -0.0843
19740TIP3   OH280634   5.315   0.399   1.124 -0.2712  0.1235  0.3294
19740TIP3    H180635   5.381   0.335   1.151 -0.8424 -0.1830  1.0353
19740TIP3    H280636   5.318   0.467   1.191 -2.2674 -1.0461  1.7079
19741TIP3   OH280637   2.124   6.067  17.327 -0.1850  0.4217  0.2698
19741TIP3    H180638   2.071   6.046  17.404 -2.9421  2.4468 -0.9507
19741TIP3    H280639   2.149   6.158  17.338 -0.0235  0.5412 -0.9219
19742TIP3   OH280640   0.289   3.884   0.386  0.1543 -0.5862  0.5291
19742TIP3    H180641   0.365   3.910   0.438  0.4508 -0.8364  0.2217
19742TIP3    H280642   0.304   3.924   0.300  0.2275 -1.1165  0.2909
19743TIP3   OH280643   5.407   1.075   1.393  0.1998  0.1558 -0.0449
19743TIP3    H180644   5.389   0.998   1.447  1.2966  0.1834  0.3871
19743TIP3    H280645   5.330   1.083   1.337 -0.2792 -0.7887  0.4429
19744TIP3   OH280646   5.549   3.081  15.110  0.0870  0.0113  0.0339
19744TIP3    H180647   5.498   3.160  15.093  1.1212  0.7281  0.1912
19744TIP3    H280648   5.639   3.112  15.120  0.3944 -1.0861  0.8852
19745TIP3   OH280649   4.907   4.788  14.313  1.0071  0.1665  0.0908
19745TIP3    H180650   4.819   4.806  14.278  2.1399  1.4044 -2.3903
19745TIP3    H280651   4.943   4.722  14.253  2.5497  1.3534 -0.3562
19746TIP3   OH280652   6.266   0.313   2.530  0.1601 -0.4250  0.1114
19746TIP3    H180653   6.212   0.386   2.500 -0.5499 -0.2678  1.6929
19746TIP3    H280654   6.356   0.345   2.521 -0.0948  0.1940 -0.3230
19747TIP3   OH280655   6.215   1.553  11.244 -0.3943  0.2137 -0.0996
19747TIP3    H180656   6.255   1.567  11.158  0.5422 -2.8778 -0.2785
19747TIP3    H280657   6.280   1.503  11.293 -0.9423  1.8266  2.4603
19748TIP3   OH280658   3.716   1.973  13.891 -0.0023  0.0222  0.7921
19748TIP3    H180659   3.753   1.903  13.837  1.8433  0.7888  0.9842
19748TIP3    H280660   3.711   1.936  13.979  0.7517  0.0470  0.8498
19749TIP3   OH280661   6.697   3.752  13.168 -0.2175  0.1881 -0.1547
19749TIP3    H180662   6.644   3.674  13.185 -1.6154  1.0195 -0.5010
19749TIP3    H280663   6.752   3.761  13.246 -1.1301 -0.2969  0.5659
19750TIP3   OH280664   3.176   0.543   4.935  0.0393  0.0389 -0.1327
19750TIP3    H180665   3.191   0.463   4.986  1.6681  0.3640 -0.0497
19750TIP3    H280666   3.211   0.613   4.989  0.3152  0.5854 -1.0009
19751TIP3   OH280667   6.001   1.612   0.041 -0.3082  0.0267 -0.2061
19751TIP3    H180668   6.086   1.656   0.036  0.4302 -1.1153  1.4634
19751TIP3    H280669   6.008   1.539  -0.021 -0.1613  0.0614 -0.2312
19752TIP3   OH280670   4.360   6.386  16.006 -0.0713  0.0943 -0.3648
19752TIP3    H180671   4.438   6.408  16.058  0.1165 -0.5773 -0.3527
19752TIP3    H280672   4.380   6.417  15.918 -0.1910  0.7962 -0.1517
19753TIP3   OH280673   0.237   6.171  16.016 -0.4746  1.1731  0.1505
19753TIP3    H180674   0.280   6.093  15.981 -1.1596  0.7707  0.1724
19753TIP3    H280675   0.298   6.206  16.081  0.7510  1.8493 -1.3129
19754TIP3   OH280676   1.138   0.777  16.636 -0.1455  0.8098 -0.3517
19754TIP3    H180677   1.111   0.734  16.555 -0.5103  0.9583 -0.3136
19754TIP3    H280678   1.198   0.846  16.609  0.3606  0.3460 -0.4221
19755TIP3   OH280679   2.828   1.394  16.401 -0.1216  0.4564 -0.4286
19755TIP3    H180680   2.746   1.353  16.429 -0.5169 -0.9439 -3.3172
19755TIP3    H280681   2.889   1.376  16.472 -1.8857  0.1673  1.1006
19756TIP3   OH280682   6.313   3.018  10.839 -0.0943  0.4095  0.1148
19756TIP3    H180683   6.345   3.105  10.862 -0.4002  0.8985 -1.2104
19756TIP3    H280684   6.221   3.031  10.817 -0.7801 -0.6675  2.1020
19757TIP3   OH280685   3.085   0.234   0.985  0.3542  0.8874  0.7261
19757TIP3    H180686   3.103   0.327   0.999  1.5729  0.9012 -0.6585
19757TIP3    H280687   3.171   0.193   0.985 -0.2106 -0.3770  2.0339
19758TIP3   OH280688   6.154   1.276  14.215  0.8632  0.3453 -0.3723
19758TIP3    H180689   6.067   1.249  14.244  2.4249 -1.3006  3.3917
19758TIP3    H280690   6.147   1.371  14.204 -1.7101  0.0733 -1.6847
19759TIP3   OH280691   4.303   0.418   5.473  0.3844 -0.2482 -0.2213
19759TIP3    H180692   4.262   0.337   5.504  1.3727 -0.3244  0.9697
19759TIP3    H280693   4.383   0.389   5.430  1.0230  0.1043  0.6940
19760TIP3   OH280694   3.486   0.453  16.846  0.3256  0.5816 -0.6384
19760TIP3    H180695   3.435   0.533  16.861 -0.8914 -0.0508 -1.2138
19760TIP3    H280696   3.451   0.417  16.765  0.7704 -0.5971 -0.3336
19761TIP3   OH280697   0.625   2.160   1.296 -0.0666 -0.1571  0.2684
19761TIP3    H180698   0.678   2.081   1.305 -1.1603 -0.7796  1.6459
19761TIP3    H280699   0.546   2.141   1.347 -0.8995  1.3541 -0.4035
19762TIP3   OH280700   6.744   6.653   1.637 -0.0335 -0.1973 -0.0994
19762TIP3    H180701   6.708   6.565   1.652  0.5771 -0.3959  0.2510
19762TIP3    H280702   6.755   6.689   1.725  0.1246  0.0671 -0.2269
19763TIP3   OH280703   6.054   4.550   5.501 -0.4454  0.0513 -0.0223
19763TIP3    H180704   6.135   4.534   5.451  0.0155  3.2015 -0.4842
19763TIP3    H280705   6.082   4.545   5.593 -0.4661 -1.9141 -0.0712
19764TIP3   OH280706   6.647   4.282   6.202  0.3933 -0.1440  0.9101
19764TIP3    H180707   6.580   4.294   6.270 -0.6377  0.2534 -0.1345
19764TIP3    H280708   6.643   4.188   6.181  0.5142 -0.2148  1.2104
19765TIP3   OH280709   5.132   5.488  17.012  0.0855  0.2185  0.1389
19765TIP3    H180710   5.124   5.544  16.936 -0.8013 -1.0215 -0.7302
19765TIP3    H280711   5.081   5.532  17.080  0.4946  1.1012 -0.1132
19766TIP3   OH280712   2.128   3.628   5.216  0.1458  0.0984  0.2269
19766TIP3    H180713   2.101   3.666   5.133  0.5282  0.5544  0.3055
19766TIP3    H280714   2.128   3.533   5.201  0.0794  0.1738 -0.2469
19767TIP3   OH280715   4.918   2.014  17.314 -0.2688 -0.4050  0.1418
19767TIP3    H180716   4.898   2.051  17.400 -1.9319  0.1859 -0.4758
19767TIP3    H280717   4.932   1.921  17.331  2.4095  0.1465  1.4723
19768TIP3   OH280718   0.169   1.862   2.689  0.5974 -0.1349  0.4654
19768TIP3    H180719   0.157   1.806   2.612 -1.1889  1.1210 -0.2391
19768TIP3    H280720   0.207   1.943   2.654 -0.9140  0.7288  0.7234
19769TIP3   OH280721   1.008   6.707   1.521 -0.4586  0.4114 -0.4368
19769TIP3    H180722   1.093   6.752   1.519  0.0475 -0.5267 -1.4914
19769TIP3    H280723   1.020   6.635   1.583 -1.0538  1.2885  0.7332
19770TIP3   OH280724   0.401   0.315  13.519  0.3411  0.3916  0.3435
19770TIP3    H180725   0.433   0.225  13.524  0.3734  0.4377  1.0754
19770TIP3    H280726   0.478   0.367  13.493  0.4637  0.2846  0.4930
19771TIP3   OH280727   4.370   2.525   4.654 -0.0915  0.1374 -0.9941
19771TIP3    H180728   4.337   2.611   4.683  1.0859  0.4338 -0.4976
19771TIP3    H280729   4.291   2.478   4.626 -0.9734  0.7515  0.3572
19772TIP3   OH280730   0.925   5.273  13.563  0.6590  0.2977 -0.6210
19772TIP3    H180731   0.992   5.313  13.507  0.6653  0.6873 -0.3347
19772TIP3    H280732   0.916   5.333  13.636  0.6933 -0.2371 -0.1694
19773TIP3   OH280733   1.616   6.401   0.717 -0.2369  0.3121  0.1663
19773TIP3    H180734   1.618   6.390   0.622 -0.7904  1.1873  0.0461
19773TIP3    H280735   1.542   6.348   0.746  0.5928 -0.8376  0.2470
19774TIP3   OH280736   1.599   3.711   4.954 -0.1348  1.0519 -0.1686
19774TIP3    H180737   1.541   3.658   4.899 -0.8488  1.2443  0.3754
19774TIP3    H280738   1.543   3.781   4.988  0.2780  0.9281  0.8111
19775TIP3   OH280739   2.644   5.714  16.872  0.1799  0.3949 -0.0445
19775TIP3    H180740   2.712   5.676  16.816  1.4483 -0.1649  1.7867
19775TIP3    H280741   2.618   5.642  16.930 -0.3320  1.2157  0.7783
19776TIP3   OH280742   3.073   4.940   2.180 -0.2301 -0.1674  0.2977
19776TIP3    H180743   3.148   4.895   2.219  0.7544 -1.2473 -2.5190
19776TIP3    H280744   3.047   4.883   2.107 -3.0135  0.8149  0.3876
19777TIP3   OH280745   5.514   1.995   5.054  0.4731  0.0434  0.1531
19777TIP3    H180746   5.422   1.991   5.082  0.2827  2.6457  0.1052
19777TIP3    H280747   5.518   2.070   4.995  2.5422 -0.3803 -0.3119
19778TIP3   OH280748   1.729   5.990   0.336 -0.3964  0.4075 -0.1306
19778TIP3    H180749   1.655   5.933   0.355  0.3203  0.0227  1.7286
19778TIP3    H280750   1.693   6.078   0.340 -0.8944  0.2000 -0.0055
19779TIP3   OH280751   6.448   3.699  16.212 -0.6953  0.0406 -0.3834
19779TIP3    H180752   6.380   3.737  16.267 -1.7938  1.1834 -2.4393
19779TIP3    H280753   6.440   3.605  16.226 -0.8363  0.2985  1.4754
19780TIP3   OH280754   1.647   0.600  13.474  0.0797 -0.1200 -0.2117
19780TIP3    H180755   1.597   0.592  13.555  0.5145  3.6149  0.5911
19780TIP3    H280756   1.651   0.694  13.457  1.7118 -0.6388 -3.5292
19781TIP3   OH280757   6.485   1.054  10.934  0.3787 -0.0895 -0.3198
19781TIP3    H180758   6.424   1.127  10.926 -0.5256 -0.8830 -0.9702
19781TIP3    H280759   6.488   1.016  10.846  2.7021  0.5896 -0.6029
19782TIP3   OH280760   0.574   3.908  15.528  0.2022  0.3892  0.3865
19782TIP3    H180761   0.555   3.972  15.459  1.0120 -2.1329 -2.3741
19782TIP3    H280762   0.489   3.869  15.549  0.1166  0.2448 -0.2040
19783TIP3   OH280763   4.145   1.435   2.088  0.0508  0.3387  0.0208
19783TIP3    H180764   4.125   1.529   2.085  0.1382  0.3476 -0.2691
19783TIP3    H280765   4.213   1.428   2.154 -0.8227  0.3225  0.9466
19784TIP3   OH280766   0.553   3.826  12.808  0.5111 -0.0860 -0.7155
19784TIP3    H180767   0.566   3.809  12.901  2.6688  1.9049 -0.5745
19784TIP3    H280768   0.504   3.749  12.777  1.3330 -1.7023  1.6584
19785TIP3   OH280769   3.666   1.406   0.022  0.2430  0.1472  0.0505
19785TIP3    H180770   3.692   1.414   0.113  0.4566 -0.6732  0.0662
19785TIP3    H280771   3.594   1.469   0.012 -1.0284 -1.0491  1.2623
19786TIP3   OH280772   2.951   4.288  11.940 -0.0250  0.0788 -0.0353
19786TIP3    H180773   3.029   4.235  11.957 -0.3229 -0.6408 -0.8513
19786TIP3    H280774   2.882   4.225  11.921 -0.2442  0.7633 -1.6219
19787TIP3   OH280775   1.359   3.592   3.145  0.1872  0.1408  0.1164
19787TIP3    H180776   1.300   3.664   3.168  1.0345  0.8906 -0.0251
19787TIP3    H280777   1.426   3.632   3.090 -0.0038 -0.9925 -1.0152
19788TIP3   OH280778   5.253   0.369  11.784 -0.2340 -0.5487  0.9889
19788TIP3    H180779   5.177   0.427  11.778  0.3869  0.2610  0.9051
19788TIP3    H280780   5.324   0.418  11.744  0.7930 -0.5502  2.7378
19789TIP3   OH280781   1.444   3.137  15.312 -0.7384  0.1101 -0.0108
19789TIP3    H180782   1.518   3.198  15.320  1.6957 -2.3225 -1.9572
19789TIP3    H280783   1.454   3.079  15.388 -0.1553 -0.6574 -0.6600
19790TIP3   OH280784   6.628   3.565   2.925 -0.3373 -0.0401  0.4351
19790TIP3    H180785   6.693   3.577   2.995  1.1146 -0.3004 -0.8019
19790TIP3    H280786   6.550   3.609   2.957  0.7566  1.1764  1.5810
19791TIP3   OH280787   6.196   5.773   1.034 -0.1482 -0.1844  0.3256
19791TIP3    H180788   6.243   5.689   1.031  1.8234  0.8856 -2.1691
19791TIP3    H280789   6.139   5.770   0.957 -2.4346 -0.4327  1.9512
19792TIP3   OH280790   4.075   5.167  13.471 -0.1492  0.0195 -0.6700
19792TIP3    H180791   4.149   5.228  13.466 -0.7113  0.9344  1.1303
19792TIP3    H280792   4.094   5.112  13.547 -1.9108  1.1943  0.7194
19793TIP3   OH280793   4.136   3.183  14.247 -0.0401  0.8084 -0.4582
19793TIP3    H180794   4.071   3.126  14.205  1.3083 -0.0559 -1.4596
19793TIP3    H280795   4.136   3.263  14.194  1.2678 -0.0684 -1.8560
19794TIP3   OH280796   6.455   4.830   2.721  0.0111 -0.1644 -0.3931
19794TIP3    H180797   6.542   4.797   2.747 -0.2877 -1.0881 -0.5099
19794TIP3    H280798   6.470   4.921   2.697  1.0772 -0.4831 -1.0238
19795TIP3   OH280799   6.378   1.885  15.333  0.9528 -0.2295 -0.1322
19795TIP3    H180800   6.430   1.926  15.264 -0.4779 -0.2068 -1.2281
19795TIP3    H280801   6.388   1.942  15.409  2.7539 -0.3879 -0.1985
19796TIP3   OH280802   2.937   6.275  15.790  0.4611  0.2212 -0.3361
19796TIP3    H180803   2.966   6.364  15.770  0.2764  0.2023 -0.7068
19796TIP3    H280804   2.989   6.220  15.731  2.9012 -0.2254  2.0390
19797TIP3   OH280805   6.222   0.175  12.878  0.3836 -0.1105  0.1068
19797TIP3    H180806   6.263   0.260  12.863 -0.0741 -0.1080 -1.1946
19797TIP3    H280807   6.223   0.132  12.793  1.5125 -1.8424  0.9339
19798TIP3   OH280808   2.279   5.188  11.565 -0.0732 -0.1391  0.2419
19798TIP3    H180809   2.206   5.238  11.528 -0.8738 -1.8882 -0.6299
19798TIP3    H280810   2.324   5.251  11.621 -1.9822  1.1203  0.4710
19799TIP3   OH280811   4.781   0.380   5.081  0.1508 -0.0394  0.9283
19799TIP3    H180812   4.738   0.339   5.005  0.9433 -0.1134  0.5063
19799TIP3    H280813   4.782   0.473   5.060 -1.5551  0.2200  1.8393
19800TIP3   OH280814   4.982   5.950  15.750  0.0171 -0.8326 -0.0170
19800TIP3    H180815   5.035   5.881  15.710  1.0737 -0.2358  0.2980
19800TIP3    H280816   5.001   6.028  15.697  0.9274 -0.1784  1.2181
19801TIP3   OH280817   6.448   5.880  14.592 -0.1385  0.3787  0.2359
19801TIP3    H180818   6.382   5.816  14.620 -0.2033 -1.0695 -2.7973
19801TIP3    H280819   6.531   5.833  14.601 -0.1186  0.0792 -1.3476
19802TIP3   OH280820   6.086   0.846  12.332  0.2840  0.3338  0.0413
19802TIP3    H180821   6.108   0.792  12.408  0.3080 -0.5689 -0.5940
19802TIP3    H280822   5.998   0.880  12.351 -0.6777 -1.6871 -0.4678
19803TIP3   OH280823   0.985   0.574  14.387  0.2192  0.0358  0.3778
19803TIP3    H180824   0.957   0.484  14.406  3.4917 -1.2325 -0.1893
19803TIP3    H280825   1.014   0.608  14.472 -1.4786  0.8023  0.6867
19804TIP3   OH280826   2.246   1.992  14.082  0.0323  0.2171 -0.4994
19804TIP3    H180827   2.158   1.955  14.089  0.7294 -1.8863 -1.6888
19804TIP3    H280828   2.275   2.004  14.172 -1.3692  0.7619 -0.0906
19805TIP3   OH280829   3.216   4.481  17.264  0.2709 -0.6024 -0.6073
19805TIP3    H180830   3.224   4.576  17.266 -0.7676 -0.3334 -3.8342
19805TIP3    H280831   3.299   4.450  17.229  0.3860 -0.8627 -0.1172
19806TIP3   OH280832   5.752   2.198   3.813  0.0186 -0.3726 -0.0213
19806TIP3    H180833   5.710   2.161   3.891  1.4901 -1.5861  0.2255
19806TIP3    H280834   5.846   2.190   3.829  0.3580  0.1241 -1.5705
19807TIP3   OH280835   2.278   2.647  14.398 -0.1956 -0.3378 -0.5548
19807TIP3    H180836   2.300   2.575  14.339 -0.0695  0.6808 -1.8112
19807TIP3    H280837   2.287   2.725  14.344  0.7175  0.7245  1.0576
19808TIP3   OH280838   1.974   4.991   4.892  0.1027  0.8193 -0.3089
19808TIP3    H180839   2.063   4.968   4.919  0.0720  0.2948 -0.6461
19808TIP3    H280840   1.959   4.940   4.812 -0.2237  1.4806 -0.6850
19809TIP3   OH280841   4.211   2.065   1.312 -0.5560  0.3270 -0.1857
19809TIP3    H180842   4.295   2.057   1.269  0.2341 -0.8706  1.4840
19809TIP3    H280843   4.158   2.117   1.252  2.0820  3.1987 -0.2805
19810TIP3   OH280844   4.219   5.617   4.536  0.5591 -0.2332  0.0305
19810TIP3    H180845   4.146   5.646   4.590 -0.2787  1.5036 -1.9257
19810TIP3    H280846   4.180   5.564   4.467  1.3061 -0.3972 -0.2824
19811TIP3   OH280847   5.664   3.707  13.864  1.0437 -0.7661  0.0596
19811TIP3    H180848   5.670   3.796  13.830 -0.2059 -1.1939 -1.3813
19811TIP3    H280849   5.723   3.707  13.940  1.5013  1.1120 -0.2298
19812TIP3   OH280850   0.395   4.914   1.323  0.8434 -0.7860  0.2690
19812TIP3    H180851   0.416   4.851   1.254  1.8400  0.6820 -0.8489
19812TIP3    H280852   0.389   4.862   1.403  1.4843 -2.3102 -0.6393
19813TIP3   OH280853   3.121   5.136   2.620  0.2559 -0.3125 -0.5396
19813TIP3    H180854   3.156   5.142   2.531  1.1565 -0.7980 -0.2329
19813TIP3    H280855   3.138   5.045   2.646 -1.6607 -0.7058 -0.5339
19814TIP3   OH280856   3.093   2.136  12.281  0.1712  0.2329 -0.1843
19814TIP3    H180857   3.057   2.047  12.285  2.9307 -0.9495  0.1454
19814TIP3    H280858   3.060   2.171  12.198 -0.0361 -1.5464 -0.8979
19815TIP3   OH280859   3.382   2.882   6.071  0.0157 -0.3559 -0.2768
19815TIP3    H180860   3.447   2.881   6.141 -0.9259  0.1478  0.6286
19815TIP3    H280861   3.318   2.947   6.098 -0.0173  0.3610 -1.9486
19816TIP3   OH280862   3.867   5.064   5.298  0.1161  0.4173  0.0683
19816TIP3    H180863   3.874   5.023   5.384  2.6152  0.0725 -0.2114
19816TIP3    H280864   3.845   4.992   5.239  0.2345  0.3039  0.1627
19817TIP3   OH280865   5.438   1.216   5.856 -0.2219  0.3530  0.2548
19817TIP3    H180866   5.448   1.296   5.804 -0.4675  0.3800  0.2512
19817TIP3    H280867   5.519   1.168   5.840 -0.2478  0.4115 -0.0685
19818TIP3   OH280868   0.200   5.496   2.108  0.2191 -0.6321 -0.3376
19818TIP3    H180869   0.294   5.496   2.124  0.5831  2.2047 -1.9233
19818TIP3    H280870   0.162   5.530   2.190  0.1956 -3.9537  1.2239
19819TIP3   OH280871   2.931   5.535   0.104  0.3533 -0.5208 -0.1493
19819TIP3    H180872   2.886   5.472   0.047 -0.3245 -0.2780  0.0964
19819TIP3    H280873   2.967   5.600   0.044 -0.6733 -0.0659 -0.2990
19820TIP3   OH280874   1.647   1.914   0.899  0.4154 -0.6754 -0.4460
19820TIP3    H180875   1.554   1.888   0.900  0.3534 -0.4543 -0.3779
19820TIP3    H280876   1.646   2.005   0.930  0.8015 -1.1636  1.0693
19821TIP3   OH280877   5.788   6.076  16.972 -0.3581 -0.3233 -0.3263
19821TIP3    H180878   5.738   6.081  17.053 -2.4092 -0.9457 -1.4916
19821TIP3    H280879   5.807   6.167  16.949 -1.3183 -0.0430 -0.0546
19822TIP3   OH280880   3.671   0.938  15.134 -0.1158  0.2358  0.0445
19822TIP3    H180881   3.693   0.883  15.059  0.5688 -0.8185  0.9928
19822TIP3    H280882   3.577   0.923  15.148 -0.3376  0.7463 -0.8299
19823TIP3   OH280883   5.492   4.434  12.316  0.6007  0.3229  0.0879
19823TIP3    H180884   5.474   4.494  12.243 -0.8174  1.6919  1.4758
19823TIP3    H280885   5.406   4.398  12.339  1.3278 -1.7519 -0.2378
19824TIP3   OH280886   1.279   3.553  16.074  0.2957  0.0349  0.5027
19824TIP3    H180887   1.293   3.647  16.081  0.8942 -0.0253  0.2092
19824TIP3    H280888   1.356   3.514  16.115  2.3680 -0.3064 -3.2351
19825TIP3   OH280889   3.506   3.901   0.230  0.1330 -0.1266 -0.4773
19825TIP3    H180890   3.575   3.857   0.180 -0.1165 -0.0571 -0.8847
19825TIP3    H280891   3.453   3.946   0.164 -0.0387  0.1939 -0.1278
19826TIP3   OH280892   3.582   3.571   6.005 -0.2906 -0.2831 -0.5520
19826TIP3    H180893   3.677   3.582   6.014 -0.1960 -0.5321 -1.1817
19826TIP3    H280894   3.563   3.597   5.915 -0.9142  0.3591 -0.2398
19827TIP3   OH280895   1.400   0.137  13.010 -0.6471  0.3515  0.0312
19827TIP3    H180896   1.487   0.170  13.035 -0.4534  0.3446 -0.6111
19827TIP3    H280897   1.417   0.049  12.976 -1.2033 -0.5907  2.0656
19828TIP3   OH280898   3.941   0.742  16.021 -0.3347 -0.4670  0.2493
19828TIP3    H180899   3.996   0.808  16.062  0.5844 -1.1542  0.1420
19828TIP3    H280900   3.960   0.749  15.928 -2.5358  1.2030 -0.1685
19829TIP3   OH280901   1.943   3.128  11.382  0.1774 -0.1717 -0.2197
19829TIP3    H180902   1.979   3.049  11.340 -0.9879 -2.0943  2.1386
19829TIP3    H280903   1.877   3.160  11.321 -0.5060 -2.0426 -0.5234
19830TIP3   OH280904   0.909   4.567  14.463 -0.0832  0.6315 -0.1033
19830TIP3    H180905   0.970   4.576  14.389  0.1201  1.2687  0.1349
19830TIP3    H280906   0.939   4.489  14.509  1.2214  1.5071  0.6060
19831TIP3   OH280907   5.046   6.525  15.681 -0.1894  0.0916  0.2492
19831TIP3    H180908   5.065   6.439  15.718  0.3999  0.5997  1.1719
19831TIP3    H280909   5.031   6.581  15.757  0.4708  1.0302 -0.2860
19832TIP3   OH280910   3.792   2.320   1.430 -0.2460 -0.3220 -0.1562
19832TIP3    H180911   3.782   2.343   1.522  0.5576  0.7079 -0.2989
19832TIP3    H280912   3.725   2.254   1.413  0.0999 -1.0901  1.3520
19833TIP3   OH280913   3.188   2.275   0.415 -0.5666 -0.1681 -0.4226
19833TIP3    H180914   3.272   2.299   0.455 -0.4651  0.8295 -1.1900
19833TIP3    H280915   3.199   2.184   0.387 -0.2466 -0.5094  0.7552
19834TIP3   OH280916   0.876   4.987   2.546  0.1499  0.2922  0.3768
19834TIP3    H180917   0.821   4.913   2.519  1.3393 -0.4802 -0.0251
19834TIP3    H280918   0.961   4.970   2.505  0.6815  1.4765  0.9294
19835TIP3   OH280919   0.622   4.694  15.030  0.1929  0.3814  0.0692
19835TIP3    H180920   0.527   4.699  15.045  0.4123 -1.3825  2.6973
19835TIP3    H280921   0.633   4.723  14.940 -3.0468 -0.9128 -0.9181
19836TIP3   OH280922   3.461   5.279  11.942 -0.4567 -0.0534 -0.4070
19836TIP3    H180923   3.509   5.312  11.866  0.7679 -0.4635  0.1793
19836TIP3    H280924   3.389   5.342  11.953 -0.7483 -0.0566 -1.9679
19837TIP3   OH280925   2.257   5.360   1.613 -0.2035 -0.0045  0.0771
19837TIP3    H180926   2.204   5.322   1.543  0.5246 -2.8037  0.9315
19837TIP3    H280927   2.329   5.298   1.626  0.9999  1.6169  1.7322
19838TIP3   OH280928   0.721   3.015   1.785  0.0158  0.0074 -0.0596
19838TIP3    H180929   0.636   3.040   1.823 -0.2580  1.2601 -1.4074
19838TIP3    H280930   0.699   2.978   1.700  0.8567  1.3927 -0.9177
19839TIP3   OH280931   6.000   3.781   3.809  0.6394  0.1754 -0.0502
19839TIP3    H180932   6.027   3.870   3.833  0.9024 -0.1140  0.7907
19839TIP3    H280933   5.940   3.755   3.879  1.5843 -0.7755  0.4458
19840TIP3   OH280934   2.457   5.349   4.344 -0.0625 -0.5075 -0.4101
19840TIP3    H180935   2.435   5.405   4.269 -2.2389 -0.0094  0.5390
19840TIP3    H280936   2.373   5.325   4.382  0.9612 -1.6273  1.2613
19841TIP3   OH280937   4.972   3.283   4.690  0.7866 -0.1780 -0.4202
19841TIP3    H180938   5.015   3.329   4.618 -0.9913 -0.7234 -1.8864
19841TIP3    H280939   4.931   3.207   4.650  1.4474 -1.6712  1.5278
19842TIP3   OH280940   4.855   5.917   6.523 -0.1893  0.1782  0.0701
19842TIP3    H180941   4.773   5.874   6.549  0.0780 -0.4670 -0.1175
19842TIP3    H280942   4.918   5.891   6.591 -0.1339  0.6510  0.2011
19843TIP3   OH280943   5.537   5.453   1.859  0.0247 -0.2517 -0.3477
19843TIP3    H180944   5.538   5.370   1.907 -2.3085  0.6557  1.4359
19843TIP3    H280945   5.449   5.458   1.822  0.4493  0.9950 -1.2373
19844TIP3   OH280946   5.744   3.110   4.515  0.2083  0.3494 -0.5522
19844TIP3    H180947   5.654   3.134   4.491 -0.0223 -0.0041 -0.0793
19844TIP3    H280948   5.737   3.019   4.544  0.8892  0.0159 -1.4052
19845TIP3   OH280949   4.932   1.445  16.019 -0.1188 -1.2998 -0.0886
19845TIP3    H180950   4.925   1.475  16.110 -0.2928 -1.6755  0.0238
19845TIP3    H280951   5.001   1.499  15.981 -3.4914  2.6969 -1.2709
19846TIP3   OH280952   1.945   1.868  14.051 -0.3521 -0.6860 -0.1583
19846TIP3    H180953   1.901   1.827  13.977  0.2919 -1.0669 -0.3451
19846TIP3    H280954   1.947   1.799  14.118  0.7538 -0.9953 -0.4813
19847TIP3   OH280955   0.876   1.710   0.838  0.0424  0.1968  0.7109
19847TIP3    H180956   0.878   1.701   0.933 -0.2498 -0.3196  0.6700
19847TIP3    H280957   0.877   1.805   0.823 -1.8904  0.3469  1.2845
19848TIP3   OH280958   5.911   5.625  11.488 -0.1545 -0.4542  0.0304
19848TIP3    H180959   5.975   5.635  11.559 -0.9319 -0.6144  0.7744
19848TIP3    H280960   5.949   5.673  11.414 -0.4911  1.9972  1.3253
19849TIP3   OH280961   5.720   5.837  11.195 -0.0355  0.2125  0.8209
19849TIP3    H180962   5.733   5.826  11.100  1.8805  1.1711  0.9102
19849TIP3    H280963   5.783   5.777  11.234  0.2604  0.9049  1.4414
19850TIP3   OH280964   3.990   6.396   3.309 -0.3041  0.2108 -0.6104
19850TIP3    H180965   4.037   6.434   3.383 -0.5891 -2.0022  0.7976
19850TIP3    H280966   4.029   6.438   3.232 -0.0252  2.6138  0.7545
19851TIP3   OH280967   3.290   1.328   4.320 -1.1477  0.1670 -0.4708
19851TIP3    H180968   3.226   1.382   4.367  0.2950  0.2681  1.5552
19851TIP3    H280969   3.259   1.238   4.332  0.1031 -0.0080  2.4879
19852TIP3   OH280970   0.492   2.897  15.806 -0.1674  0.1333 -0.3758
19852TIP3    H180971   0.563   2.844  15.770  0.9230  0.3307  1.3640
19852TIP3    H280972   0.508   2.985  15.773  0.0715  0.0720 -0.4248
19853TIP3   OH280973   1.315   4.093   2.903 -0.3254 -0.8696 -0.0279
19853TIP3    H180974   1.302   4.183   2.874 -1.5601 -1.0053  0.0646
19853TIP3    H280975   1.407   4.089   2.928 -0.8282  1.1111  2.5490
19854TIP3   OH280976   2.022   1.800   5.268 -0.1923 -0.1893 -0.3441
19854TIP3    H180977   2.055   1.878   5.313 -0.9706 -0.9883  1.7484
19854TIP3    H280978   1.927   1.805   5.278 -0.2044 -2.4077  1.8242
19855TIP3   OH280979   4.943   5.042  15.514  0.1082 -0.1745 -0.4464
19855TIP3    H180980   4.936   5.110  15.446  1.8857 -0.2947 -0.8043
19855TIP3    H280981   4.992   5.085  15.585 -0.5951 -0.4528  0.2175
19856TIP3   OH280982   5.316   2.192   6.836  0.0395  0.6118 -0.0911
19856TIP3    H180983   5.288   2.125   6.898 -1.2664  1.0655 -0.1527
19856TIP3    H280984   5.357   2.144   6.765 -0.3760 -0.0877  0.1365
19857TIP3   OH280985   1.268   0.282  13.591 -0.3452  0.0335 -0.0771
19857TIP3    H180986   1.296   0.327  13.671  0.8731 -0.7723 -0.0262
19857TIP3    H280987   1.306   0.333  13.520  2.3518 -1.6587  0.0180
19858TIP3   OH280988   6.199   2.565  11.162  0.0457  0.1354 -0.5669
19858TIP3    H180989   6.189   2.470  11.167 -0.3961  0.2265  0.3658
19858TIP3    H280990   6.242   2.590  11.244 -0.0448  0.7647 -0.7018
19859TIP3   OH280991   2.869   2.204   0.591 -0.3031  0.0697  0.0208
19859TIP3    H180992   2.775   2.192   0.580 -0.1773 -2.5063  1.1940
19859TIP3    H280993   2.885   2.294   0.562 -3.6407  1.8119  2.8692
19860TIP3   OH280994   2.637   4.173   0.683  0.9813  0.0160  0.2300
19860TIP3    H180995   2.643   4.108   0.613  2.0659 -0.2792  0.5837
19860TIP3    H280996   2.702   4.146   0.747  1.1068  1.1835  0.6208
19861TIP3   OH280997   6.158   6.468   0.259  0.0108 -0.4298 -1.2350
19861TIP3    H180998   6.156   6.557   0.294 -1.3918 -0.5465 -0.9345
19861TIP3    H280999   6.164   6.479   0.164 -0.2303 -0.0110 -1.2045
19862TIP3   OH281000   4.876   3.569   5.060  0.3961  0.6639  0.0338
19862TIP3    H181001   4.794   3.613   5.037  0.1981  0.5392  0.4989
19862TIP3    H281002   4.868   3.482   5.020  0.0738  0.4658  0.5250
19863TIP3   OH281003   2.885   5.663   6.140  0.3131 -0.2591 -0.2663
19863TIP3    H181004   2.887   5.623   6.227  2.5943  0.7816  0.2395
19863TIP3    H281005   2.901   5.756   6.156 -0.5297  0.1635 -1.7348
19864TIP3   OH281006   0.618   3.891  11.427  0.2775  0.0160  0.0987
19864TIP3    H181007   0.681   3.821  11.409 -0.7339 -1.0514  0.5671
19864TIP3    H281008   0.550   3.880  11.361 -1.2660 -1.2060  1.7780
19865TIP3   OH281009   6.365   3.039  16.806  0.5676 -0.2182 -0.2904
19865TIP3    H181010   6.406   3.038  16.893  0.0361 -0.7126 -0.0405
19865TIP3    H281011   6.272   3.030  16.824  0.4537 -0.2746 -0.9172
19866TIP3   OH281012   6.224   0.644   5.772  0.3726 -0.5605  0.0406
19866TIP3    H181013   6.273   0.600   5.841 -0.2987  0.1450  0.9887
19866TIP3    H281014   6.267   0.616   5.691  1.6977 -0.7581  0.7777
19867TIP3   OH281015   1.903   3.941   4.528  0.7777 -0.3329 -0.5361
19867TIP3    H181016   1.934   3.872   4.587 -0.4440 -0.3573  0.1174
19867TIP3    H281017   1.875   3.894   4.449 -1.4241 -0.8243  0.4507
19868TIP3   OH281018   5.202   2.719   2.308 -0.2032  0.4394 -0.4424
19868TIP3    H181019   5.127   2.734   2.249  0.5390  0.4840 -1.4067
19868TIP3    H281020   5.244   2.805   2.314 -0.5408  0.5398  0.5493
19869TIP3   OH281021   6.474   2.942   0.251  0.1112  0.6474 -0.9015
19869TIP3    H181022   6.565   2.917   0.265 -0.3897 -1.5769 -1.1748
19869TIP3    H281023   6.446   2.978   0.336  1.4588  2.2696 -1.0991
19870TIP3   OH281024   3.039   1.193  11.907 -0.3004  0.3846  0.3726
19870TIP3    H181025   3.058   1.113  11.956  0.5061  0.0721 -0.4234
19870TIP3    H281026   3.072   1.175  11.819 -2.2004  0.7222 -0.4668
19871TIP3   OH281027   0.956   1.199   5.566  0.4480 -0.0476 -0.0081
19871TIP3    H181028   0.874   1.150   5.555  0.0149  0.8575 -1.1365
19871TIP3    H281029   0.928   1.289   5.581  1.2356 -0.0322  1.5087
19872TIP3   OH281030   4.836   5.448   5.828  0.0859 -0.3469 -0.4119
19872TIP3    H181031   4.908   5.407   5.781  0.6022  1.8556 -1.6965
19872TIP3    H281032   4.758   5.430   5.775  0.2957  0.1780 -0.9171
19873TIP3   OH281033   0.511   4.050   0.775 -0.6149  0.1619 -0.1915
19873TIP3    H181034   0.504   3.955   0.779  0.1014 -0.0937 -2.9887
19873TIP3    H281035   0.425   4.080   0.748 -1.1020  0.4494  1.5476
19874TIP3   OH281036   2.872   0.579  14.498  0.3627  0.2868 -0.3026
19874TIP3    H181037   2.902   0.624  14.419  0.3350 -0.2680 -0.6315
19874TIP3    H281038   2.833   0.498  14.466  1.3304 -0.4489  0.3670
19875TIP3   OH281039   1.724   2.731   0.253  0.0886 -0.2852 -0.1552
19875TIP3    H181040   1.656   2.767   0.310 -1.0724  0.2931 -1.8256
19875TIP3    H281041   1.676   2.696   0.178  1.6318  0.6574 -1.6638
19876TIP3   OH281042   2.896   3.612  15.751 -0.4418  0.0942  0.4693
19876TIP3    H181043   2.879   3.671  15.677  1.8169 -1.3458 -1.3340
19876TIP3    H281044   2.836   3.539  15.738 -0.9186  0.4147  0.8152
19877TIP3   OH281045   6.148   0.318   1.834 -0.7134 -0.2579 -0.7252
19877TIP3    H181046   6.191   0.296   1.751 -1.2736 -0.1478 -1.0493
19877TIP3    H281047   6.208   0.285   1.901  0.5757  1.1586 -1.1287
19878TIP3   OH281048   1.249   2.764  13.936 -0.0966  0.0023  0.1840
19878TIP3    H181049   1.322   2.825  13.929 -0.7175  0.6495 -0.7565
19878TIP3    H281050   1.210   2.762  13.849 -0.7203 -0.9524  0.4693
19879TIP3   OH281051   2.060   1.414   0.117 -0.5896  0.6705 -0.4038
19879TIP3    H181052   2.082   1.420   0.210  0.7279 -0.1956 -0.6344
19879TIP3    H281053   2.010   1.332   0.109 -1.0038  0.9213 -0.4112
19880TIP3   OH281054   4.072   3.133   2.805 -0.0842  0.0520 -0.0627
19880TIP3    H181055   4.062   3.121   2.899  2.2228  0.4918  0.3033
19880TIP3    H281056   4.145   3.194   2.796 -2.0080  2.2810 -2.1139
19881TIP3   OH281057   6.159   2.911   2.957 -0.0979  0.1282  0.4671
19881TIP3    H181058   6.156   3.001   2.923 -2.3164  0.9105  2.4101
19881TIP3    H281059   6.086   2.867   2.915 -0.0079 -0.2775  0.7331
19882TIP3   OH281060   6.624   3.711   6.557  0.4511 -0.0739  0.4845
19882TIP3    H181061   6.625   3.664   6.641  0.6646 -0.7174  0.1241
19882TIP3    H281062   6.623   3.642   6.491  0.4039  0.4340 -0.0488
19883TIP3   OH281063   5.518   2.142   3.524 -0.0585 -0.5741 -0.5361
19883TIP3    H181064   5.559   2.071   3.475  1.3002 -0.5921  0.5737
19883TIP3    H281065   5.434   2.156   3.480  0.7497 -1.1222 -2.3570
19884TIP3   OH281066   5.012   4.925  13.928  0.5615  0.2482 -0.1399
19884TIP3    H181067   4.965   4.923  14.012  0.5216 -1.6334 -0.1588
19884TIP3    H281068   5.047   5.014  13.922 -1.6185  1.2255  0.6361
19885TIP3   OH281069   6.516   3.190   2.935 -0.2062 -0.2561 -0.5056
19885TIP3    H181070   6.595   3.221   2.979 -0.4251  0.5831 -0.6907
19885TIP3    H281071   6.494   3.108   2.981  1.7059 -1.4315 -1.5618
19886TIP3   OH281072   6.062   4.956   5.211  0.2784 -0.7583 -0.2974
19886TIP3    H181073   6.082   4.955   5.304 -1.4289  0.5504  0.1247
19886TIP3    H281074   6.019   4.871   5.195 -0.7487 -0.3968  0.4497
19887TIP3   OH281075   0.890   2.321   3.538  0.2014 -0.0260  0.4891
19887TIP3    H181076   0.828   2.342   3.609 -1.4035 -0.7530 -0.6324
19887TIP3    H281077   0.905   2.406   3.495  1.2421  0.4336  1.7041
19888TIP3   OH281078   0.358   2.345   0.885  0.6246 -0.2250  0.1098
19888TIP3    H181079   0.376   2.275   0.948 -3.1025 -1.5282 -0.0238
19888TIP3    H281080   0.346   2.299   0.802 -1.8421  0.4577  0.0111
19889TIP3   OH281081   1.145   3.786  11.887  0.1264  0.1388 -0.0274
19889TIP3    H181082   1.052   3.780  11.907 -0.1752  0.1870 -1.3239
19889TIP3    H281083   1.178   3.697  11.898 -0.8970 -0.7848 -3.1739
19890TIP3   OH281084   3.816   6.751  16.302  0.6226  0.2420 -0.3747
19890TIP3    H181085   3.767   6.732  16.222  0.9320  0.3874 -0.5988
19890TIP3    H281086   3.890   6.690  16.300  0.6381  0.2561 -0.2085
19891TIP3   OH281087   0.512   3.434  14.803 -0.1975 -0.8741 -0.1425
19891TIP3    H181088   0.607   3.425  14.816 -0.1000 -0.5143 -0.5997
19891TIP3    H281089   0.500   3.524  14.776 -0.5689 -1.1676 -0.9784
19892TIP3   OH281090   2.882   5.014  14.607 -0.2754  0.1617  0.4148
19892TIP3    H181091   2.962   4.976  14.570  0.1260  1.6947 -0.3897
19892TIP3    H281092   2.827   4.939  14.627  1.3769 -0.9501  1.0396
19893TIP3   OH281093   4.499   0.199  11.479 -0.5389  0.8008 -0.1669
19893TIP3    H181094   4.593   0.187  11.468 -0.4608  1.3998 -0.1877
19893TIP3    H281095   4.491   0.263  11.551 -0.8968  1.6516 -0.9465
19894TIP3   OH281096   5.162   3.318  13.185 -0.2675  0.1811  0.1505
19894TIP3    H181097   5.144   3.368  13.264  0.2965  0.3989  0.1458
19894TIP3    H281098   5.149   3.380  13.113  2.9311  1.1432  0.2376
19895TIP3   OH281099   5.879   2.212   4.339  0.3668 -0.4724  0.4672
19895TIP3    H181100   5.935   2.182   4.410  0.4339  0.5553  0.8545
19895TIP3    H281101   5.792   2.180   4.362 -0.0475  1.7020  2.1834
19896TIP3   OH281102   6.746   2.859   0.317  0.0669 -0.0385  0.2339
19896TIP3    H181103   6.823   2.903   0.353  0.5989  0.0124 -0.9178
19896TIP3    H281104   6.733   2.783   0.373  0.2907  0.5508  1.0970
19897TIP3   OH281105   1.043   4.560  10.583 -0.0995  1.0797  0.4233
19897TIP3    H181106   0.961   4.602  10.556 -0.5785 -0.8016 -1.2723
19897TIP3    H281107   1.022   4.518  10.666 -0.3520  1.9981  0.8349
19898TIP3   OH281108   0.434   0.935  16.881 -0.1662 -0.5671  0.2696
19898TIP3    H181109   0.341   0.923  16.858 -0.1626  0.1166 -0.1435
19898TIP3    H281110   0.479   0.867  16.831 -0.4835 -1.2279  0.8567
19899TIP3   OH281111   0.325   5.005  14.792 -0.3863  0.2361 -0.0132
19899TIP3    H181112   0.293   4.949  14.721  0.2472 -0.0408 -0.0842
19899TIP3    H281113   0.402   5.049  14.756 -0.1456  0.2051  0.4572
19900TIP3   OH281114   3.383   3.946  17.172  0.4569 -0.8345 -0.8107
19900TIP3    H181115   3.430   4.023  17.143 -1.4762  1.1309  0.9334
19900TIP3    H281116   3.446   3.897  17.225  0.8811  1.2018  0.6454
19901TIP3   OH281117   1.913   5.734  14.167 -0.5134 -0.3270 -0.2448
19901TIP3    H181118   2.003   5.766  14.166 -0.5820 -0.1316 -1.0638
19901TIP3    H281119   1.871   5.783  14.238 -0.5497  1.2494 -1.2971
19902TIP3   OH281120   2.237   0.972  17.100 -0.2056 -0.6278 -0.4260
19902TIP3    H181121   2.266   0.942  17.014 -0.7072 -2.4835  0.0003
19902TIP3    H281122   2.202   0.894  17.142 -0.0773  0.2494  1.4316
19903TIP3   OH281123   3.980   0.436   2.322  0.1839 -0.1099 -0.1753
19903TIP3    H181124   3.916   0.416   2.390 -0.6879  1.4570 -0.4896
19903TIP3    H281125   4.031   0.509   2.357  0.5998 -0.1527 -0.6748
19904TIP3   OH281126   4.002   3.631   2.964 -0.0818  0.0832 -0.3759
19904TIP3    H181127   4.073   3.652   3.025 -0.9198 -1.3753  1.1877
19904TIP3    H281128   3.932   3.693   2.987 -0.1509 -0.0107 -0.3347
19905TIP3   OH281129   1.776   2.546  15.503  0.8144  0.2476 -1.0863
19905TIP3    H181130   1.683   2.530  15.486  1.0026 -0.8406 -1.1514
19905TIP3    H281131   1.812   2.460  15.523  0.8225  1.1234  3.9188
19906TIP3   OH281132   4.695   5.680   0.429 -0.1262 -0.2557 -0.4992
19906TIP3    H181133   4.668   5.628   0.505  0.2832  1.4544  0.8726
19906TIP3    H281134   4.621   5.676   0.369 -0.4842 -1.5751 -0.0062
19907TIP3   OH281135   0.479   4.183   1.103  0.0049  0.1174 -0.0616
19907TIP3    H181136   0.435   4.107   1.140 -0.2390  0.4171  0.2830
19907TIP3    H281137   0.547   4.147   1.045 -2.3766 -0.3916 -2.7383
19908TIP3   OH281138   2.140   4.878  11.064  0.2550 -0.3136  0.4375
19908TIP3    H181139   2.222   4.842  11.098 -0.5975 -1.5863  1.2343
19908TIP3    H281140   2.075   4.810  11.081 -1.4748  1.6225  2.0832
19909TIP3   OH281141   3.264   1.475   5.358 -0.1419 -0.1130  0.2149
19909TIP3    H181142   3.343   1.421   5.355  0.6591  1.0726 -0.9696
19909TIP3    H281143   3.209   1.441   5.287 -0.2597 -0.2898  0.3900
19910TIP3   OH281144   6.343   0.798   5.085 -0.4302  0.0784  0.3755
19910TIP3    H181145   6.424   0.849   5.085 -1.1446  1.2566  0.8247
19910TIP3    H281146   6.335   0.767   5.175 -1.0834  1.0118  0.6615
19911TIP3   OH281147   4.883   6.407  17.374  0.0364  0.9037  0.3940
19911TIP3    H181148   4.900   6.335  17.312  0.5563  1.0501  0.3624
19911TIP3    H281149   4.914   6.485  17.328 -1.4488  1.2895  0.0163
19912TIP3   OH281150   2.875   5.140  12.706  0.2226 -0.4313  0.2633
19912TIP3    H181151   2.790   5.099  12.695  0.1570 -0.1162 -0.5305
19912TIP3    H281152   2.936   5.066  12.718 -0.1600 -0.6523  0.8797
19913TIP3   OH281153   5.766   3.588  13.593  0.3798 -0.0733 -0.0990
19913TIP3    H181154   5.703   3.635  13.649 -1.7476 -0.0527 -2.3217
19913TIP3    H281155   5.740   3.496  13.600 -0.0456 -0.0486 -1.1450
19914TIP3   OH281156   1.308   2.489   4.350 -0.4345  0.2492  0.2727
19914TIP3    H181157   1.378   2.528   4.297 -0.4401 -1.4310 -1.0500
19914TIP3    H281158   1.349   2.414   4.393 -0.3402  1.7401  3.0281
19915TIP3   OH281159   6.049   5.207   2.245  0.4977 -0.4470  0.4936
19915TIP3    H181160   6.116   5.183   2.308  0.8041  2.0356  1.2075
19915TIP3    H281161   6.098   5.238   2.169  0.1313 -0.0753  0.4098
19916TIP3   OH281162   0.833   5.665   0.914 -0.1233  0.2308 -0.4122
19916TIP3    H181163   0.807   5.576   0.892 -1.0725  0.7192 -1.3331
19916TIP3    H281164   0.927   5.669   0.892 -0.0385 -0.5781 -0.2072
19917TIP3   OH281165   3.458   0.588  11.510  0.7401 -0.1034  0.3495
19917TIP3    H181166   3.450   0.583  11.605 -2.5504  1.8061  0.3185
19917TIP3    H281167   3.374   0.557  11.477  1.1215  1.0120 -1.8711
19918TIP3   OH281168   1.070   0.365   3.158 -0.7553  0.0471  0.0155
19918TIP3    H181169   0.976   0.348   3.158 -0.6548 -0.5340  0.3175
19918TIP3    H281170   1.109   0.283   3.188  0.0151 -0.6389 -2.5624
19919TIP3   OH281171   1.515   2.902   2.700  0.0107 -0.1545  0.2635
19919TIP3    H181172   1.589   2.853   2.737  1.2319  1.5925  0.2550
19919TIP3    H281173   1.511   2.875   2.608 -0.6677 -1.7469  0.7379
19920TIP3   OH281174   4.420   5.585  12.246  0.0108  0.1797 -0.6229
19920TIP3    H181175   4.486   5.582  12.315 -0.9167 -1.1160  0.2725
19920TIP3    H281176   4.441   5.511  12.189 -1.0075 -0.6376  0.0310
19921TIP3   OH281177   0.319   2.998  15.226 -0.3443 -0.3187  0.4097
19921TIP3    H181178   0.319   3.057  15.151 -2.7516  0.4856  0.9689
19921TIP3    H281179   0.343   3.054  15.301 -1.7257 -0.2073  0.7967
19922TIP3   OH281180   0.226   4.023  15.764  0.3965  0.2935  0.0859
19922TIP3    H181181   0.155   4.062  15.816 -1.9781  0.4041 -2.9245
19922TIP3    H281182   0.276   4.097  15.731 -0.0535  0.4111 -0.3355
19923TIP3   OH281183   2.191   4.157  17.370  0.1474  0.5570 -0.0779
19923TIP3    H181184   2.119   4.191  17.318 -0.8262 -1.6460 -0.2636
19923TIP3    H281185   2.249   4.115  17.306  0.2433  0.0633  0.3208
19924TIP3   OH281186   6.696   5.537  13.872 -0.6299  0.2473  0.5030
19924TIP3    H181187   6.741   5.621  13.869  0.8324 -0.5127  0.4971
19924TIP3    H281188   6.762   5.475  13.904 -1.0654 -1.2769 -1.3662
19925TIP3   OH281189   0.032   4.574   1.615 -0.2219  0.0232 -0.0839
19925TIP3    H181190   0.085   4.555   1.538 -0.0105  1.1095 -0.2323
19925TIP3    H281191  -0.058   4.563   1.585 -0.1821 -3.9493  0.7348
19926TIP3   OH281192   1.172   3.421  11.562  0.2325 -0.2015 -0.7467
19926TIP3    H181193   1.124   3.476  11.499  0.9653 -0.9768 -2.0202
19926TIP3    H281194   1.264   3.434  11.540  0.5118 -0.3699  0.2898
19927TIP3   OH281195   5.070   5.179  11.372 -0.0395 -0.0051 -0.0845
19927TIP3    H181196   4.989   5.199  11.325  0.0729  0.5999 -0.0331
19927TIP3    H281197   5.045   5.177  11.464 -0.0374 -0.0492 -0.0849
19928TIP3   OH281198   5.595   1.578   1.815 -0.2340 -0.4558 -0.4744
19928TIP3    H181199   5.625   1.508   1.873 -1.0680  1.0946  1.9757
19928TIP3    H281200   5.669   1.594   1.757  1.6303 -0.5195  1.7196
19929TIP3   OH281201   0.627   2.503  16.088  0.4407  0.4747  0.2077
19929TIP3    H181202   0.594   2.440  16.152 -1.1728  1.1518  0.1103
19929TIP3    H281203   0.669   2.571  16.140 -2.0099  1.7008  0.7609
19930TIP3   OH281204   0.037   4.889  12.555  0.0863 -0.2528  0.2292
19930TIP3    H181205   0.031   4.798  12.528 -1.9879 -0.8003  2.2105
19930TIP3    H281206  -0.045   4.929  12.526  0.4349  0.6666  0.4513
19931TIP3   OH281207   4.022   1.815   1.219 -0.1082  0.4274  0.2292
19931TIP3    H181208   4.096   1.774   1.175 -0.0458 -1.2157  1.7216
19931TIP3    H281209   3.949   1.804   1.158  0.6952  1.4380 -0.9545
19932TIP3   OH281210   5.734   5.960  14.586  0.4534  0.2267 -0.4065
19932TIP3    H181211   5.765   5.871  14.605  0.2587 -0.0861 -1.4961
19932TIP3    H281212   5.640   5.956  14.602  0.7547  0.9439  2.0351
19933TIP3   OH281213   6.072   1.620   2.483 -0.5957 -0.6847  0.1825
19933TIP3    H181214   6.076   1.709   2.447  0.4415 -1.1403 -0.8972
19933TIP3    H281215   6.140   1.619   2.551 -0.4489 -0.7154  0.0360
19934TIP3   OH281216   4.787   0.955   4.843  0.0752  0.5755  0.2611
19934TIP3    H181217   4.733   1.026   4.809 -0.4708 -0.2029 -0.5251
19934TIP3    H281218   4.733   0.877   4.834  0.8250 -0.0060  0.7289
19935TIP3   OH281219   2.317   5.500  12.762  0.1545  0.1272 -1.2403
19935TIP3    H181220   2.239   5.479  12.813 -0.2948 -0.9873 -2.3294
19935TIP3    H281221   2.388   5.457  12.808  0.7079  3.4333  1.3695
19936TIP3   OH281222   0.526   4.122  12.135  0.1992 -0.2711  0.0474
19936TIP3    H181223   0.581   4.061  12.184  1.3123 -0.5758 -1.5265
19936TIP3    H281224   0.507   4.192  12.198  3.0970  0.2649  0.4776
19937TIP3   OH281225   6.638   5.812   1.318 -0.0079  0.2182 -0.3114
19937TIP3    H181226   6.615   5.885   1.260 -1.4248 -1.1110 -1.5337
19937TIP3    H281227   6.559   5.798   1.370  0.3780 -0.2301  0.1557
19938TIP3   OH281228   1.653   3.196  13.847 -0.3571 -0.4161  0.1193
19938TIP3    H181229   1.629   3.206  13.939 -1.1793  0.7523 -0.2165
19938TIP3    H281230   1.658   3.285  13.813 -2.1488 -0.8669 -1.4915
19939TIP3   OH281231   4.449   1.867  12.297 -0.0251  0.3188 -0.2251
19939TIP3    H181232   4.360   1.832  12.296 -0.6942  1.6537  2.4420
19939TIP3    H281233   4.500   1.800  12.341  0.2079 -0.2070 -1.2641
19940TIP3   OH281234   2.595   2.769   4.475 -0.0762 -0.7194 -0.5382
19940TIP3    H181235   2.568   2.788   4.385 -1.2090 -0.6610 -0.2080
19940TIP3    H281236   2.609   2.855   4.515 -0.3802 -0.7170 -0.4328
19941TIP3   OH281237   1.388   4.247  15.093  0.2793 -0.2199  0.7281
19941TIP3    H181238   1.357   4.243  15.183 -0.5386 -3.7129  0.4335
19941TIP3    H281239   1.311   4.228  15.039  1.2787 -0.9441 -0.5236
19942TIP3   OH281240   1.809   4.802   2.889  0.2614 -0.4068 -0.8363
19942TIP3    H181241   1.899   4.835   2.886  0.2237 -0.0244  1.0199
19942TIP3    H281242   1.819   4.709   2.907  0.2895 -0.4315 -0.9779
19943TIP3   OH281243   0.831   4.745   5.927 -0.2638  0.4738 -0.0995
19943TIP3    H181244   0.790   4.713   6.007 -0.7722  0.9537 -0.1581
19943TIP3    H281245   0.895   4.810   5.957  0.3855 -0.1975 -0.0144
19944TIP3   OH281246   3.209   0.945  12.722 -0.5933  0.8595 -0.0321
19944TIP3    H181247   3.282   0.961  12.783 -2.0823 -1.1624  2.4906
19944TIP3    H281248   3.145   1.014  12.744 -0.4828  1.0963 -0.4510
19945TIP3   OH281249   0.750   1.155  12.112  0.5361  0.3782  0.6646
19945TIP3    H181250   0.665   1.164  12.070  0.3871 -1.9929  0.3065
19945TIP3    H281251   0.730   1.149  12.206 -0.0218 -2.3405  0.4644
19946TIP3   OH281252   4.414   3.958  14.051 -0.8217 -0.0315  0.3737
19946TIP3    H181253   4.435   3.971  14.144  0.3676 -1.9955  0.4576
19946TIP3    H281254   4.472   4.018  14.005  0.9219 -1.2503  0.8498
19947LIG      S81255   3.020   3.066  15.964 -0.6951  0.2816 -0.1089
19947LIG     F181256   3.632   3.566  16.942  0.8888  0.1616 -0.2517
19947LIG     F281257   3.668   3.403  16.799  0.4171 -0.2244 -0.0673
19947LIG     F381258   3.781   3.587  16.793 -0.7687  0.0296 -0.2337
19947LIG     N181259   3.285   3.311  16.145  0.0836  0.3893  0.6085
19947LIG     N281260   3.295   2.927  16.060  0.1960 -0.5154 -0.6827
19947LIG     C181261   3.245   3.046  16.130 -0.5362  0.2602 -0.1412
19947LIG     C281262   3.329   3.174  16.096 -0.2326  0.1971  0.1449
19947LIG     C381263   3.354   3.423  16.066  0.4702 -0.1057 -0.5509
19947LIG     C481264   3.285   3.319  16.288 -0.4599 -0.4685  0.0588
19947LIG     C581265   3.484   3.463  16.135  0.6724 -0.7602  0.2060
19947LIG     C681266   3.427   3.350  16.347 -0.3882  0.7025 -0.2610
19947LIG     C781267   3.479   3.479  16.288  0.2544  0.1381 -0.0830
19947LIG     C881268   3.093   3.063  16.132 -0.1113  0.2311  0.1096
19947LIG     C981269   3.256   2.920  15.918 -0.1801  0.0358 -0.6096
19947LIG    C1081270   3.109   2.917  15.916 -0.6188 -0.7241  0.0956
19947LIG    C1181271   3.478   3.604  16.345  0.2236  0.1986  0.1654
19947LIG    C1281272   3.297   2.804  16.138  0.4675  0.2154 -0.0779
19947LIG    C1381273   3.466   3.632  16.487 -0.3092 -0.0588 -0.3284
19947LIG    C1481274   3.522   3.720  16.262 -0.0841 -0.2571 -0.0513
19947LIG    C1581275   3.555   3.567  16.581  0.3822 -0.4458  0.9310
19947LIG    C1681276   3.362   3.707  16.538 -0.0262  0.2048 -0.6101
19947LIG    C1781277   3.423   3.791  16.192  0.7835 -0.0514 -0.4513
19947LIG    C1881278   3.645   3.780  16.280 -0.0171 -0.3721 -0.1350
19947LIG    C1981279   3.546   3.592  16.721  0.4905  0.2894  0.9132
19947LIG    C2081280   3.338   3.714  16.675  0.1771 -1.0746  0.3013
19947LIG    C2181281   3.453   3.907  16.126  0.5223 -0.5803  0.0156
19947LIG    C2281282   3.671   3.908  16.228  1.0215  0.9306 -0.1727
19947LIG    C2381283   3.433   3.664  16.767  0.4598 -0.4127 -0.3174
19947LIG    C2481284   3.573   3.973  16.154  0.4342 -0.5844 -0.5295
19947LIG    C2581285   3.659   3.539  16.813  0.4708 -0.1643 -0.3001
19947LIG     H181286   3.269   3.033  16.237  0.4449 -1.4055 -0.5242
19947LIG     H281287   3.432   3.162  16.137 -0.8524  0.9990  2.0476
19947LIG     H381288   3.346   3.170  15.986 -3.6353  1.0807 -0.5124
19947LIG     H481289   3.301   3.519  16.051  0.3834  0.0563  0.7439
19947LIG     H581290   3.378   3.389  15.963  1.5290 -0.6110 -0.1529
19947LIG     H681291   3.237   3.235  16.342 -1.1408  1.5669  2.8909
19947LIG     H781292   3.218   3.404  16.314  2.9633  2.3503  0.5454
19947LIG     H881293   3.526   3.553  16.085  0.1706  0.2961  1.6170
19947LIG     H981294   3.558   3.381  16.116  3.1011  1.1736  0.7941
19947LIG    H1081295   3.488   3.258  16.335 -1.7268 -0.3844  0.8537
19947LIG    H1181296   3.406   3.358  16.456  1.5945  2.2988  0.0486
19947LIG    H1281297   3.056   2.973  16.184  0.2384 -1.2303 -2.0232
19947LIG    H1381298   3.059   3.146  16.198  1.2412 -0.3543  1.5958
19947LIG    H1481299   3.295   2.825  15.875 -2.7619 -1.1554 -0.5460
19947LIG    H1581300   3.299   3.003  15.858 -0.3543 -1.6022 -3.1309
19947LIG    H1681301   3.078   2.902  15.811 -0.0703  0.1698 -0.2078
19947LIG    H1781302   3.077   2.821  15.961 -0.9468  0.0816  1.6474
19947LIG    H1881303   3.284   2.709  16.082  0.2376  0.3914 -0.3221
19947LIG    H1981304   3.219   2.811  16.216  0.4015  0.6520 -0.1773
19947LIG    H2081305   3.394   2.803  16.192  0.8868 -0.9990 -0.8251
19947LIG    H2181306   3.636   3.507  16.541 -0.8411 -3.3010  2.4311
19947LIG    H2281307   3.285   3.752  16.477 -0.1297  1.1284  0.1660
19947LIG    H2381308   3.331   3.735  16.178  0.4793 -0.0362  1.2937
19947LIG    H2481309   3.722   3.721  16.326 -0.5800 -0.4722  0.7051
19947LIG    H2581310   3.259   3.777  16.712  1.4968  0.8370  0.0188
19947LIG    H2681311   3.386   3.966  16.066  1.4794  1.0249  0.4699
19947LIG    H2781312   3.774   3.937  16.243  1.9634 -1.8643 -0.6162
19947LIG    H2881313   3.409   3.682  16.871  1.2159  0.1182 -0.2293
19947LIG    H2981314   3.587   4.068  16.105 -0.7596 -0.4968 -0.7168
   6.76100   6.76100  17.39782
